3536
 energy: -3716.257701851907 gnorm: 0.000659770848 xtb: 6.6.1 (8d0f1dd)
C           44.69626904728651       67.02453133487539       49.48886856431157
C           45.77798542275431       65.95569728519780       49.62483773763926
C           45.41224960193965       64.99712079322427       50.75240978114337
C           47.14652815568333       66.60270844913120       49.87035320400366
C           48.34439617299801       65.67579053695194       49.61572412976074
C           49.57597405702474       66.21300529158783       50.34095251498531
C           48.62286326591051       65.55425227821959       48.11344860532903
C           49.56424456387721       64.39849247739910       47.72702571818221
C           50.79713356686653       64.93884027473455       47.00367882554474
C           48.86626230087656       63.36950631716122       46.82840817957080
C           47.71056859576829       62.60323773920562       47.48563191076115
C           48.22589052702990       61.63663217675171       48.54946649318835
C           46.91435210349507       61.84660640250561       46.41135861292879
C           45.47025113779655       61.48476323805643       46.79329068743786
C           44.96615060657977       60.38427168439167       45.86202501603835
C           44.58098988536658       62.73150951684381       46.71146927824532
C           43.12499603519505       62.58371621878264       47.17658146199538
C           42.35438944118312       63.83562963480929       46.75361078280574
C           43.03682564510743       62.38938035933824       48.69424524252677
C           41.69000726897944       61.85754224443853       49.20757202982206
C           41.57527292790334       62.14554271995848       50.70423101017430
C           41.56728868317014       60.35473797271150       48.93382622421096
C           40.16106173181929       59.76185480089379       49.09941705544996
C           40.27607233134584       58.24737044061035       49.25613355875687
C           39.27332341747185       60.12477104888072       47.90266039656228
C           37.78211095888144       59.82048560965595       48.09490301495428
C           37.06778462511360       59.84803338946070       46.74360261684527
C           37.11585718753093       60.80606036245030       49.06534648167113
C           35.91881208086063       60.20435528794967       49.81628478263224
C           35.00325140260424       61.31828147331706       50.32154162656734
C           36.40372634312217       59.33265504898603       50.98160632660862
C           35.32085266072129       58.41573266731514       51.58256882582522
C           35.03593707250837       58.78727156955004       53.03898682971412
C           35.71101844735011       56.93189019437053       51.50810425133412
C           35.71566073192000       56.32168228085588       50.10053021713910
C           34.30212731294214       56.23953591817354       49.52573491433265
C           36.34501084216502       54.91561936519981       50.13339169060715
C           37.86064062227910       54.89101053484934       49.90146586478149
C           38.17364660982781       55.15530355914901       48.42770774844112
C           38.47093709186784       53.53352759876600       50.28283909146544
C           38.50992566602703       53.18769864737310       51.77553352849700
C           39.32771635571297       54.21454249939919       52.56101314099165
C           39.12731850393713       51.79829447168372       52.01040595369070
C           38.48207500941532       50.60987402429306       51.28365908386761
C           36.97598532133559       50.55123673807837       51.54064566937969
C           39.11059419701542       49.28741685339552       51.75119629801679
C           40.56075677342406       49.04254922962352       51.30784833571082
C           40.59486889026724       48.41961024958440       49.91285620905526
C           41.29015839892351       48.12768279108266       52.30311142420862
C           41.63618715086591       48.80576288388609       53.63425685836413
C           42.79265816508682       49.78928928264272       53.46788407269378
C           41.96999373167691       47.77944655641875       54.73082471455827
C           41.53369654764800       48.25861741966992       56.12221777558216
C           42.30166757631334       47.53110683767665       57.22140288837895
C           40.02185246603696       48.07419441777816       56.31513693690988
C           39.36275881533005       49.12740759087038       57.21599998852690
C           37.99987872957185       48.61455878850971       57.68023196184352
C           39.21677250061159       50.45094630471274       56.45272398517211
C           38.87966680962280       51.68839808111113       57.30127458064882
C           37.94097167784663       52.60536270389376       56.51354365857491
C           40.12479947722956       52.49016233717948       57.71047876600442
C           41.05803218936851       51.82097164966219       58.72418012055265
C           40.34730396015598       51.59703444525343       60.05883935903958
C           42.30824942744307       52.67512791988337       58.98081029333491
C           43.28848390203729       52.85628132845009       57.81190732233607
C           43.66112244454698       51.51276291822581       57.19113524335786
C           44.54428535005783       53.56435603233594       58.33960878304024
C           45.49114116750331       54.14540094035855       57.27879831236749
C           46.87893764502391       54.30951216536721       57.89504863375908
C           44.95368839256503       55.48327856052275       56.76025517075041
C           45.72154330650495       56.10652902392916       55.58818281746558
C           45.33879659312640       57.58026792819218       55.45566517480139
C           45.55733741306972       55.36299983601572       54.25186368056893
C           44.11828211056907       55.16166697119100       53.74154445530760
C           43.69675862205831       53.69771710087173       53.87400991175115
C           43.95924020739362       55.58741142463651       52.27396366370327
C           43.91209099585279       57.09832150366880       52.02798368494179
C           42.62505806657996       57.69767107874563       52.59271320190691
C           43.98039922196912       57.41012055683468       50.52518618152173
C           45.37010688695750       57.33235066233497       49.88499082383112
C           46.22361588960565       58.51913670781154       50.32573872534508
C           45.25481345718039       57.34283154789302       48.35313927331256
C           44.82885799857590       56.00871762663152       47.72908577673696
C           46.01833731540982       55.05246073117866       47.65864924850224
C           44.25825274224175       56.21450932249910       46.31765381597503
C           42.83988882259020       56.79648818862410       46.28129780305358
C           41.79606455090860       55.75292985925890       46.67392714205948
C           42.51716159857349       57.41194128699524       44.91075409583535
C           42.40476989849491       56.41034755793588       43.76318108764336
C           42.25326814636625       57.11681031982106       42.42101451684297
H           43.72774534062755       66.56877775505058       49.28923831434187
H           44.61500853755593       67.59953856427767       50.40799553783536
H           44.92634622249985       67.70885224171322       48.67526393034149
H           42.15063933398565       56.39351213150578       41.61478206303888
H           41.37216354415435       57.75574135996334       42.42169977942766
H           43.12319488598848       57.73680814802228       42.21374933401622
H           41.57320280932991       57.96089965596811       44.98437810730710
H           43.29514645755460       58.13941086228486       44.66461538950317
H           44.93248019410741       56.87736594549026       45.76966756379466
H           44.25442355003980       55.25248503656737       45.79998178855656
H           44.05733851147992       55.54938938376117       48.35408295060097
H           46.78382261420958       55.45535901017989       46.99775479744886
H           46.45921663765756       54.90260356590490       48.64109754935079
H           45.71438840757686       54.08224119676684       47.27105629098193
H           44.54461262756537       58.12406719938758       48.07544126953047
H           46.22138205008168       57.62220989477900       47.92603520184987
H           43.29930154545886       56.73225119265803       50.00559273858622
H           43.60629997838002       58.42428644232186       50.36391927637789
H           42.78743933711339       57.61479096461566       47.00951240656013
H           41.89309223578691       54.85841732554217       46.06446811959378
H           41.91078663075912       55.46474378095682       47.71608139614020
H           40.79185744852113       56.15117661165901       46.53904118693476
H           45.86627430083169       56.41063147617145       50.20204838121226
H           46.30486956691315       58.56674626659699       51.40789922802438
H           47.22711791451068       58.44885217766026       49.91207827459157
H           45.77474516393255       59.44968430526901       49.98224003050121
H           44.75793170421370       57.57137053016886       52.53252958574701
H           42.59205872340883       58.76962294418433       52.40949276615913
H           41.75777519483614       57.23735094486183       52.12104300984137
H           42.54631941807364       57.54158430695679       53.66493792946895
H           44.77892963005326       55.15080665388401       51.69873386005458
H           43.02932018188608       55.15987912293982       51.88912951214699
H           43.43153233112047       55.75767708354650       54.34734485104025
H           43.80504086970134       53.35396939670377       54.89762611997322
H           42.65525837981617       53.56936558870947       53.58263618036415
H           44.31092103100976       53.06615104740992       53.23430994213251
H           46.12552395089109       55.92160779584434       53.50641954269809
H           46.03893998470453       54.38696152271427       54.33903096226869
H           46.79136452332253       56.08067340159431       55.82485614982674
H           44.28109441752530       57.69503119143874       55.23429849307551
H           45.54811683101500       58.11201742167047       56.38250840333101
H           45.91204481155989       58.05229310715169       54.66032359719735
H           43.90833701925832       55.35944012965677       56.47183424442500
H           44.97443942560351       56.19342323622353       57.59224155079132
H           45.57259508131796       53.44349005875409       56.44447044839710
H           47.22773954947986       53.36596156306337       58.30665181920096
H           47.60058071455808       54.63316531177442       57.14999691397925
H           46.85498015212637       55.04449521177249       58.69771155984857
H           44.24417948333868       54.37487071951733       59.00964271165027
H           45.09846527488899       52.83991229806949       58.93845949017786
H           42.81714992635697       53.48344331349688       57.04787127202437
H           44.50624256166327       51.61262607418018       56.51522573135288
H           43.93364140609670       50.79911192550069       57.96601978011724
H           42.82772788842166       51.10658101598520       56.62528297166558
H           41.98351901200835       53.66225895700683       59.32081780384645
H           42.86003755262756       52.21293963314491       59.80546479957839
H           41.37576943639197       50.85043883906967       58.33777263993629
H           39.97603852248857       52.53952938498542       60.45644322493393
H           39.50658001584764       50.91654494463993       59.95368925930546
H           41.03161064009314       51.16901569583769       60.78770250468847
H           40.68882045795393       52.72138450253218       56.80381364828484
H           39.79326757270881       53.44063463419337       58.13865364349337
H           38.34708094271090       51.37553206707953       58.20318689184197
H           38.41648038967102       52.93522695325981       55.59188330897348
H           37.02034082766312       52.08485798313683       56.25652567241116
H           37.68055482041096       53.48650631651717       57.09590849767527
H           40.13676516894251       50.65481084741693       55.90137575736293
H           38.42700509524077       50.30697263466313       55.70938388754998
H           39.98878977941195       49.27832724599495       58.09934007327533
H           37.47807727733014       49.35859182547114       58.27796521226718
H           37.37540838256683       48.36951711215629       56.82277474041528
H           38.11382630604797       47.71675345744391       58.28514181543771
H           39.51706813756874       48.09884210576097       55.34697674250370
H           39.84828797034199       47.08312122231688       56.74184142412788
H           41.77341827870403       49.32232890079023       56.20008359031167
H           42.18299007745757       46.45457891377037       57.12194652374553
H           43.36201530975874       47.76482433506549       57.16439141586800
H           41.93950972472071       47.82675203361371       58.20398045963353
H           41.47679166816481       46.82648776780098       54.52329657199513
H           43.04582359784960       47.59349737812773       54.73109546657754
H           40.75965387756806       49.37337348629478       53.96105068074413
H           43.06038870854877       50.23245710640189       54.42350829793321
H           43.66883601606408       49.28313987969106       53.07033140337730
H           42.52610218580970       50.59680121545522       52.79079286295992
H           40.65321494735063       47.25967089274712       52.49129704639070
H           42.21306434636162       47.76294135557948       51.84576355361654
H           41.08985793184726       49.99715419046593       51.26133079425969
H           40.13239501797818       47.43393926750824       49.92199190658329
H           40.06022877060551       49.04003823190232       49.19674484230637
H           41.62058641641843       48.30625370730890       49.56736542815599
H           39.04740153408537       49.26084220913768       52.84062448599951
H           38.49829598505217       48.46097568632179       51.38034121507438
H           38.64894522111067       50.71198038008712       50.20638150341438
H           36.54349341558820       49.67056167835302       51.06929000949334
H           36.77775664664993       50.49596591650033       52.60947941625729
H           36.46950360511432       51.42598459207893       51.14187660352051
H           40.17980628460392       51.85097546863472       51.72526810832498
H           39.08994447033957       51.59633115014984       53.08480712263419
H           37.49188405063411       53.18793460082897       52.17676265148358
H           39.45052813514653       53.89357421977145       53.59342548547134
H           40.31602396257973       54.33105709101437       52.12051227260189
H           38.83891277208159       55.18488476734709       52.57281583275780
H           37.91000234132527       52.76200503556890       49.75199613021755
H           39.49696287024830       53.50496026303487       49.90670830560875
H           38.32750271718579       55.67912645273091       50.49895694371347
H           37.78034600562137       54.34976922650821       47.80964939779065
H           37.73004404044569       56.08714653009197       48.08592867720211
H           39.24771661451502       55.21368726757779       48.27041029095088
H           36.11332462326412       54.46048436853349       51.09809125416136
H           35.87876558610365       54.29369381135162       49.36510264997799
H           36.30658757018544       56.96508566320271       49.44236528342091
H           33.67270016263468       55.60828507400213       50.15019801296998
H           33.84291060277650       57.22275664885180       49.46038548057445
H           34.32653143730901       55.81684802993566       48.52323600428145
H           36.70427077722380       56.81349054335286       51.94927657651056
H           35.01238480945024       56.35780276149823       52.12351076582416
H           34.39081590420051       58.55449081997881       51.02356674716558
H           34.77305576627165       59.83946666253362       53.12450366187662
H           34.20893409678973       58.19886151712588       53.43235430159670
H           35.91049638571624       58.59876004081999       53.65865136357933
H           37.24132217492246       58.72406542712390       50.63955793997265
H           36.79147163988124       59.99666312714348       51.75696987898066
H           35.34806648543149       59.57845943503177       49.12068861139085
H           35.55441193788683       61.99122698212188       50.97618938447130
H           34.60880092120476       61.89909930074175       49.48994484136475
H           34.16249507557133       60.91069145014009       50.87782989525886
H           37.84018523525443       61.15671137064457       49.80247156910806
H           36.78650047065615       61.68079560456653       48.49925562217116
H           37.68399482172937       58.80936403983153       48.49889018837301
H           36.00003801427585       59.68066257897881       46.86766128682440
H           37.20766615864034       60.81271835314664       46.25869577216901
H           37.45821972411473       59.07504362449161       46.08447184739099
H           39.37787429853984       61.18849792116720       47.67678574863230
H           39.63449977668547       59.57169715262769       47.03101890377449
H           39.71112026684556       60.16112010329342       50.01280825595797
H           39.30230805025410       57.78677517151817       49.39375711811649
H           40.73861406709666       57.81108883545339       48.37478236296165
H           40.88645067438329       58.00416508704642       50.12138871873149
H           41.90655543048597       60.14026611423548       47.91787595718927
H           42.24472432974996       59.83747809596211       49.61692650056210
H           40.87858393728912       62.38511600933134       48.69646047393334
H           42.40152264743765       61.68630528518256       51.24325914235927
H           41.60312414305103       63.21637568083352       50.89249545450740
H           40.64482992637154       61.75778487334044       51.11121597342338
H           43.81655535678898       61.69957930754937       49.02221127402554
H           43.23863406604810       63.35361749427216       49.16633890173572
H           42.67130538601306       61.72549089467574       46.67306406609323
H           42.35002548452495       63.93678816629009       45.67009972644502
H           41.32094727449777       63.79664926571130       47.08989407479795
H           42.81802902623235       64.72518258124045       47.17715535193999
H           45.03560271157703       63.52845482206318       47.30318899775632
H           44.57157637080501       63.06615840613298       45.67029581229460
H           45.46309091234310       61.09645188056820       47.81597563815038
H           45.61570359081519       59.51374955680340       45.91574769490159
H           43.96197088838505       60.06921822686188       46.13236046672524
H           44.95092034885767       60.73540730213517       44.83147053285795
H           46.87683736068332       62.44786545393930       45.49893961619391
H           47.45605785950855       60.92979339878956       46.16525256069792
H           47.04796161224615       63.32309906107282       47.97318845547063
H           48.95035116626364       60.94680974525623       48.11955687303979
H           48.70718177077587       62.17210764777796       49.36388221584704
H           47.41030458156629       61.05394777171290       48.96930325119919
H           48.48815534024909       63.89718251313986       45.94834916595579
H           49.60628226860256       62.64481477471266       46.47649622514334
H           49.90335216279575       63.89195451390665       48.63454383849162
H           51.29258834549023       65.69743097480828       47.60494150716444
H           51.51204405603706       64.14389689976653       46.80062903447799
H           50.51054998237292       65.39071987960136       46.05566204968893
H           47.67944377448354       65.43284216320079       47.58494868843350
H           49.05198785776113       66.49861500001151       47.77538326649897
H           48.11454582879450       64.68306543379488       50.01544201682329
H           49.79060315279306       67.22940688361909       50.01630501974392
H           49.41571934871381       66.22741528783689       51.41589956244572
H           50.44722611113050       65.59608040921384       50.13610544143742
H           47.25078249147438       67.48043320184227       49.22637595337630
H           47.17530779105216       66.95431942086061       50.90397114645879
H           45.81508046619474       65.38949509883172       48.68726050115139
H           44.45462692305258       64.51989713347622       50.55837006948302
H           46.16200029959985       64.21941869614369       50.86097041766100
H           45.33239707241925       65.54076177812793       51.69064588486253
H           43.29621032195610       55.78222577753144       43.73564784545745
H           41.54286444807249       55.76001590871928       43.92155015539759
C           44.27319357463415       47.48824141727351       67.68880956086367
C           44.73471822415588       48.93963148443600       67.79298028443239
C           43.57589342753606       49.88265742026590       67.47807775491766
C           45.91540916448009       49.22390108132187       66.85786242556573
C           47.23340138733224       48.55016235717635       67.29091577100471
C           48.35408736660771       49.58424925076590       67.37623001098554
C           47.59703396875210       47.41023826739348       66.33045037372121
C           48.87723533952770       46.62069464987123       66.64807045180370
C           49.07423456785464       45.55944397149010       65.56523841876245
C           48.80857782335325       45.98761985298060       68.04206343129765
C           50.06713857840857       45.24889776222010       68.52365815242155
C           49.72205056412892       44.50958559887024       69.81741264196252
C           51.23019368437705       46.22441352717387       68.73377922372144
C           52.58087614789100       45.58874505885849       69.09334003657261
C           53.58465062566079       46.69720966228122       69.41792615027515
C           53.12935197568384       44.69269971973042       67.96650337570470
C           53.00591996144177       43.18618293631959       68.22651135100293
C           53.96759677091821       42.75691579617546       69.33597698405833
C           53.32761023169294       42.37178479712971       66.96516784994867
C           52.33520996594297       42.48694928888233       65.80264185295309
C           50.97797833243146       41.88789925189917       66.16136897148350
C           52.90784940705453       41.78367821759631       64.56185314816396
C           52.37153457006868       42.32995811656011       63.22948869262049
C           52.55055218522378       41.27941574796691       62.13552407104373
C           53.10188095030263       43.63063333490577       62.87429307499030
C           52.54918921013908       44.42927979705187       61.68454805852114
C           53.56605479209518       45.50840174040565       61.31570137945764
C           51.18334010100912       45.04077857152026       62.01786981053107
C           50.45636504143769       45.74141878097448       60.85899646827063
C           49.27653545532898       46.53404310337523       61.42122173372545
C           49.98909639040288       44.72113517072215       59.81557673306744
C           49.32350753855945       45.28424547064233       58.55089058539615
C           48.80238224761579       44.11694161386022       57.71244139633130
C           50.17366533618906       46.25971469453521       57.71103804624827
C           51.20266496574962       45.68997959074577       56.72403579672377
C           52.45214541527817       45.15117243755570       57.41828133491102
C           51.64213310855261       46.77870698060977       55.72917044790328
C           50.62140639820749       47.20599407673667       54.66226113981895
C           50.25989611457845       46.04061700548507       53.74718532885449
C           51.23407398389799       48.36533206104406       53.86317734321752
C           50.35045051864260       49.07681893987094       52.82640669873439
C           51.23345599787744       50.07768658573847       52.07980053895326
C           49.16159895420073       49.78269095788561       53.48858461067019
C           48.13718062348835       50.40573065925464       52.52149096759624
C           47.76159482666697       51.81354522773370       52.98590612389530
C           46.85736575153307       49.56971915817461       52.39363683114765
C           46.96237247810156       48.28407046963147       51.56306566161828
C           47.33729611807983       48.59974992905234       50.11755564947239
C           45.61311463069587       47.55317121734427       51.62661210488017
C           45.58971494139006       46.14842174914532       50.99392072965414
C           44.52293855051560       46.07394963440145       49.90087594506423
C           45.32811663213470       45.05692559472897       52.03979014689931
C           46.50654403533444       44.80737096749961       52.99038516753134
C           47.54693029512429       43.90688986104763       52.32470287579719
C           46.05853510625528       44.15029594921580       54.30208928653362
C           45.19187350192750       45.00999870179157       55.22843082977688
C           45.94590124383743       46.25144906797362       55.70408570097647
C           44.73860957411318       44.19963322898393       56.45225245144793
C           43.76446641152905       43.04438168089580       56.17574100076622
C           42.41037360572930       43.56490763262660       55.70078826934250
C           43.63008980221297       42.20654563071378       57.45489605067188
C           42.76171234971989       40.94428639505634       57.36309439379044
C           42.57279985508473       40.37703689950236       58.77008014779418
C           43.36593689090257       39.88120700460091       56.43676214093100
C           42.36379282221306       38.79004910508604       56.00974820377066
C           42.74864037220244       37.43246556806426       56.60072867495535
C           42.27112743735374       38.66002081562480       54.48212612275954
C           41.68391508872576       39.87723753250318       53.75674793164894
C           40.17525830574433       39.97135389374795       53.98262715387181
C           41.96779423460172       39.80772408886857       52.24777315747249
C           43.42556654607660       40.06724491209515       51.83988782894617
C           43.79674200476048       41.53450684384153       52.03636145826381
C           43.63185195630421       39.65299876622117       50.37634591364758
C           45.09128234508111       39.63869918074101       49.90174405329611
C           45.13074679113749       39.41575939748712       48.39004782401535
C           45.91920443862356       38.56306476165675       50.62881143657338
C           46.85539680131926       39.11167050146943       51.71659043069426
C           48.05520855578025       39.80628733010052       51.07958891016725
C           47.28951262294541       37.96077603711385       52.63255851244321
C           48.20446967435191       38.32814827038877       53.81104217164651
C           48.53768735828426       37.04816657875999       54.57898214475262
C           47.53609951317605       39.37758124323582       54.70877648420471
C           48.22055600099161       39.68019223071191       56.05032917760521
C           47.35858539483641       40.68847540744250       56.80977730699140
C           49.64240722506447       40.21419399684646       55.84538110713491
C           50.47624569636235       40.39149828139069       57.12311463946659
C           51.71266740991901       41.22823978219228       56.79877228529089
C           50.88157960025006       39.03803462643775       57.71879765819367
C           51.42001848675417       39.13503666705370       59.14474017715596
C           51.76787838920171       37.76311603874704       59.70937151074557
H           43.96382689108201       47.26303679712171       66.67000929576389
H           45.07206552561401       46.80539271881648       67.96607773192297
H           43.42862117291180       47.30777892544898       68.35148633077688
H           52.52471046473936       37.27940066492430       59.09496133426597
H           52.15457376240877       37.85205903752343       60.72226305085363
H           50.88875274336025       37.12198832679598       59.73346639218098
H           50.01478545870970       38.37384595122060       57.73272630265114
H           51.63810036213582       38.57635020542141       57.07839951686551
H           50.19111814450510       39.54161888781785       55.18372942291952
H           49.56676074219052       41.18055737134034       55.34037487225571
H           48.25631400003683       38.75880166572383       56.63830215679482
H           46.34131752910492       40.31689279528882       56.90474169460126
H           47.74487454235296       40.86505511379874       57.80984763960964
H           47.32567119292314       41.63705023452874       56.27868464165440
H           47.46181985330900       40.31553418204210       54.15483881208034
H           46.51783904626082       39.03941352389573       54.92182340147561
H           46.39175829331449       37.48416903372431       53.03867227084246
H           47.80103531444144       37.21206591920043       52.01995952836752
H           49.88238714745751       40.93064573007511       57.86750829464417
H           51.42785080305449       42.18222667176492       56.36066758613812
H           52.29585510425248       41.43214718283793       57.69292628272247