3536
 energy: -3716.277495409177 gnorm: 0.000661243773 xtb: 6.6.1 (8d0f1dd)
C           62.73075080695959       64.04083015151402       66.80644376591931
C           63.23766830320150       64.42160377204219       65.41781558250202
C           63.92794491026239       65.78381201277482       65.48373447082756
C           62.10349163333136       64.47234140967159       64.38671052359233
C           61.29785973861890       63.18081492767254       64.20955422126664
C           62.20255153286464       61.99894654189057       63.86093062871981
C           60.24268758055746       63.33075115015946       63.10203361266839
C           59.21216858521970       64.45943715063598       63.25989574983203
C           58.44568639854695       64.34379299461267       64.57351706925959
C           58.26034183365942       64.40479523196252       62.05415641395255
C           57.11338056036232       65.42588795657215       62.02670141371694
C           56.17799434005296       65.07942942769932       60.86784983224808
C           57.64651888230572       66.85603368573928       61.89567602154627
C           56.60591385485649       67.96622660962970       62.09643302032554
C           57.23545162675804       69.31163572481969       61.73189129332903
C           56.05934549520371       68.00171145016765       63.53771716608246
C           54.60252997297265       67.54006871922942       63.67284284850120
C           53.66087327374943       68.58951206745223       63.08220312480124
C           54.22047161750235       67.30153190976394       65.14172257947619
C           54.82991487196495       66.05728892618659       65.80438170230984
C           54.25859691500552       64.77703613043505       65.20304236977178
C           54.56380839761523       66.10599180242569       67.31609972099980
C           55.37446161933471       65.12865878037537       68.18482549138430
C           54.79142927641915       65.14098576767113       69.59674355940638
C           56.85672079641839       65.52362114211067       68.18932873589108
C           57.78729038319337       64.78361586428865       69.16413657480567
C           59.15836299441416       65.45821627416423       69.09808813771595
C           57.86398895752215       63.28337356108945       68.84885390178081
C           58.79458777333296       62.47990799686643       69.77801339047480
C           60.15777024516792       62.25217596367886       69.11920431697261
C           58.23104443861012       61.09950497017020       70.15232838804071
C           56.95463288239667       61.05507276492222       70.99964020063686
C           57.09729261082460       61.87926279828417       72.27923525347279
C           56.62533944482217       59.60223915103165       71.38553797070681
C           56.33372195061214       58.63782851046190       70.22888715960417
C           55.13740858558302       59.12742997188076       69.41288126757918
C           56.03703233541690       57.21974139111620       70.74601751901334
C           57.17039655774531       56.50771943799219       71.49353705626643
C           58.40691721994390       56.33370338641766       70.61088002481243
C           56.73213744485876       55.11762111881323       71.98481185746198
C           55.56104660552622       55.06140843631510       72.97675693763617
C           55.74066672023906       56.05387636508715       74.12611354447404
C           55.42915276500453       53.64654630108506       73.56732229826011
C           54.89071173843625       52.56239013323768       72.62169601173962
C           53.39102511927489       52.74799162347986       72.40251469921488
C           55.16862217102970       51.17445588124352       73.21832365431928
C           55.00232854607254       50.00597029487324       72.23634856204841
C           54.90007273990550       48.69517554719822       73.01787281407566
C           56.16237072523349       49.94178158087621       71.22412951567074
C           55.76194180847627       50.19947072527293       69.76638436470435
C           54.95319131225063       49.02795791687940       69.21343569657822
C           57.01764018094434       50.42333467385635       68.91114474491815
C           57.60894789029408       51.83333558161628       69.05300003894756
C           56.93050146483839       52.78329924893695       68.06868297650234
C           59.12556837106386       51.84216902086825       68.82298503570961
C           59.95525935065255       51.28139773454597       69.98592196326550
C           59.95853619452086       52.25044258026332       71.16645810449896
C           61.38833663600271       51.00141895942649       69.51444241511543
C           62.24566202348626       50.21159149278379       70.52130786793370
C           63.38459959048104       51.07687337289439       71.06322870224787
C           62.83788464209572       48.94107403710503       69.89574475797468
C           61.82000812161607       47.85434801653436       69.53057455094307
C           61.18779832781268       47.24585036634114       70.78309166442104
C           62.48461018806925       46.72959362877381       68.72215292707016
C           62.99699372229887       47.09561153305468       67.32451480069439
C           61.87252160751193       47.61803838216243       66.43122113006069
C           63.62764979142349       45.87065977148335       66.64578421519803
C           64.90198022723747       45.30607346960741       67.28352625276239
C           65.98640737144865       46.37683026370051       67.42013773729974
C           65.47064309560338       44.14727705240042       66.44692333799848
C           64.55308738524741       42.93909519998818       66.21647265773979
C           64.06504766760199       42.35170810797997       67.54064498412997
C           65.29501909803521       41.84941489161858       65.42347228399264
C           65.50003538005630       42.14575560160151       63.93161971465716
C           64.18284614372712       42.03428724289383       63.16738451924244
C           66.53747470286991       41.18762429898397       63.32227844229682
C           67.26955156486534       41.77360266194088       62.10512214429946
C           67.85080148764513       40.65480183611735       61.24300251675278
C           68.37623847118870       42.72924587572335       62.57048779703018
C           68.92114718052677       43.67365611340844       61.48040557251664
C           70.43536060696130       43.52376735041240       61.33590613756326
C           68.56832175975534       45.13463446133178       61.78826598189608
C           67.07997717045258       45.45400779941014       61.57237744863284
C           66.84256812092468       45.87003113455533       60.12420908793332
C           66.61971786686854       46.53955228403127       62.55181242085101
C           65.15763599040419       46.99021820324589       62.41853978263498
C           64.89867744958562       48.10573763684557       63.43041356476574
C           64.17879398431461       45.82438476146445       62.60191623005790
C           62.73770106431058       46.18470302212187       62.25132024426576
C           61.79999367750874       44.98901477851661       62.35794877955899
H           63.54084667936601       64.09011373556865       67.53154126709245
H           61.95024465842053       64.73037035754891       67.12374331517323
H           62.32928369094729       63.03141923201524       66.81965407037092
H           62.12128361598680       44.18717950984735       61.69667752094039
H           61.77989320681095       44.60628546447025       63.37680162286968
H           60.78690043675925       45.27456549113250       62.08177315193214
H           64.47762147400356       45.00065933785957       61.95293418852766
H           64.22988103578335       45.46341959383609       63.63148120853886
H           66.77728462724720       46.17384851060928       63.57160506638728
H           67.26100705308480       47.41529804423505       62.41891403126974
H           66.51009379869018       44.54378271861214       61.77285364667542
H           67.26357864256209       45.13358110555573       59.44371653291339
H           65.78173198489672       45.95921168382278       59.91000721418109
H           67.31584182244360       46.82946835400616       59.92711484225936
H           68.85320969782056       45.34811654621720       62.82157172527855
H           69.16589375206595       45.79057088011501       61.15026080550892
H           67.99475912844726       43.32823160309805       63.39869448791715
H           69.19348519641017       42.12473810599086       62.97071669071179
H           65.00956352239690       47.40778041145298       61.41742949434681
H           65.59368631941268       48.92687819904328       63.27301873167914
H           63.89117364957891       48.49876625288720       63.33176716948673
H           65.02888174306079       47.74114455933905       64.44773889371695
H           68.46683150567621       43.40734320595482       60.52017086004102
H           70.70077933555311       42.49215459835186       61.11460706624087
H           70.80853975708352       44.15139739970706       60.52894856462789
H           70.93488741718507       43.81784618585674       62.25714796175379
H           66.54901261284397       42.32999626502676       61.49611926493779
H           68.41073710885382       41.06303770928109       60.40470873692848
H           68.52237168205070       40.03289940416825       61.83197836694537
H           67.05861059457041       40.02248044936933       60.84660425266595
H           67.28618243656307       40.92167200857970       64.07246892848805
H           66.03171845429617       40.26328705328135       63.03320572005130
H           65.87296455423134       43.16860325799336       63.82905065550069
H           64.34360067499296       42.18688256079722       62.10257148318917
H           63.74719203265771       41.04618395270588       63.30551097987946
H           63.46665381524313       42.77545355324786       63.50814645940365
H           66.26923488463562       41.69326312231698       65.89486777789614
H           64.74201873923633       40.91037367340201       65.51055666172537
H           63.68107181229602       43.25540291878936       65.63807256996090
H           63.45562580508616       41.46753858907677       67.36223378486685
H           64.91021970042718       42.06275869686161       68.16249179874053
H           63.46268301391795       43.06945005664704       68.09177229704905
H           65.76895981952923       44.54961623198296       65.47587395869606
H           66.37874265059004       43.79046595408745       66.94210428819483
H           64.67364033534982       44.93064460015187       68.28527551608917
H           66.91425748346002       45.93304704639319       67.77607067032227
H           66.18383873143478       46.84715490042931       66.45846460263334
H           65.69378913262435       47.14711457247868       68.12876312995758
H           62.87130821634138       45.08486809728169       66.61291450000228
H           63.86226273422727       46.14247781962423       65.61496986968383
H           63.75389911531755       47.88025419737713       67.40645850873436
H           61.47078931009766       48.55382611025180       66.81077473535112
H           62.24487920107561       47.79675376292032       65.42502651674529
H           61.06338286472060       46.89391054671432       66.37245328360383
H           63.31791567321114       46.34323762774023       69.31383330324974
H           61.76267209487385       45.91511031964503       68.60998350682692
H           61.01655633791910       48.29668929985180       68.93592860610576
H           60.65017844331163       47.99538398673003       71.35769298932927
H           60.48091737865210       46.46408108523030       70.51122394009568
H           61.95145893672486       46.80652053628133       71.42261804079637
H           63.38732577644806       49.23728520072925       68.99995680922021
H           63.56142691280038       48.51008655047882       70.59390171704683
H           61.62067583416884       49.91891289917476       71.36992406254083
H           63.00021559114681       51.99915805748036       71.49248909417496
H           63.94002870586489       50.54736689320933       71.83539699589089
H           64.07856771112905       51.33172484614544       70.26385537867246
H           61.33937817101856       50.44901229182955       68.57489764714329
H           61.87141184920787       51.95498269031400       69.29395438404156
H           59.51053711091701       50.33469951872426       70.31311414426376
H           60.41139502781384       53.19655935629408       70.87515480350164
H           58.94761323359481       52.45125272833985       71.51266808977685
H           60.52177897348201       51.84388190331278       72.00311001061374
H           59.33727154515668       51.26591407235905       67.91910494022495
H           59.44952010468996       52.86903511460962       68.63642945713907
H           57.40867755895298       52.20106979317004       70.06324379105472
H           55.85030620203754       52.70780280587908       68.15176288788136
H           57.21768634341986       53.81347923824092       68.26518430494410
H           57.21499443979351       52.53974062793686       67.04742591222711
H           57.75882058952575       49.67205193664261       69.19089514794294
H           56.77290544007860       50.25538467787957       67.86004922301265
H           55.13784750458556       51.09891329807757       69.72409661421398
H           55.57120280135657       48.13366702851890       69.16160896730852
H           54.09506450316660       48.81139748416523       69.84520758856985
H           54.58959450314505       49.25068519938804       68.21243567803765
H           56.92510502034473       50.66660537622466       71.51183898643785
H           56.63205831902553       48.95627143576574       71.27354329314456
H           54.06235670061609       50.14310877863180       71.69453382914338
H           55.80322710825135       48.53016513949493       73.60279640920751
H           54.05282487579679       48.71574567657188       73.70117156845605
H           54.76972040106009       47.85375739209767       72.34081656154990
H           56.18768528474577       51.14423325660918       73.61405801128782
H           54.49394779522700       51.02673753609859       74.06636480296662
H           55.40370628475865       52.63978382568725       71.65937699825508
H           53.01356881143379       52.05526810801135       71.65493009395989
H           52.85027003523469       52.57554700037075       73.33147814048806
H           53.16924634106397       53.75800537561530       72.06932061466486
H           56.41430293552339       53.34443261413694       73.93405220508821
H           54.76635736669310       53.68928950409836       74.43606453580121
H           54.63578161945708       55.31353909759884       72.45096103884102
H           56.68558557148830       55.87790822354252       74.63670200291524
H           55.72477946524304       57.08001768834234       73.76973427613157
H           54.93668536787584       55.94085063954677       74.85105727496654
H           56.47823076179263       54.51363273558832       71.11070380453305
H           57.59948401561574       54.65270550593465       72.46307211071280
H           57.46158179326748       57.10274721150626       72.36325711385693
H           58.81270459671307       57.29451765644066       70.30542352585204
H           59.18497856918056       55.79936051664795       71.15274406088814
H           58.16139185526151       55.75996535236865       69.71957559335453
H           55.16949421279891       57.27981180283523       71.40483000885142
H           55.75832956095946       56.59753055197709       69.89124223426330
H           57.20402037045721       58.58963910356427       69.56881389578128
H           54.84355484338129       58.38444524367717       68.67451085284073
H           54.28818700888045       59.31331253908163       70.06638559244432
H           55.37173109650858       60.04922812664846       68.88645554408539
H           57.46675798670436       59.21888892611247       71.96704609055239
H           55.75145586987370       59.61181158732924       72.04387676286683
H           56.11787510004312       61.46850683801473       70.42888640424019
H           57.97804882501435       61.56948041077261       72.83884211438418
H           57.18681768724342       62.93939449741281       72.05569390868048
H           56.22508520218543       61.74282270753220       72.91593329217943
H           58.05498907008465       60.54914939315130       69.22689509575635
H           59.01087059845440       60.56491805343940       70.70321568680039
H           58.95242087552779       63.04872472014065       70.69920059091082
H           60.61281899209828       63.18793171558632       68.81289745557508
H           60.83878872430458       61.75549303821511       69.80838840171353
H           60.04665196101443       61.62201675050164       68.23887610597889
H           56.85474981672771       62.87706599949070       68.91685295704184
H           58.19405030687381       63.16072555627167       67.81564497606881
H           57.40854767201940       64.90676433991440       70.18445412061460
H           59.83975259506246       65.04781578092833       69.83791608328926
H           59.59558826385016       65.33258103046401       68.10937566568661
H           59.06266324981907       66.52551136076872       69.29119072556948
H           57.26013170247336       65.38852145787132       67.18426661817952
H           56.91412747001852       66.59093888683540       68.42364905010061
H           55.27032903670732       64.11878914058239       67.77781760496882
H           55.24100757557542       64.36856948403670       70.21585821552334
H           54.96456593003852       66.10707147751239       70.06815322634023
H           53.71866638066098       64.96606944392067       69.56405548335430
H           54.76360194580050       67.11823221052197       67.67933881743636
H           53.49905058634627       65.91469650430464       67.47681281941776
H           55.91047665484899       66.07138778667164       65.64182204711814
H           54.70665930678173       63.90432519965073       65.66940909656633
H           53.18148277711742       64.73356618218969       65.35495905674638
H           54.45338399248584       64.72069421567738       64.13565627305744
H           54.51501264750557       68.18699990579718       65.71263882265262
H           53.13164233413380       67.22339214170844       65.21006450573771
H           54.47052012337274       66.61046285545072       63.11265423863447
H           52.63182190644361       68.23666035463954       63.10041137400913
H           53.71285624945280       69.51243500981785       63.65759874274026
H           53.92355636107016       68.81892923621425       62.05230437214347
H           56.69670295184532       67.38543424403905       64.17274019520350
H           56.12407507868811       69.02108725340157       63.92701502141220
H           55.77706626595693       67.79366961502248       61.40397640695338
H           58.08158192686028       69.52630310460496       62.38292154228412
H           57.59028785546308       69.30503615427621       60.70225279329403
H           56.51305494764701       70.11909314874596       61.83633788191256
H           58.44392202899888       67.01246102286865       62.62532152173176
H           58.08952155137533       66.96371625462818       60.90178592432954
H           56.54512198484912       65.34062809200847       62.95579937644494
H           56.69766575924650       65.17475718572514       59.91735142783673
H           55.82156130681886       64.05584127229272       60.96002040343399
H           55.31219211436360       65.73700923554287       60.85296079468478
H           58.85050908171630       64.52793138569696       61.14186792559614
H           57.81778996543129       63.40556939446173       62.02382987235636
H           59.74262389840663       65.41676272510426       63.24658891098780
H           59.12575039857947       64.29395794479323       65.42042332601443
H           57.80438098987965       65.20890840315822       64.71877810611379
H           57.82264241036079       63.45210097749505       64.57168176328966
H           60.76547431721109       63.48151236689981       62.15320683788713
H           59.70027843849228       62.38396114764064       63.02905276173953
H           60.78828136762834       62.94638478574723       65.14861462800519
H           62.87514264866905       61.76081883889123       64.68085932836837
H           61.60114743109721       61.11654391681930       63.65367986139914
H           62.79915735092369       62.22365737815372       62.97891805272990
H           61.42395961113650       65.27470203625739       64.68297083092413
H           62.53062313508848       64.74257174859949       63.41715844219833
H           63.98082790895256       63.68336339585706       65.09997067296764
H           64.30542479273025       66.07547342332307       64.50671546472311
H           63.22975382918241       66.54869842010061       65.81892901447988
H           64.76448331729458       65.75624352850843       66.17932225988076
H           62.37130950318275       46.97314817065388       62.91071509734826
H           62.71634645445874       46.56324844818769       61.22813470766390
C           62.28727258289714       71.05561008346419       50.80044932856206
C           61.00770424365556       70.22348281929297       50.76901196725530
C           60.13060698183380       70.66580733501360       49.59817079615773
C           60.21275758100127       70.34395339841599       52.07385325262043
C           60.92242623322409       69.85455243114576       53.34215319602470
C           61.42686187047519       68.42000426614048       53.18313669681065
C           59.97080656818586       69.91548523617006       54.54730346939535
C           59.47258108720973       71.30786454100588       54.94928449976196
C           60.64043759844375       72.23506780852561       55.29145519327091
C           58.53765529061198       71.23965990905269       56.16756441579125
C           57.22457382162151       70.45612016151851       56.01532757438749
C           56.34587174845056       71.06183438339431       54.92521323618349
C           56.52283614692161       70.46370615510963       57.38308332280727
C           55.14149539107408       69.79940529669254       57.47299222933363
C           54.52408403010637       70.14880909139336       58.82845374597490
C           55.21785174980334       68.27825962375206       57.29816335316031
C           53.86762730089665       67.62249857260579       56.96717575199352
C           53.88574652694377       66.15115772220959       57.37164358802640
C           53.55742019007182       67.76702956560452       55.47295931594945
C           52.10167062345639       67.49783536637544       55.06173384866958
C           52.05271732010869       67.31606464619803       53.54573884087721
C           51.19847811314947       68.65520786442057       55.50369288574986
C           49.68561181858502       68.43475247701792       55.35094984691767
C           48.98842192063046       69.79452817471373       55.40006980480164
C           49.14686742638219       67.50085703616622       56.44235829466094
C           47.70755854480916       67.00681450637781       56.22651638117458
C           47.13437965483656       66.48272869113779       57.54213051777647
C           47.64911129587550       65.90924061126059       55.15769571584593
C           46.23352878122873       65.59593290024884       54.63934240868758
C           46.01261002346142       64.08353182925971       54.59291249977162
C           45.98374318687323       66.18444417318240       53.24463125831303
C           46.04521646707559       67.71251168176170       53.15087180123402
C           44.93012487627233       68.36114975597974       53.97062074587038
C           45.90672895872859       68.18583877565015       51.69698861394049
C           47.01143163747618       67.75501031240529       50.72561656435270
C           48.38931254640008       68.17840969629545       51.23341596778537
C           46.78579057463270       68.36978206063590       49.33604791155566
C           45.43603605978904       68.06596154475282       48.67675134696099
C           45.19380328897192       66.56061091142584       48.56226456587262
C           45.35804480660619       68.67845638122141       47.27094892986437
C           45.52814694225400       70.19872030027558       47.16999957146250
C           44.60472869299177       70.94273761747874       48.13408218742096
C           45.22582376744522       70.68901723512703       45.74536298818980
C           46.03600844336132       70.05070770355655       44.61030261900808
C           47.53743037366734       70.18089275229511       44.85538192068823
C           45.66153229720815       70.71962400325467       43.27864587535054
C           45.96779252730716       69.84869397728725       42.05082613827226
C           46.13786469842245       70.73798270757347       40.81884648620884
C           44.86722848598917       68.79473864178387       41.82483513457100
C           45.37574100202963       67.37697415763000       41.53717238537722
C           46.33213766937103       67.33738152774031       40.34604887906594
C           44.20990334053491       66.42335764701862       41.23519379313984
C           43.14269750189484       66.25842539209060       42.32288597589822
C           43.76323131827962       65.79557199210319       43.63983224882094
C           42.08662905853463       65.22771354950821       41.89240871316855
C           41.34693886717506       65.51601804060820       40.58186757942687
C           40.61973572965945       66.85944530897342       40.63811679108246
C           40.32021132870739       64.41783719482656       40.26403884661185
C           40.84877139499089       62.97864314895253       40.17726200390521
C           42.02467708778651       62.87008754064735       39.20964017438067
C           39.70186647670746       62.05624062075844       39.73548291286426
C           39.93127151424896       60.56029963900867       40.00179808360949
C           39.06334474352292       59.73454815742000       39.05234232486159
C           39.61295021444554       60.20512628772715       41.45972697092278
C           40.12969093130260       58.82101059718725       41.89982002813211
C           38.99905552406231       57.99356752864026       42.51350742553728
C           41.28324334525528       58.92799148438520       42.90637714536315
C           42.56559507694886       59.55972505367454       42.35677162997659
C           43.23156861877336       58.64535633326506       41.32667261397091
C           43.58343781538704       59.84487697695034       43.47052270803658
C           43.17128214135954       60.82281699218284       44.58309984596323
C           42.68155328197486       62.14501838295175       44.00420229630276
C           44.39516252748081       61.01802431057532       45.49161639819736
C           44.28095922966504       62.02872261429093       46.64069895448453
C           45.65968924664672       62.18235067218278       47.28129977338995
C           43.23582148416531       61.61096967282556       47.68047862730133
C           42.98956771751794       62.66975892835749       48.77333964614616
C           43.54672424959750       62.21748118845866       50.12303945108327
C           41.49995343309475       62.99149150175593       48.94685895924868
C           40.82267128276819       63.69356473137033       47.76319082400541
C           41.44071520972005       65.06260851484053       47.50106298064485
C           39.32248565136309       63.81226416656003       48.06522504871519
C           38.44209807550233       64.45500035346987       46.98368461200082
C           36.99621287310435       64.45806558043230       47.48122040479547
C           38.58094228454307       63.70902203667903       45.65213224682346
C           37.68908850889665       64.18855985340542       44.49889589961342
C           37.89488365062611       63.25157143574339       43.30874346417778
C           37.98990207811323       65.64435241231894       44.12627715849341
C           37.06191760362068       66.21090057396242       43.05180798250304
C           37.18040031968202       67.72729551229368       42.94492116425752
H           62.79846018432037       71.00129041796272       49.84100052700153
H           62.05667452273573       72.09977164841122       51.00443486631018
H           62.97005127388327       70.69842571036033       51.56708965200511
H           38.20342593302807       68.01792939801358       42.71511979132645
H           36.53415972324079       68.10876427466899       42.15751473212331
H           36.89513314012638       68.20270738585205       43.88143627318203
H           37.88429103145219       66.26219269678980       45.02041085184861
H           39.02729288869673       65.72474970582198       43.79004954411315
H           39.61718601996151       63.77756922506246       45.31512601114342
H           38.36254518627619       62.65262818551590       45.83148541611759
H           38.75536239465793       65.49471236196902       46.85259686228326
H           36.60853807033081       63.44218748654603       47.53136874346801
H           36.94199059213910       64.89365472823336       48.47709251874953
H           36.35248870048124       65.04076803095076       46.82725092472377
H           38.92930135522553       62.81258585492873       48.26692424989007
H           39.20480260613024       64.39581786270891       48.98292049175710
H           40.97085303898535       62.05580739101659       49.15049294372627
H           41.38804226696561       63.62822834667991       49.82938863255777
H           36.63922322561037       64.12017185999674       44.80277127240565
H           37.68737041532329       62.22311099140338       43.59729142625965
H           37.23308075256708       63.50778034340677       42.48542267974538