3864
 energy: -5104.121990873748 gnorm: 0.000997149999 xtb: 6.6.1 (8d0f1dd)
C           55.76986934766902       49.17284292665903       29.13406042676106
C           54.51602956128512       49.76122965477885       29.23310864294488
C           53.39626863385761       48.97389804148645       28.99089950158589
C           53.52661631246377       47.63564396969064       28.66740495330241
C           54.78249789045559       47.05959018371328       28.57834982382196
C           55.90548949500130       47.83431678083079       28.80943937490840
C           54.38366319128102       51.21087135538764       29.63489486509074
C           53.60807298123348       52.01178180433092       28.58818126564652
C           53.72032113811515       51.26071584250383       31.01855895777273
C           53.61243991676308       52.64937212989624       31.66856499804880
C           52.85136231132168       52.46773797446930       32.95889687088520
C           51.52423313655860       52.86429670047193       33.05139307413730
C           50.79522131548192       52.63717686839601       34.20478167886986
C           51.38528003340480       52.01527945478082       35.29098168493977
C           52.71094526694094       51.62682879670412       35.21509325976792
C           53.43323457888822       51.84521887605561       34.05658354086643
C           54.99342713907765       53.28480800623705       31.87326986652812
C           54.94635620387677       54.52868405081704       32.77090168110243
C           53.86810675093918       55.48613224233721       32.32584354009187
C           52.84259868329742       55.82757002156828       33.19699873879276
C           51.84257882515450       56.70277716095422       32.81467713123276
C           51.85288527187976       57.25223586367405       31.54508846270522
C           52.86901327051123       56.91980200958279       30.66522238837369
C           53.86792648363239       56.04501612814337       31.05326410205138
C           56.29286558579367       55.27030253791707       32.80677749489191
C           57.51111109220656       54.42081826937258       33.20744622020612
C           58.75149726938803       55.27106549185654       33.06474145887575
C           58.94995504219707       56.39835099064796       33.85414810904505
C           60.05680454851782       57.20683875932763       33.67754659904841
C           60.99528872880899       56.89403157942630       32.70912689894575
C           60.81921646881148       55.76833969340836       31.92468143769632
C           59.70349002091309       54.96841370422239       32.10019714414921
C           57.38985624973204       53.84049519586670       34.62026607095903
C           58.38645458918028       52.69595444677156       34.87214610703293
C           57.95371883621677       51.49538217122359       34.06511165270869
C           56.85277273210692       50.73412006009746       34.44590138147657
C           56.39954439009616       49.68896577958794       33.65931310215726
C           57.04457129956594       49.38428000509074       32.47198752120796
C           58.15572379282730       50.11751574497231       32.09344982446302
C           58.60594760877295       51.16116833871865       32.88472529846608
C           58.45430891061636       52.36831465432258       36.37025228328748
C           59.29063198615755       53.37008415237487       37.18831767152816
C           58.74981829574892       53.44312149884901       38.59433884749719
C           58.80032381130965       52.33268210729310       39.42969079093149
C           58.36604798948949       52.41250410039669       40.74011633973060
C           57.84217883085574       53.59808584225651       41.22528033050260
C           57.73740821303379       54.69538163629745       40.38910124563975
C           58.19492614434615       54.61754222520652       39.08494575320887
C           60.77864029918990       52.98823616228270       37.19905702500736
C           61.60795746206092       53.90012821140527       38.11519699052253
C           61.68580149769066       55.31451828526545       37.60144187702691
C           62.26485682490140       55.60888210720884       36.37349502673200
C           62.41113594872880       56.91801676192430       35.95664439407454
C           61.96946009596670       57.95804788296234       36.75563594343488
C           61.37263701469528       57.67854634619091       37.97178680560950
C           61.23378337950680       56.36616980876128       38.38759820563345
C           63.01803969033278       53.32797878318422       38.32736279664677
C           63.85608734876233       54.20341204075367       39.27319014468567
C           64.56683790267651       55.31502309529353       38.54321814574895
C           64.39291875453749       56.63541961555001       38.93519049653842
C           65.03680002228937       57.66541132630299       38.27429364649858
C           65.88467991691239       57.38601560127245       37.21756520044002
C           66.09329183483659       56.07083795282477       36.83882818312173
C           65.44255910354376       55.04468654752328       37.49849245941390
C           64.88468967215627       53.37045208753128       40.05808743508840
C           64.25123765637123       52.62575357891239       41.23855944082874
C           63.57228045539363       53.56561284288027       42.20871709332062
C           64.21784098597499       54.68083026227698       42.73120963790904
C           63.58969065893984       55.49453806921839       43.65922405427487
C           62.30897172864162       55.20090033000860       44.09845264329543
C           61.64999556079869       54.10042491741113       43.57813057729609
C           62.27567634199115       53.30203741574633       42.63649321996269
C           65.28941959426824       51.76029721039072       41.98581900791399
C           65.29441600642572       50.29644020767471       41.51140379795643
C           65.79680322969381       50.18362892142640       40.09614960090251
C           64.93118865128336       49.82656133024717       39.06930414604535
C           65.37558743650438       49.73891365075954       37.76160326581572
C           66.69939786816518       50.00496708318781       37.45957204276608
C           67.57267413245756       50.35979021366948       38.47399442671142
C           67.12426044704297       50.44906491326100       39.77896983343496
C           66.11011667730000       49.42365985477259       42.47759594643637
C           66.16424449848111       47.93134708690506       42.09756455265313
C           66.84340345125010       47.16965084512751       43.20866228944141
C           66.21330243863137       46.95653523981574       44.42955841181722
C           66.83747598841228       46.24428872256504       45.43664682084635
C           68.11356059588697       45.74468132573563       45.24443413065944
C           68.75719340491374       45.95970066353070       44.03849903989227
C           68.12403972776299       46.66390184293941       43.02994107387279
C           64.76163474567059       47.37785581367404       41.79926845964573
C           64.67062844072639       45.84541811598361       41.77870236629790
C           65.83397764550210       45.21915820395324       41.05140874572501
C           66.55353586863224       44.18741254618339       41.63859434424922
C           67.61243229658649       43.59255193880336       40.97645378006333
C           67.97009225581243       44.02646527379854       39.71222842193055
C           67.25801715013753       45.05280409972308       39.11505253348261
C           66.19536637476538       45.64003563801054       39.77698723831090
C           63.37298807786591       45.34698146531068       41.11496879295628
C           62.06505915989450       45.86288322083880       41.73882602643241
C           61.76969247520444       47.28475941062835       41.33645558211552
C           61.62602954051012       47.64067821941649       40.00000265760205
C           61.37396428291244       48.95262365667522       39.63931213800212
C           61.26390888269039       49.93403828562790       40.61055945172365
C           61.37751044223237       49.58636605148055       41.94536573274316
C           61.61818088308585       48.27225594476238       42.30207068509135
C           60.90591120959714       44.94643919239996       41.31139723660257
C           59.53675729217289       45.45959462157210       41.76984865207687
C           59.41600331463583       45.54345805554388       43.27295489144937
C           59.00742873134136       46.72320404823961       43.88283108477020
C           58.82104538922969       46.79713742554920       45.25237115420378
C           59.03037981273241       45.67878568351549       46.04010150046008
C           59.42618245135451       44.49286277316097       45.44461823735720
C           59.62051531393375       44.42758419815566       44.07633726030210
C           58.39420756717371       44.56523601662169       41.26798279950749
C           58.07768428567395       44.65409245638229       39.76646465888283
C           58.99790632601185       43.79969947390757       38.93510773920720
C           59.06465967440379       42.42426885536298       39.12247379928418
C           59.92236617326372       41.64570244744404       38.36768834693584
C           60.72357850383074       42.23087139134095       37.40260310515317
C           60.65105440164476       43.59662743200085       37.19117026764139
C           59.79369234561268       44.37265722100027       37.95072999580620
C           56.60837456777366       44.23916481103583       39.58307477480480
C           56.18439642793817       43.91822099073424       38.14519780074545
C           56.63563183669370       44.94651325254617       37.14314444439759
C           57.22898180808573       44.54229700281994       35.95413013773958
C           57.63778113211080       45.47076954638786       35.01391244693736
C           57.46289708820319       46.82295844901993       35.25064387577542
C           56.86819117531424       47.23693500899441       36.42972594143662
C           56.45589347158352       46.30655686528274       37.36647926125377
C           54.65385138556454       43.77372915158748       38.12516673064923
C           54.13032021724935       42.87556989541794       36.99804840076024
C           54.73496004955463       41.49589968824332       37.08222142883875
C           54.59387641241218       40.71684578690933       38.22538287001731
C           55.13520875981477       39.44604066197161       38.29086093147586
C           55.83155574720917       38.93147372044274       37.21098657835059
C           55.98456340097813       39.69843631750302       36.06924075963586
C           55.44027719943959       40.96931809156168       36.00752905400432
C           52.60104091318058       42.80773196117588       37.10463932558901
C           51.94861799322484       41.85944615970548       36.09301178990578
C           52.07568895663475       42.35398129360080       34.67430648056990
C           52.76516978809357       41.59807960096393       33.73413399216987
C           52.87047554425511       42.02431846301124       32.42207759444060
C           52.28309508758218       43.21412336781777       32.02661181903223
C           51.59162821264957       43.97453009966514       32.95255203782168
C           51.49164705857584       43.54557409329762       34.26297289941886
C           50.47757810054122       41.65086400886726       36.47564668023846
C           49.74425356947982       40.69112273392805       35.53175622427441
H           55.39220140784707       51.62840613003312       29.71412964273157
H           52.70904465965676       50.85475894396195       30.93624111093967
H           54.28542175958935       50.60833754032834       31.68983416806591
H           53.01981437340834       53.30238279998725       31.02051957932269
H           55.66185479598408       52.54506056432945       32.31632690304898
H           55.40184693736408       53.56317273551409       30.90040369606860
H           54.69123967479584       54.20701574580531       33.78514582359117
H           56.49416640104644       55.68845604987774       31.81726719388606
H           56.19782702774512       56.11029979091182       33.49754897995592
H           57.58971886760973       53.58827620880123       32.50227132236960
H           56.38289832019992       53.44773741221391       34.76835553189361
H           59.37781332405758       53.01430977763335       34.53234545845752
H           57.43789442248531       52.35815973029674       36.77135323317142
H           58.86713794678651       51.36482443942784       36.49841385213251
H           59.20726975179683       54.36474010343013       36.73832708857050
H           60.88576369587290       51.95818397537798       37.54744027027692
H           61.16669771969840       53.03270578855737       36.18029230180057
H           61.11766454554788       53.92336627489066       39.09608017285992
H           62.92327201502121       52.32636878765504       38.75214054229605
H           63.52463435151434       53.22675224049865       37.36727597271451
H           63.17951950213337       54.66201553766818       40.00327091037465
H           63.48098946816049       51.95416862831995       40.84634079024788
H           66.28400313773328       52.19437406736147       41.87341586913050
H           65.05027500871857       51.76868324904079       43.05047642720916
H           64.25689461542707       49.94793816832811       41.53901723056801
H           67.13380378975813       49.79927814553404       42.54139726672995
H           65.67310074329266       49.51502921958625       43.47232699796162
H           66.77312666103458       47.83083493299360       41.19311777959376
H           64.06716773882496       47.75145084348649       42.55104570979982
H           64.44073173118434       47.76292899948902       40.83179537773815
H           64.68794476144483       45.48613123499435       42.81371243238117
H           63.39466330675520       45.61032814701608       40.05627540434016
H           63.37099240815925       44.25453690955944       41.17108626269783
H           62.15279063674303       45.82176342907979       42.83126682229256
H           60.89910169465322       44.86411146379568       40.22462576448766
H           61.07944895610521       43.94375702511195       41.70724322392577
H           59.38951008415273       46.46335075668011       41.35628233749399
H           58.62054548866216       43.52935341474218       41.51907157853675
H           57.49067705676594       44.84827320818605       41.81528187351196
H           58.18667702040429       45.69392055798819       39.44006131758324
H           56.41034807335419       43.34994997377700       40.18697879556971
H           55.97855781294818       45.04095174434356       39.97235478748991
H           56.62582571027452       42.95564233688580       37.86661207950343
H           54.33235987396563       43.35374978552791       39.08082368969993
H           54.20215940851845       44.76524613768177       38.03822295354816
H           54.39958263643934       43.31499298690547       36.03099107740878
H           52.33944891574791       42.47141180724241       38.11101531395204
H           52.19350125159346       43.81281551123134       36.97987350549068
H           56.65118402597615       49.77185722993333       29.31539580016645
H           56.89013191417300       47.39434369966728       28.73878223553628
H           54.88458960659595       46.01345459315554       28.32878975019776
H           52.64426030723712       47.03832647521045       28.48750599062948
H           52.40847025062076       49.40671226532087       29.05427837932732
H           51.05267360561086       53.35839443020068       32.21316996797731
H           49.76492943248910       52.95516171965176       34.24952780811532
H           50.81591346533020       51.82976849220606       36.19047824208813
H           53.18214441664316       51.14520501463044       36.05975971326913
H           54.45977055714184       51.52032392418897       34.00077605230688
H           52.82317348107276       55.38848672658215       34.18381863834656
H           51.05081519727229       56.94757661758022       33.50666924776643
H           51.07199498659807       57.93354065149573       31.24037925544887
H           52.88286583419146       57.34271299252699       29.67075496031676
H           54.65146608943594       55.79382355901399       30.35271598165784
H           58.22681163995037       56.66288215307749       34.61194375791739
H           60.18241929266117       58.08564546510629       34.29248891855147
H           61.85666126882182       57.52875076751364       32.56200643449669
H           61.54741959495956       55.51614916971869       31.16707023179247
H           59.56459592471062       54.09998557048219       31.47061661206725
H           57.55503044306538       54.63131709870211       35.35345260579077
H           56.33879613444161       50.96099847188609       35.36889981486386
H           55.53992013478862       49.10922199747687       33.96651772271517
H           56.68096093445349       48.57704443205645       31.85370761187009
H           58.67635538693644       49.87734119302488       31.17730046868541
H           59.47704378558174       51.72620245990444       32.58254054958243
H           59.18813184048856       51.39802214254014       39.05164668886734
H           58.43985747443692       51.55015113267302       41.38688027378667
H           57.51768182871102       53.66251138017248       42.25212201955318
H           57.30861930249205       55.61753352953036       40.75429850455404
H           58.12891660058933       55.48337026317481       38.44068458225360
H           62.62579106302215       54.81172127136735       35.74035474057646
H           62.88487179250533       57.12724767312116       35.00970793796994
H           62.09537011226372       58.98185904214710       36.43355353661886
H           61.03945679169313       58.48480159194060       38.61064423318369
H           60.78464746659539       56.14957009553977       39.34839727599613
H           63.73502989507997       56.86207873589020       39.76135770797809
H           64.87095286308529       58.68679134830266       38.58558651973316
H           66.38645674238691       58.18746538277551       36.69530832253828
H           66.76727585891039       55.84372695567654       36.02508397501929
H           65.62261248811919       54.02192399226666       37.19844256891878
H           65.36089698128647       52.65108387270086       39.39095678361934
H           65.66524428357927       54.03806316209953       40.42871471105279
H           65.22111866879590       54.91955975289815       42.41160387803563
H           64.10578814076518       56.36054266420729       44.05016355236452
H           61.83331788231410       55.82516440815757       44.84155984607640
H           60.64895612443089       53.85598331596476       43.90528440958650
H           61.74249843855461       52.45858676360346       42.22422579447869
H           63.89404904868441       49.61843203613798       39.29533944772705
H           64.68596763657641       49.46255027400098       36.97667041754652
H           67.04970965137167       49.93737078257350       36.44003542177946
H           68.60766351076612       50.57013844834984       38.24601760059444
H           67.81619981982000       50.73330017539678       40.55813927976555
H           65.22010222337049       47.34455291887053       44.60202341753971
H           66.32476198807099       46.08111934014272       46.37353646615776
H           68.60661867643174       45.19334357482726       46.03181239152590
H           69.75369750879834       45.57368804973346       43.87945707561345
H           68.62711430809728       46.81596495416593       42.08528613237782
H           66.28813676664439       43.85577826856168       42.63277664022897
H           68.16192831236182       42.79184281464211       41.45001163991824
H           68.80032981103608       43.56880869570237       39.19449489756720
H           67.53243705886263       45.39898059391203       38.12882027381897
H           65.65005257463979       46.44046494413303       39.29778526212620
H           61.71220291982971       46.88794593310612       39.22985185603535
H           61.26717137223794       49.20887321018395       38.59387182837621
H           61.08697766792596       50.96249738649548       40.33081936523721
H           61.27880909079349       50.33760040450410       42.71457397564031
H           61.69456899266756       48.00822876251007       43.34799879631000
H           58.83148442419536       47.59694285019385       43.27221786901541
H           58.50434522719644       47.72669759013321       45.70260621284744
H           58.88389645464375       45.73145611061977       47.10892838780890
H           59.57858616114939       43.60920226902537       46.04709175480028
H           59.93148175963308       43.49260503063174       43.63268173409183
H           58.43418712670486       41.95514603082965       39.86310376258709
H           59.96807723201913       40.57816523348362       38.53051511683368
H           61.39711895370672       41.62384403887194       36.81615300430814
H           61.26396005969118       44.05980261591182       36.43145016548356
H           59.73630245448581       45.43843710912905       37.77543120310091
H           57.38199780438986       43.48757311781757       35.77256526365893
H           58.10060752578393       45.13878756656404       34.09573045155840
H           57.78810195514018       47.55098732338666       34.52247849825793
H           56.72827001015353       48.29081200174670       36.62350287034342
H           55.99927985682166       46.64797851031808       38.28390386190580
H           54.05885054240854       41.10339633808978       39.07962755519201
H           55.01036822582295       38.85585188315029       39.18757130084102
H           56.25323984681359       37.93813076864446       37.25802966154523
H           56.52892985862711       39.30572960942279       35.22245936990996
H           55.55927905839869       41.56203059048995       35.11101535959904
H           50.94346157409395       44.15369709939466       34.96480394473160
H           51.12698761466982       44.90342347918751       32.65625600952251
H           52.36322720686702       43.54766909263814       31.00252117997242
H           53.41020882374842       41.42226473859222       31.70492004206459
H           53.21698765192816       40.66304724250435       34.03513229954345
H           53.64751165490836       53.07502209091899       28.81219996097513
H           54.03911719279171       51.85381481966866       27.60155673155448
H           52.56466948376806       51.70779809400553       28.55926928119287
H           52.45718548220455       40.89227034974064       36.16322380922137
H           50.43149171144161       41.26839899582041       37.49788201771827
H           49.95961807093651       42.61237797887829       36.46871625736305
C           48.31757225124030       40.45116509688147       36.04782534093243
C           50.49518214782952       39.39459793618076       35.36361220225998
C           50.99926119489130       38.69729580726059       36.45614954130232
C           51.71877559012790       37.52888880636344       36.28448473644494
C           51.93139624170571       37.02666968960567       35.01244666094784
C           51.42240397570753       37.70176162112129       33.91655825478197
C           50.71539520005160       38.87795355548497       34.09342721685098
H           50.84705105800454       39.07033069435717       37.45862813113698
H           52.11022167568028       37.01135929095942       37.14729560771044
H           52.49378772125070       36.11433626254122       34.87697785177814
H           51.58295952263521       37.31679063927844       32.91976017429030
H           50.33804200933560       39.40987575207963       33.23131239833740
C           47.41270163017582       39.77226513521933       35.01408173970839
H           48.35125907860197       39.84053572046722       36.95241531052036
H           47.87292838446614       41.41260021527122       36.32211809689397
C           45.99040340984786       39.77919939820697       35.49797732082593
C           45.47661528362748       38.71538842319038       36.22866214802068
C           44.18340147952768       38.75780420646220       36.71945745504757
C           43.38429058020478       39.86209324352596       36.48138281299655
C           43.88424729104322       40.92335894587814       35.74691442301851
C           45.18000973828347       40.88427721392060       35.26475967166843
H           46.09320890898712       37.84728206782489       36.41399582444716
H           43.79414469861294       37.92773747269543       37.28943754407788
H           42.37423781802720       39.88681880940602       36.86413612251022
H           43.26056775520762       41.78140335788464       35.54226562070446
H           45.56681159566375       41.71675921601409       34.69272833795845
H           49.67919887238943       41.17302792010004       34.54975660814968
H           47.47951012662949       40.31843019398755       34.07028294264273
H           47.75446032528781       38.74938236047309       34.84510718978920
C           44.53005901379453       35.33381050576259       50.82363165795734
C           43.78224311521831       35.40945326530624       51.99346924098204
C           42.52107265345097       35.98356940057249       51.93219184067758
C           42.02583948328952       36.49575175466979       50.74753299125451
C           42.79790774539497       36.46356107207720       49.59933632906888
C           44.04963172291371       35.87235182796208       49.64373696325571
C           44.33095578193084       34.92002343266866       53.31107391694771
C           44.22999477200755       33.39666426210725       53.39552617219820
C           45.77550673660940       35.41058958226699       53.49730505547469
C           46.21581371695768       35.56350737763970       54.96199403203209
C           47.71627332112179       35.69895169703973       55.01244161525569
C           48.37149888049303       36.69647390117816       54.30014071417344
C           49.75222480729177       36.77480313178993       54.30125008764459
C           50.50282775930084       35.86809912901245       55.02981026033367
C           49.85794533097398       34.89195836674622       55.76852404995443
C           48.47757044087113       34.80457766306354       55.75301197458079
C           45.52884026717775       36.77153990312114       55.60900070310494
C           45.92520695056560       37.00730762277141       57.07154514875815
C           45.72290097797234       35.77981505669165       57.92307227720849
C           44.52220089627507       35.07997825195631       57.91979257923824
C           44.35138922006617       33.96120329986355       58.71455495443580
C           45.37565517822284       33.53123718335231       59.54059689321713
C           46.57045729513935       34.22931585576136       59.56526181089107
C           46.74098212650477       35.34158257815292       58.76051139898209
C           45.12237118443136       38.19187372383826       57.65624075064309
C           45.94112352695981       39.48429568239077       57.80380274079430
C           46.60821676903265       39.83451898681229       56.49901012853362
C           47.99077520011327       39.79500782468778       56.38044801421011
C           48.60905417759189       40.07820832942185       55.17639004717334
C           47.84952486253140       40.39328155095455       54.06401587734150
C           46.46981136536978       40.44392682397704       54.16902424345697
C           45.85487787131010       40.16863053466697       55.37667736016125
C           45.03181084238140       40.62289365228168       58.30373124581988
C           45.67341474550424       41.50411860781271       59.38653753949249
C           44.63704415257032       42.49698785219607       59.85312981751216
C           44.15322251746613       42.48099942764460       61.15469410390816
C           43.15114772521134       43.34799059951897       61.55536511368766
C           42.62555636735929       44.25918379867398       60.65651585493200
C           43.11786887175946       44.30460173504287       59.36432809128234
C           44.11259417276008       43.43188708696675       58.96778719958628
C           46.96487817165770       42.20830044052475       58.91427696581204
C           48.19644341475689       41.76195021805712       59.71788676575450
C           49.48663336061405       42.22835472661992       59.08863328124256
C           50.48329412772839       41.31549339887964       58.76383708463170
C           51.70354623020101       41.73394540090965       58.26260407035545
C           51.94628465938067       43.08308891301554       58.07153218761385
C           50.95473382665583       44.00174145450212       58.37066329520236
C           49.73701772993692       43.57806508870302       58.87135235889485
C           48.11375969351622       42.26938854178588       61.16476780953199
C           49.20000696414383       41.66764984195252       62.06878228024209
C           49.13441864388547       40.16138845458072       62.07161060788215
C           47.98473614031170       39.49212998869661       62.47508474855683
C           47.92431915946554       38.11095931912558       62.45901361467514
C           49.01602438277371       37.37080173747918       62.04054201121782
C           50.16717030966525       38.02432153278855       61.63917926877845
C           50.22191835634921       39.40615138846028       61.65300978272312
C           49.07713057327860       42.24553873241122       63.48767825556831
C           50.39402763032957       42.16027428158936       64.26847159252158
C           50.72157999198952       40.73333701690742       64.63548925479172
C           49.84530439228788       39.96284087023785       65.39043332393872
C           50.14658223422964       38.65156358056136       65.70758270764559