3258
 energy: -3427.507162317573 gnorm: 0.000701644476 xtb: 6.6.1 (8d0f1dd)
C          118.56099495848915      110.27238241637944      117.99453753495889
C          118.41683629014828      111.26822958375578      116.85200582794796
C          117.08819909507885      112.01363717479774      116.90266924383151
C          116.94822297711933      113.01418734414717      115.75956591320198
C          115.62812712909424      113.77428736555224      115.82917136519646
C          115.45758297071281      114.75665204460763      114.67451166334708
C          114.14923698994663      115.53284392258045      114.78591848039299
C          113.91884435502473      116.46746332758002      113.60275684740219
C          112.62288947392942      117.25832079070810      113.75355736382289
C          112.33349682815924      118.14018081773307      112.54367234026172
C          111.06826549471562      118.97120955399149      112.73143015481702
C          110.74503350317791      119.82586474370972      111.51014576207348
C          109.56072963428713      120.75404340658444      111.76311802164868
C          109.25374648632933      121.65154815984039      110.56754199537319
C          108.06480436231452      122.57856842784147      110.80932287424729
C          108.34780962151234      123.69576775879408      111.80939286690794
C          107.16168100503572      124.64805916272721      111.93868268456941
C          107.35285273137967      125.65490096821664      113.06962990943219
C          106.15005135105984      126.58437547751790      113.20761812325233
C          106.27890939780620      127.59922537821836      114.34644465907128
C          106.53115368543659      126.99074258397779      115.72851020373335
C          105.48288577250959      125.96505302123632      116.15126659170151
C          105.80238145238630      125.33375453456152      117.50492560579296
C          104.76689544544769      124.27858980579651      117.88637577519593
C          105.15143525892967      123.51240210335193      119.15049812723812
C          104.15743032669086      122.40409057476025      119.50327006705955
C          102.82801298352898      122.93654255328572      120.03158833663804
C          101.81637352565893      121.82376318871215      120.29652829511150
C          100.51043974814155      122.37949681104043      120.85925823936742
C           99.40307697886038      121.33113696782509      120.93258875138596
C           98.08727612624213      121.93788226268933      121.41743453355969
C           96.89228544340810      121.01638012726440      121.18539976690622
C           95.58440085734860      121.67665551885496      121.61835049100479
C           94.33058113985571      120.89059183213101      121.22606572708926
C           94.09868008287756      120.75773100929577      119.71865143365231
C           93.80238344920795      122.08246375620317      119.01726806096489
C           93.94049017049144      121.99334959864956      117.49704468599788
C           92.89609164543538      121.10318632216688      116.82657171653565
C           93.06454091415098      121.11251640238849      115.30849275588054
C           91.94786965754105      120.39332433647961      114.55276962950639
C           91.95975845556383      118.87436305123124      114.71627815200880
C           90.93628071035755      118.21860678088294      113.79028483834760
C           91.04224345419691      116.69553384565506      113.75672622277177
C           90.08534771129737      116.09067045765977      112.72955554390275
C           90.35896804396543      114.61092993655586      112.47011469285033
C           89.44706595969599      114.04913848626042      111.37931575637847
C           89.80077000170022      112.62009727352870      110.96043179432428
C           91.12370782649030      112.53991316396046      110.20175409423433
C           91.44727585957168      111.12313182870267      109.73165877528788
C           92.84455589378058      111.00810277677589      109.11737911697016
C           93.94627844148947      111.18006647658774      110.16004736497011
C           95.35849779521017      110.95619846324925      109.62472412430147
C           95.81042571745961      112.00108215457264      108.60179094782052
C           97.33527215603273      112.05545475699356      108.53642824989392
C           97.89991205047973      112.91278169618393      107.40373886052622
C           97.60902182633282      112.40153266531236      105.98930373216730
C           97.90300366041853      110.91832007908663      105.76819444284705
C           99.36679285327510      110.54193011270289      105.97865072298970
C           99.59270525598478      109.03010274573967      105.97854870097528
C           99.11417604467354      108.35819627404766      107.26409714477636
C           99.52997451305269      106.89195018104374      107.33613362360218
C           99.16533575472843      106.25886489555668      108.67542168429591
C           99.69936599389712      104.83442299763715      108.80623559238919
C           99.54172099422505      104.29673685121624      110.22480125859850
C          100.13341879160012      102.90163661997356      110.40887029678916
C          100.14278815391020      102.50227429332965      111.88137068604858
C          100.65313910000924      101.08535687060974      112.12731381275128
C          100.72098752363245      100.78950592093544      113.62390360875131
C          101.12009358301037       99.35593799227506      113.96742423475568
C          100.12007427656559       98.28478904734685      113.52497035216581
C           98.69471577418399       98.45568092983369      114.04884144871755
C           98.56483750301238       98.33486965382771      115.56488836539779
C           97.10879499817393       98.48784994966030      116.00073894336511
C           96.88492198703300       98.32426740019947      117.50426478762417
C           97.61298361322507       99.37439706832323      118.34012130593533
C           97.15621840054418       99.37897262876363      119.79665783915448
C           97.98920421480159      100.33833834396209      120.64480654825459
C           97.44994848566725      100.50515913852496      122.06567043068142
C           96.21030662924277      101.39902233920481      122.16178107638707
C           96.49975438124881      102.86691755363685      121.80817348436484
C           95.84324774413001      103.33150414402843      120.50740564034717
C           96.37380122849375      104.69853715560748      120.08066501800305
C           95.64783166050796      105.27828339736556      118.86752181161748
C           96.41374230488799      106.46427175567723      118.28723767763086
C           95.71489815037725      107.12150107008208      117.09947864624395
C           96.58785342982507      108.20926149368586      116.47643941259697
C           95.87444595759216      108.99010362793062      115.37644112535146
C           96.77674383434049      110.06235791592850      114.77027959945099
C           96.02966147000478      111.01705578700229      113.84156874812139
C           96.91023059728060      112.18976088014567      113.41206642453611
C           96.11750036971534      113.34707443066362      112.80765158903247
C           97.00430905396613      114.56958638045639      112.58250858206108
C           96.31617599494878      115.70641193615324      111.82995112684063
C           95.14227114020321      116.33275613989287      112.58128299099513
C           94.67319707499320      117.63712974415419      111.92850078801209
C           95.52821949817829      118.83721175588417      112.33351445019606
C           95.19318737521219      120.07972264065383      111.51103933847952
C           95.83461599595975      121.36392581831623      112.04430801466393
C           97.35126561018625      121.29641876843334      112.23132547692266
C           98.12164607103301      121.04493961987231      110.93758157702784
C           99.63379397923165      120.95184706670858      111.15107521055630
C          100.02879874081738      119.80211607450624      112.07647053073029
C          101.50567073643079      119.43267128614693      111.98060591401192
C          101.86537294409453      118.35461832860103      112.99994848274805
C          103.28648274968265      117.83174705007718      112.82639895388779
C          103.60020597657260      116.68680179551025      113.78624221372159
C          105.01434007045440      116.15838981195311      113.56947493902884
C          105.33682795211475      114.89191406796245      114.35670799862405
C          105.27398377699753      115.06362195313530      115.87173628184223
C          105.91007477021007      113.87111475299416      116.58246393701168
C          105.71583137839519      113.88355721972290      118.09808129237670
C          104.29262452471806      113.51310317125814      118.50216233472968
C          104.11459563201166      113.41686539766548      120.01458679496974
C          102.69426980224216      113.00311388592962      120.40297905736537
C          102.40070792821825      111.52995204161431      120.12283219765776
C          100.92602581783333      111.20326223226914      120.33796591488401
C          100.57774649821782      109.73417127869688      120.10196759440198
C          100.74829928898257      109.29144400412373      118.64930659462101
C          100.01214558103719      107.98938946085315      118.33880143638170
C          100.53414622852503      106.79816273619579      119.12985909020585
H           98.94872932767056      108.12232054050423      118.54973385324739
H          100.11142822495229      107.77713142204816      117.27109343728360
H          100.35403394944055      110.07235411304670      117.99428694294852
H          101.80790703209340      109.16493243376954      118.41857339093110
H          101.19443310778001      109.11274911404578      120.75497976181519
H           99.53445853230083      109.58163306629999      120.38685857791431
H          100.65246350036320      111.47164683842925      121.36227220235953
H          100.32292611058729      111.82320431776314      119.66888968337759
H          102.67295320487450      111.29315666396869      119.09425714286878
H          103.01394646314999      110.90751973550677      120.78006569026159
H          102.53681526120978      113.19735612228301      121.46745283138209
H          101.98328788799564      113.62393934210799      119.85113405828548
H          104.82695151016736      112.69620711203147      120.42493404342352
H          104.33740901455880      114.39076424115363      120.45905191096752
H          103.58968512921025      114.25497691497844      118.11735297797682
H          104.04271481210250      112.55541869470377      118.04321450376372
H          106.40595007168423      113.16651793519631      118.54906832510038
H          105.96500281117306      114.87054696781264      118.49232622030139
H          105.48444401812492      112.94761614502031      116.18208445094731
H          106.97954242667589      113.85950902939267      116.35514055002112
H          105.80019756433389      115.97708153209496      116.15852278025613
H          104.23351968632562      115.16956976256418      116.18153030965470
H          104.64009373889395      114.10265376536299      114.06207661391629
H          106.34392330250627      114.56570920802275      114.08220432393897
H          105.13974280346217      115.93625951934523      112.50701479463619
H          105.73198993528023      116.93906884255901      113.82667752553157
H          103.48406840879224      117.03399646703713      114.81521255767434
H          102.88089057260123      115.87909379990369      113.62662863172162
H          103.41188767840985      117.47723783865348      111.79999065692888
H          103.99920250086059      118.64529022508711      112.98132765746614
H          101.74446292543681      118.75817012086932      114.00848012440962
H          101.16646186973216      117.52115871425249      112.89607162366134
H          101.72136014948055      119.06878052236840      110.97272907919435
H          102.12301329607693      120.31845912517829      112.14874337149985
H           99.80452024093476      120.07031112008551      113.11028863781551
H           99.43386637199448      118.91958867148075      111.82690325286447
H          100.11226594466758      120.80531870125763      110.17930785204418
H          100.00624360665449      121.89489343492903      111.55925331774525
H           97.77904299399576      120.11355022265113      110.48205644995977
H           97.91182779568155      121.85508646083532      110.23401590121755
H           97.68807968739281      122.24343731624263      112.66276084418352
H           97.57840050419985      120.51078544124141      112.95018296928276
H           95.59079070565996      122.18314784797951      111.36272481231669
H           95.38335304905223      121.60148131779052      113.01157650595742
H           95.49488887523910      119.91692176530036      110.47399590094625
H           94.10853905146445      120.22036656551025      111.50892575083462
H           95.36699138237611      119.05011285733141      113.39340986264818
H           96.58234331408437      118.58905600557527      112.20361739040227
H           94.69844026341812      117.52021841538642      110.84201190005169
H           93.63654914526981      117.83727928011848      112.20743085293630
H           94.31306856113650      115.62211946980415      112.60250120732512
H           95.43091187708418      116.53173352291053      113.61689550150982
H           97.06135542984835      116.47826981758379      111.62546425736373
H           95.95925271486458      115.33441016340861      110.86660581035395
H           97.35819896867716      114.94108794365528      113.54839791460120
H           97.88122679260687      114.26163324895317      112.00746136522021
H           95.67969897448802      113.03588485864982      111.85748475425710
H           95.29874051421159      113.61028155539802      113.48163260265758
H           97.45208883386380      112.55874023957249      114.28572723132500
H           97.65610954646274      111.84342629369810      112.69235564541860
H           95.66681740424443      110.47971888919957      112.96198036074831
H           95.15382745242199      111.40617559661152      114.36740723083950
H           97.21433582006829      110.64525904083763      115.58346875445338
H           97.60005692953295      109.59171011041757      114.22716337596641
H           95.53655538474433      108.30392625867819      114.59826448532520
H           94.99128835847449      109.46788106535851      115.80343921854765
H           96.89489501494846      108.90661741332394      117.26121674913065
H           97.49474990568780      107.75431811726199      116.07230223320978
H           95.48101438966327      106.36317104324429      116.34733225283748
H           94.76748723323536      107.55554244651658      117.43020447948152
H           96.56006568294194      107.21062180187097      119.07280842194473
H           97.40122008786510      106.12004973121060      117.97027893715763
H           95.54561993535360      104.50796212087224      118.10107414501960
H           94.64145226419384      105.59130801973919      119.15629193921144
H           96.29021334187588      105.39572401035785      120.91726543326438
H           97.43646727332575      104.60147828613431      119.84318823131453
H           96.04085471544367      102.60624682342198      119.71470676715823
H           94.75972997050808      103.38161236661938      120.64289435692102
H           96.15474964166805      103.51664086704771      122.61549997516694
H           97.57858687479148      103.00979937118970      121.72711449503907
H           95.42658525113930      101.01125521746091      121.50887161219639
H           95.83032623513476      101.33658747490610      123.18397088389175
H           97.21065529845237       99.51832218806042      122.47099884171244
H           98.23338845300775      100.93506006796703      122.69459187143657
H           99.01270274072674       99.95805907940655      120.69872930381588
H           98.03145065747955      101.31165679306338      120.15496673009937
H           96.10297431910045       99.66546261945659      119.83883696285359
H           97.23515459292931       98.36958075509664      120.21055471464105
H           98.68736752337260       99.18544775938226      118.30624133475442
H           97.43067712373889      100.36215546285646      117.91314871166162
H           95.81134471331720       98.39711485380883      117.70174862381477
H           97.20665494068894       97.32723205417568      117.81320606761518
H           96.74646520778944       99.47286239725919      115.69433265256872
H           96.50281008565624       97.74292164760899      115.47613450436913
H           98.93639456094213       97.35755357818704      115.88455076041713
H           99.17302906818335       99.10106245893297      116.04586732028761
H           98.29499533399942       99.41898111391862      113.72701413190850
H           98.07405631987950       97.68026095777149      113.58997149313322
H          100.08062263398739       98.25835096578807      112.43355018396160
H          100.49180209185847       97.31034456604230      113.85630559899448
H          102.08334312168782       99.13641413614086      113.49968699247049
H          101.26223217116575       99.28802696760870      115.04851566564292
H          101.45158375793829      101.46526987613046      114.07821205206160
H           99.75450814627706      101.01321000386122      114.07575595465767
H           99.98561787518064      100.37551415528229      111.63435005816352
H          101.64659483541740      100.97079614647917      111.68694810314948
H          100.77413371597163      103.20706383612723      112.42923302695264
H           99.12762044713484      102.58721824135887      112.28111821922430
H           99.55797593805075      102.17391663583514      109.82985190685406
H          101.15713460249628      102.88950828336606      110.02763702776102
H          100.04444595604572      104.97788767601214      110.91596397255122
H           98.48227787037752      104.28237304198171      110.49353053928262
H           99.18344463100746      104.17818420363986      108.10019732329974
H          100.75890670680154      104.82959490994944      108.53925819166014
H           99.58639064989706      106.87177937009145      109.47622339411323
H           98.07947074938441      106.26034794325165      108.80185061131591
H           99.05596700134947      106.33476956604126      106.52386046370658
H          100.61207614413469      106.82305310813825      107.19724623551288
H           99.54056517301181      108.88644322243080      108.12151884828648
H           98.02691693681702      108.42783831551523      107.34491079424404
H           99.08137291518078      108.58231744302213      105.12229784952423
H          100.66287579161299      108.83490190030349      105.86533903247276
H           99.96750888233639      110.99877165604074      105.18747326674564
H           99.71975437405760      110.94199701476489      106.93046790600420
H           97.27246687638090      110.33117490077534      106.43519786002582
H           97.62118911114050      110.65804535212855      104.74414887417565
H           96.55831952927977      112.58055926297007      105.75235260326711
H           98.19860396627716      112.99301410228767      105.28265569720097
H           97.50308265364032      113.92740092474999      107.48788157279714
H           98.98165448791148      112.98500810659394      107.54123892009704
H           97.69916822190419      112.45751567594347      109.48622668957911
H           97.72141613172333      111.03881161728779      108.45139264305854
H           95.40109070917870      111.75535192048977      107.62144811540732
H           95.42601216948438      112.98527193256571      108.88439213155807
H           96.04723870091634      110.98152548899661      110.47323094983892
H           95.42975624999852      109.95968557199657      109.18194975389265
H           93.89433414335871      112.18517294956021      110.58268163268551
H           93.76289801589564      110.47307245028908      110.97314069903821
H           92.94641117633719      110.02283900916275      108.65439161328990
H           92.95373925325194      111.75769492108680      108.33087619220053
H           91.37406905609279      110.43703634290428      110.57999901786049
H           90.70130893487402      110.81221356564112      108.99528366843546
H           91.08395557171210      113.20524669749692      109.33557299179124
H           91.92339488312882      112.88935776478839      110.85331041608943
H           89.85249771211704      111.98456296671725      111.84797509900679
H           89.00149351104166      112.23126916212196      110.32389246543691
H           88.41486517897063      114.07095684545546      111.73800560910294
H           89.50095613418408      114.69685809091926      110.50038961300032
H           91.40151181476155      114.50315869699608      112.16716845953080
H           90.22015241543428      114.04114513031200      113.39178450970546
H           89.05415723679921      116.22254289482585      113.06580193524887
H           90.19325362446511      116.63371336885656      111.78666555115782
H           92.06632936859947      116.41790345672548      113.49655676068991
H           90.83162651020977      116.28565782043380      114.74684376852569
H           89.92837733000042      118.50834481154816      114.09748759025236
H           91.08763005759809      118.59925996621911      112.77592573532097
H           92.95605001449434      118.49659977261058      114.47624655242487
H           91.74152619915826      118.60439104584073      115.75091903991724
H           90.98080237011933      120.78657113901765      114.87605924478051
H           92.05417598127620      120.62375552042553      113.48897253410972
H           93.09358994348659      122.15197468254449      114.96938175431845
H           94.02374703530802      120.65775905007155      115.04822382482152
H           92.98923836752091      120.08337217977308      117.20050615724566
H           91.89687343521476      121.46477591768416      117.08202755023287
H           93.85696187360320      123.00109529438180      117.08012828010918
H           94.93865348303633      121.62057740464486      117.25337380815007
H           92.79558688937858      122.41898396491956      119.27630422093559
H           94.50243892316840      122.84208183776833      119.36875619347174
H           94.97527308601447      120.30403462361210      119.25659443519203
H           93.26158903407736      120.07424641983310      119.56418764007540
H           94.40067085754880      119.88713895747510      121.65432133934367
H           93.46107477799541      121.37871025138946      121.67382496086627
H           95.59210550698434      121.79561163093311      122.70497808075451
H           95.53546454450102      122.67916143959567      121.18890947015183
H           96.84755303764082      120.77905225446440      120.12160176580045
H           97.03091671832556      120.07941573613164      121.73009288481158
H           98.16450841592142      122.18414436997354      122.47915610973959
H           97.91210880758891      122.87249496466995      120.87743944231660
H           99.25496266920317      120.90624900245179      119.93722979083206
H           99.70533313919455      120.51869036128480      121.59756407181055
H          100.68863183115316      122.79486713248154      121.85411269371460
H          100.17314748749784      123.20010852539356      120.21959509960806
H          101.60740903866382      121.30028784925950      119.35980013312920
H          102.23871345926057      121.09622879407701      120.99381817073312
H          103.00537819070065      123.49242738171633      120.95590503796430
H          102.39770488907443      123.63119489931283      119.30753697800887
H          103.97573337344248      121.79187232764019      118.61637195872981
H          104.60090890661836      121.75623775424069      120.26412457127257
H          106.13750487680005      123.06530261162375      118.99869907031513
H          105.23280344456259      124.20711802389026      119.99016583135301
H          103.79984364114318      124.76552164043007      118.02429467599109
H          104.66560831978127      123.57096092098909      117.06125509670895
H          106.78961022008575      124.86696581960925      117.45718839589576
H          105.84234094843126      126.10740569729002      118.27583126988819
H          104.50129662568484      126.44419422991919      116.19223527825523
H          105.43362838007171      125.16756182638053      115.40877966247685
H          107.51654438184775      126.52178345155617      115.74023461791882
H          106.55417789533479      127.80104560867633      116.46244722455640
H          107.10204424979672      128.28257280653878      114.11989799695964
H          105.36128827067455      128.19284826912980      114.38224041521194
H          106.01844666440182      127.13645243556695      112.27246868686494
H          105.24794331965008      125.98634701550003      113.35242596067506
H          107.49978790365152      125.10347152408384      113.99900158102490
H          108.25203663664753      126.24873551565810      112.89035931300161
H          107.01450929470452      125.17716547507965      110.99388464203778
H          106.25600828032815      124.06687886100018      112.13348700494454
H          108.56653847144725      123.26785961289981      112.79007379620484
H          109.23016082024671      124.25628893837685      111.49109107301564
H          107.76970604033201      123.03054032946312      109.85814773227099
H          107.22085447097923      121.98768369972684      111.16918258885734
H          110.12849812134206      122.25735295243872      110.32283011543406
H          109.03993067265243      121.02379782275780      109.69849037897374
H          108.67754412924887      120.15503200918128      111.99635483214465
H          109.78201036963398      121.37395148989245      112.63452862916496
H          111.62388662677661      120.41985852464198      111.25000117973663
H          110.53085355444605      119.17848249113815      110.65590756196262
H          110.22690055135442      118.30683131255851      112.93917586532102
H          111.19756541977679      119.62482455023576      113.59868655560241
H          113.18365608326675      118.80586933237264      112.37135516839197
H          112.22441420272419      117.51241531467201      111.65562810620642
H          111.79118479244713      116.56446859336521      113.89776150393534
H          112.68965608167179      117.88542626202880      114.64693271206195
H          114.75972733843965      117.15974797614972      113.51555169174428
H          113.88390212069571      115.88123120424238      112.68036609482270
H          113.31770079732014      114.82648160582187      114.85300022184211
H          114.15896979189594      116.11801840356645      115.70975605899754
H          116.29688281445014      115.45673386208891      114.66727457544192
H          115.47728972804049      114.21161137404744      113.72633069707197
H          114.80016616360808      113.06062146250922      115.81984716145077
H          115.58116198324578      114.32104455598503      116.77527511776887
H          117.77770341365267      113.72500340927019      115.79467887587982
H          117.01595565929408      112.48506677386540      114.80475072447463
H          116.26916739913000      111.29193700950425      116.85443773209195
H          117.01011072534214      112.54237769460141      117.85680311687673
H          119.23424414208039      111.99264268442161      116.89671587100393
H          118.49624931216982      110.74682043687208      115.89413439767822
H          118.48542745068163      110.78409045595193      118.95204014666787
H          117.77980443990607      109.51694854022396      117.94549718979992
H          119.52604653232657      109.77170678166213      117.95065694945590
H          100.00630660529531      105.89174509395183      118.84024683888367
H          101.59582275469748      106.65427628255985      118.94239042045193
H          100.39078914631500      106.94367336679466      120.19700231143746
C          111.92003572013094       90.85040531785467      108.88076759447378
C          112.69627062821198       90.43278403843544      110.12371537778412
C          113.60360670625968       91.53557437170348      110.66995929530685
C          112.83203867421689       92.73990300504484      111.20332759585391
C          113.73704704841465       93.70919295952913      111.95904841768957
C          112.98300975822264       94.89687367694326      112.56195162035561
C          112.64382739553376       95.98687508939706      111.54870802170225
C          111.92857174967241       97.17009436356204      112.20137862599243
C          111.94514538419595       98.41417912983559      111.31671339628498
C          111.09122402964064       99.54686790640918      111.88436913959461
C          111.28182851274840      100.84146406369247      111.09415017187308
C          110.17915322975233      101.87505896302677      111.31703798369651
C          110.14697516022309      102.47124327010548      112.72158036914786
C          108.97201709650318      103.43231329390544      112.91631535743822
C          109.14537433239425      104.77769493804703      112.21488347625481
C          107.89856576619938      105.64614752337360      112.36928870538095
C          108.08215845780066      107.08336587244511      111.88352546610274
C          108.23654141124504      107.19362751377027      110.36833099854574
C          108.38351948063126      108.63559331229625      109.88021758450947
C          109.72685172256033      109.24549160507613      110.26850254201869
C          109.87565716542606      110.72705212380411      109.92783413852388