3795
 energy: -5103.701160253278 gnorm: 0.000847055219 xtb: 6.6.1 (8d0f1dd)
C          122.67928611342312      133.58887172168065      124.92035835921182
C          121.77579924128676      133.99550234765678      123.77447756682108
C          122.53376395824938      132.11357797450162      125.29315894144020
C          121.08723111335733      131.74989601746867      125.62102737060189
H          122.88213746274643      131.50168209408770      124.46238098295510
H          123.17114698946769      131.89840619169786      126.15237108659049
C          120.90495505389534      130.25679264124929      125.92262174384365
H          120.75657452818011      132.32366120755671      126.48850464137328
H          120.45042961552073      132.01743653942350      124.77678318121794
C          121.34743071196226      129.42597309662935      124.73513594773416
H          121.51907418625375      129.97952049843485      126.78072387798851
H          119.85743518947581      130.07135244002964      126.15210573841451
N          120.43249667455555      129.23627301155895      123.78043285090563
O          121.63812824214232      133.07426732512471      122.85084775539144
O          121.23142909671263      135.08186806536429      123.73279450486083
H          120.92475615758394      133.31460966954748      122.17168955838699
H          122.44793895834540      134.23562525103659      125.76790056877071
H          123.70799785072785      133.78972701519319      124.61389703270522
C          120.75281176536154      128.60890350740985      122.51150441608729
H          119.46841467990666      129.51279297130759      123.93663581640051
C          119.61032050486274      127.77043416906648      121.95118918579878
H          121.02098964774292      129.39245394580979      121.79080174304791
H          121.63386536233077      127.98218109004722      122.67010825321120
C          119.25348549357453      126.59261358112670      122.85402927151972
H          118.73067719451514      128.40164878395072      121.81363969449093
H          119.91861078420547      127.39645468207722      120.97287450133956
C          118.16939984164652      125.71442516236752      122.22986328656440
H          120.15066525189732      126.00014868056550      123.04006288993133
H          118.90660153823363      126.97502307139862      123.81557736999173
C          117.74301510913824      124.56807655924933      123.15107740080916
H          117.30444608581331      126.33911451683798      122.00210041431845
H          118.53235466527710      125.30593872830546      121.28471840482679
C          118.71073525025696      123.39275878772649      123.05675547373856
H          117.70617525888554      124.91509835286703      124.18475786141258
H          116.74721056345523      124.21451812859762      122.87944937936780
N          118.42066176823671      122.36974830987346      124.03622819181683
H          118.65031978296155      122.95670891069075      122.05366789331111
H          119.73557080663579      123.72615008275334      123.23505422876185
C          119.33874089016911      121.88617559210201      124.87344674147981
H          117.44536731346923      122.10009148939515      124.15537443699358
O          122.49902368147424      128.99600578432074      124.65172854140253
C          118.85067572086419      120.76536501847733      125.77052814109413
C          119.15739148194251      119.44392857115443      125.05494007811724
H          119.38395441086267      120.80838953650517      126.72130626606813
H          117.78266931249091      120.87351924210485      125.95039846245933
C          118.80369476373700      118.18922123303321      125.85230773656127
H          118.61159917010066      119.42763653728711      124.11067833247841
H          120.22690994650250      119.41808694044713      124.83100764291255
C          117.29522453695270      118.03796416603383      126.06410176982408
H          119.16358577251141      117.32351498447063      125.29223537825420
H          119.31433708846735      118.21180299351259      126.81652870049385
C          116.95275272079715      116.76290770133214      126.81026505955910
H          116.91652075149189      118.88006409355715      126.64111954725301
H          116.80526200069545      118.02103990157266      125.09091439690529
N          116.86694048715883      115.66539552677240      126.05928365140944
C          116.58572325941981      114.36720262750102      126.64691975650601
H          117.25668281060419      115.67094912487588      125.11696210406306
O          120.51522180747745      122.25409026966008      124.86446611680577
C          116.57900376548626      113.27658822960092      125.58167398391336
H          117.34139080272915      114.14738531478619      127.41129944802694
H          115.61682350460296      114.41795850107175      127.15269564825805
C          116.84799357174310      111.89383597503362      126.17438869743903
H          115.61252195292879      113.26459273257294      125.07702855272225
H          117.34683603473329      113.52424045696091      124.84513576718250
C          116.90195024606498      110.78107084074786      125.10983923512296
H          117.79121814397017      111.91430920310823      126.72394036054925
H          116.06551867966917      111.67223715681395      126.90173889077444
C          118.16986115615272      109.91885786043555      125.17304904503989
H          116.04073881687795      110.12375939680068      125.23230354117332
H          116.82437499838615      111.21523441420698      124.11155244627341
C          119.34039041610934      110.49386669017115      124.37120479675940
N          119.68909423984213      111.84334371155667      124.75166941719895
H          120.23103165126844      109.87716050937777      124.50974423442813
H          119.07356541676243      110.48374305872790      123.30940972205917
C          120.88964740018923      112.24551813292609      125.19193460405522
H          118.93906638075580      112.51647873799583      124.72765305379498
O          116.74278555753814      116.74965089527859      128.02630602940755
C          120.91749203136790      113.70615058662264      125.61368141910820
C          120.52372172883787      113.81918250026487      127.09048679086339
H          121.92896599796853      114.08987061291498      125.47859673478898
H          120.22827548894318      114.29068246139981      125.00237870930160
C          120.44472190218001      115.27915381090392      127.52840698345418
H          119.55417119183991      113.34248778357912      127.24708313607279
H          121.25625671004187      113.28429620521342      127.69877990793178
C          120.00836589147603      115.42712881873570      128.98900169804284
H          121.42312210734435      115.74569156201024      127.39878306673388
H          119.73376871607859      115.80268884109401      126.88962204550853
C          120.14408726513155      116.86957502895477      129.44333847579665
H          118.97643548083245      115.09747822025184      129.10977467755922
H          120.65502343053835      114.81645563100693      129.62197373021192
N          119.02692864196986      117.59301535792257      129.40784764987444
C          118.97844240193866      118.96778703082428      129.86149932417811
H          118.16358459787085      117.21366345536090      129.02132993914478
H          118.46770286382093      109.77577318796267      126.21285552469199
H          117.95646614912475      108.93534200321848      124.75060458273894
O          121.86886992781942      111.51350905054257      125.26511327395430
O          121.22428774618301      117.33412182791544      129.81252941524201
C          117.54917992046732      119.41736070557313      130.13243042311382
H          119.58798730043597      119.03900628690980      130.76687662707880
H          119.42985267609954      119.62504128951753      129.10618269289833
C          116.81571493488651      118.52612634033096      131.13746168499577
H          117.58822657556638      120.44414016499728      130.49505089452171
H          117.00038420717074      119.42138635358617      129.19025782034842
C          115.63585766531553      119.24168617520029      131.80504405019025
H          116.45709632831584      117.63560724389855      130.61907413529840
H          117.51280988656372      118.19398152496161      131.91007771569849
C          114.59890840578720      118.25495599989267      132.34902378166518
H          116.00893303893305      119.87136594296108      132.61524408137021
H          115.14143928663530      119.89843099892283      131.09026674532510
C          113.61849610455064      117.80835161745691      131.26353073070152
H          115.10955191304087      117.38192470382694      132.75672027724036
H          114.03509632256625      118.71588009410836      133.16128612189544
N          112.48437202315499      118.71126495654738      131.18411738895020
H          114.13346068389323      117.76118084567908      130.29874166002256
H          113.22005147613027      116.81144732047488      131.47662409832020
C          111.26786646328297      118.30178871649862      130.81671132182757
H          112.63930710982564      119.67652062926540      131.47095553315324
C          110.15589388121164      119.32084910204046      130.98842020622732
C          109.96831806734140      120.21659337039596      129.75698962660337
H          109.23128238501583      118.77351581181608      131.17914157424673
H          110.38571849336736      119.94284655296951      131.85396772209239
C          109.36816216883443      119.46709344468806      128.57029051272397
H          109.29942267576820      121.03553168990459      130.02858657241461
H          110.93154002278639      120.64827090311445      129.47995285585043
C          109.33949054925303      120.33307557637548      127.30877587333353
H          109.94458026090054      118.56401957380426      128.36750547182294
H          108.35095263010770      119.15497422112182      128.81815651654509
C          108.82051239725942      119.54176724092042      126.12329743889990
H          108.72978157537840      121.22311917761546      127.46116919793764
H          110.36021284187365      120.64526996973100      127.07409432165475
N          107.81488060372178      120.11171795812938      125.44939840939149
C          107.29703761542024      119.55849131289372      124.21545281755085
H          107.59059932304808      121.08941707825953      125.63351826734608
O          111.05719103180644      117.16680308047631      130.38193730223327
C          105.77861543977538      119.64637772802172      124.08936574277445
H          107.74578504649078      120.09338398538330      123.36900156890503
H          107.60673248604844      118.51364345360736      124.17444334075326
C          105.37814469226905      119.24951439652118      122.66696558264884
H          105.29856032005952      118.99081206410951      124.81708703498961
H          105.45885556650053      120.66844100208613      124.30142321955378
C          103.89106558712365      119.43493894269896      122.37518163862759
H          105.95479707746340      119.85388427754985      121.96202917401206
H          105.65013033187462      118.20502470447332      122.50431058075550
C          103.58355543868217      119.25289200581155      120.88833591921789
H          103.30542364474965      118.72471313457619      122.96104517087149
H          103.58922000384904      120.43893668740540      122.67757355526025
C          102.12009385462962      119.55179111801812      120.58273616839023
H          104.21470170525664      119.92435651634563      120.30292914118301
H          103.81364085029811      118.23190001067675      120.58151490267002
N          101.84655064440663      119.55626096095835      119.15965168685113
H          101.48179413241149      118.80692491583852      121.07436997076590
H          101.83810021479607      120.53834480141633      120.96150437333156
O          109.29948648279478      118.44992011092661      125.81826103925656
C          100.99033421905214      120.42064097472347      118.59727881215093
H          102.32358387148292      118.86515582336254      118.59102970493400
C          100.69227714151654      120.16107176116526      117.13193133557692
C           99.63580583608297      119.05408884057670      117.03464643874314
H          100.31186421985818      121.08041914195454      116.68728695248579
H          101.59580829286853      119.85473739413965      116.61063959742023
C           99.00356471763556      118.92427593221703      115.64826509268508
H          100.10266497495466      118.10333764358235      117.30025290058987
H           98.84810497466448      119.24803963833205      117.76768655737497
C           98.04345015114190      120.07252034400288      115.30769989480557
H           99.78199666743986      118.87682725628956      114.88474373324767
H           98.45177629334707      117.98322600184672      115.62111225211585
C           98.70594239413865      121.21079267731228      114.55301444361551
H           97.26563850487673      119.69142469618355      114.64123625855146
H           97.56268018302407      120.43877035803700      116.21440497900376
N           98.45145905583608      122.43943179867520      115.02536862355315
O          100.44337921987830      121.32612164253010      119.22053498762091
C           98.91648058503785      123.64613629233862      114.37241154492325
H           97.88116008483898      122.55736856931152      115.84821575954165
C           99.41281867444697      124.69749497020729      115.35900705040002
H           99.72747242099014      123.34206372417958      113.70793111177740
H           98.10314692589620      124.06563335638145      113.76774757660695
C          100.59826999261665      124.21184970931333      116.19241557924036
H           99.71612103179420      125.57330504063025      114.78373452921146
H           98.59792918323902      125.00136057377235      116.01810883297644
C          101.31754745514448      125.38292885912495      116.86295026797301
H          100.25358066747035      123.51506934227248      116.95971930082632
H          101.29124416422746      123.67996996101120      115.53822664854502
C          102.25230894658793      124.94605177247519      117.99104735279720
H          101.87194751012936      125.94631367962818      116.11120513143128
H          100.57591502694832      126.05704343178573      117.29457057958776
C          103.31453494338764      123.93200241137711      117.56916232126645
H          102.74506151209744      125.82742254314950      118.40511130694226
H          101.65949554205451      124.48685066251410      118.78447276388650
N          104.25436825411805      124.51202201594050      116.63995907419222
H          103.84015180559808      123.58197794145917      118.45739676908285
H          102.82783976562401      123.06269191009748      117.11192851161769
C          105.55612216344936      124.27210245931546      116.50585603163029
H          103.85850901805424      125.17695100526666      115.96599443499447
O           99.38338777655659      121.02094164714823      113.54813669276216
C          106.22156276003740      123.28972322994181      117.44418561783125
C          105.95413493892043      121.84883348702570      117.00514906753409
H          107.29599972082293      123.47818819773218      117.41748308289370
H          105.87950450637696      123.43734171209664      118.46843272993416
C          106.55023189109816      120.84614869621137      117.99111256138364
H          104.88049678096212      121.67636918851062      116.92228652364579
H          106.38512661548945      121.68326257418434      116.01501000754745
C          106.64156397277539      119.46492560993289      117.34313992461968
H          107.54069636219025      121.17160467872270      118.31390671818879
H          105.92983530758306      120.79484174765619      118.88850441991009
C          107.19120810566413      118.44246489889986      118.31054840093877
H          105.64987472090064      119.15877553251524      117.01664453173196
H          107.28533893178610      119.52260561810863      116.46407154599261
N          106.26325212218822      117.62399709851860      118.80671916383591
C          106.49124132261787      116.56663690672451      119.76825904733317
H          105.30710752628138      117.72841255711228      118.48353946720725
O          106.20676694092144      124.82599571548491      115.61058963559474
C          105.56684148018229      115.38500946632425      119.47774638813213
H          107.54482353419762      116.28392651463545      119.72118055774865
H          106.28514352423846      116.95055135141510      120.77526064761940
C          105.49860760576932      114.38870402987718      120.63488377506572
H          104.56450594187152      115.78492424258964      119.30654705673297
H          105.88274873928543      114.87827617127650      118.56372333173356
C          106.75372829546190      113.52872991422993      120.77181623160635
H          105.33434879334729      114.93469274805379      121.56668859538303
H          104.63901527721187      113.73279928857310      120.48625295794177
C          106.73805284863974      112.74146361294260      122.08069631823570
H          106.81888842919071      112.84171088685075      119.92630772030020
H          107.64144889703455      114.16097138492843      120.75253175260684
C          107.94913071976282      111.81901831971112      122.20469190570481
H          106.75224325930130      113.43712965099451      122.92187176211552
H          105.81904195150888      112.15860161802368      122.15942647433214
N          108.17694471875119      111.45943385930219      123.58574973923125
H          107.81446241100886      110.89590259361147      121.63599085583300
H          108.84004826064007      112.33121724540997      121.82126244226441
C          108.50682800185004      110.24228189882663      124.01078553186358
H          108.12477129771288      112.22447717299387      124.25378470036921
O          108.38514433788606      118.38471261756666      118.61336410996303
C          108.77584096628524      110.16601291678160      125.50269084225104
C          110.09293384044518      110.87201678529125      125.83949831183961
H          107.95741001216378      110.65507474862032      126.03230374198553
H          108.82370717888173      109.11821155372490      125.80190979385986
C          111.30929853491224      110.11044846508236      125.31575361568576
H          110.07581809306033      111.87181653616823      125.40095525474898
H          110.17398252699893      110.98511086707323      126.92238431481169
C          112.55997984115608      110.99034105015762      125.30351148611634
H          111.47739863826187      109.22507535538456      125.93154926483906
H          111.11728463891727      109.77384273148051      124.29396234281617
C          112.58327883114075      111.88944002496500      124.07818601047227
H          112.63008412520823      111.58805509797894      126.21203193732585
H          113.44864496535490      110.35692284530187      125.23758575265256
N          112.99477958292832      113.14147378997581      124.28882525309398
O          108.59488396452603      109.26382317456887      123.26658583150507
C          113.17728074128939      114.07932072428912      123.19469959693647
H          113.13927281531974      113.48629249508453      125.23214573384031
C          113.64507054647321      115.43168035280888      123.71387096908437
H          113.91079887674783      113.65869514000129      122.49737267811109
H          112.23316440256720      114.17712696740581      122.64756524873373
C          113.96098615344300      116.40093851404427      122.57609911534612
H          112.87212993164687      115.85218410852335      124.36082247066304
H          114.53774043710493      115.28926079022810      124.32594453341407
C          114.38974667136158      117.76508435355659      123.11383995726911
H          114.76604233924763      115.98624285961563      121.96828983893511
H          113.08373367882679      116.51218680867490      121.93752503538724
C          114.88168367262774      118.68454521658501      121.99873327633694
H          113.55428405968962      118.22760542727417      123.64117897736023
H          115.19506413358214      117.61105352712582      123.83461199989874
C          115.46054210543048      120.00397148109796      122.50056305581678
H          115.65671394775359      118.16559978886710      121.43410086797169
H          114.05955802253432      118.89622234807328      121.31487217475183
N          114.43139932566970      120.88844676409491      123.01173674351391
H          116.17405710096712      119.83793245602818      123.31146610005756
H          115.98315325839910      120.50704256341180      121.67752303875423
C          114.63067805586421      121.75597376723128      124.00918394079139
H          113.54422115737094      120.86974427920107      122.53435561889754
O          112.28810236124126      111.47412667342009      122.95992785219067
C          113.48870111687359      122.68912700132267      124.35455924881185
C          112.09163226423152      122.27527037634697      123.90311672372654
H          113.50061471088230      122.83243579696331      125.43655580331978
H          113.73741409142524      123.65966837892948      123.91578945890146
C          111.02315914635753      123.18689861385315      124.50893204651703
H          112.00800720270995      122.33192220970669      122.81559065569483
H          111.89241908064191      121.24700272426897      124.21523982482510
C          109.62758996358870      122.78252891826216      124.02768180272736
H          111.06951791608482      123.12611518329621      125.59718772704088
H          111.21946059608807      124.22030894867176      124.22427920204494
C          108.52767702777714      123.54616020692170      124.73506273885448
H          109.53752196156934      122.95882966831924      122.95463243664717
H          109.47184973982226      121.72024989480758      124.21761325967164
N          108.46676539180680      124.84946370578395      124.46355190581930
C          107.44837818777509      125.69728223340225      125.05294427869089
H          109.11688566218027      125.26200806731599      123.80633740531742
O          115.70358126910416      121.83333795630095      124.60623804596426
C          107.66735139699543      127.17423165904711      124.75536727647254
H          106.46534514071989      125.38810636311808      124.67502388354359
H          107.44393384996903      125.52217870128179      126.13490252042969
C          107.48342923313091      127.50755693139496      123.27445504477610
H          106.94064865426908      127.73894009287190      125.34215782911272
H          108.66356327378290      127.46852447936452      125.08918244176526
C          107.39503779345827      129.01616801708420      123.04035998220986
H          108.31899038729537      127.09911629676509      122.70468776360974
H          106.57003424956713      127.03341552024759      122.91815358291248
C          107.25913285910484      129.38308342239415      121.55995187067275
H          106.53863968210652      129.41803231879695      123.58564684086470
H          108.29050477571026      129.48627482207095      123.44753571108021
C          105.84256803332113      129.14543603644535      121.04723567916491
H          107.51071368231220      130.43504875531363      121.41226125319994
H          107.95975938562125      128.78899759416856      120.96999511223076
N          105.76858630074591      129.31555288226863      119.60985639851042
H          105.51598711803857      128.13022954447177      121.27887637235551
H          105.15230678736839      129.84435722893599      121.53637869286109
C          104.83986890550428      128.75411802604802      118.84059532834783
H          106.47224673631702      129.90637973624681      119.16997001670653
O          107.74303817169869      122.99810719945053      125.51448069715478
C          105.00363661507612      129.04326672387361      117.36160814255886
C          106.15270148986839      128.20289464744982      116.78443605277667
H          104.06611808878377      128.81039791525802      116.85608239849128
H          105.21603865458550      130.10452073350700      117.23658866450661
C          106.83051312339605      128.84255739069664      115.56871971712337
H          106.90605564888848      128.05119422214108      117.55783028744379
H          105.76852287057818      127.22059483169205      116.51000596824736
C          108.01759049553124      129.73982510495006      115.94599085796524
H          107.20916126484775      128.04818851836151      114.92262058340424
H          106.10930590709285      129.42394988085294      114.99234497188235
C          107.58980153036271      130.91593529091335      116.80286589821166
H          108.74553251849940      129.14804988060811      116.50179755843250
H          108.48034557864001      130.11389671897251      115.03224065788048
N          107.21844103888778      131.99015322883380      116.10938420398266
O          103.92709082861772      128.04101095466106      119.26798106685274
C          106.64880140618928      133.17616549559278      116.70788406048798
H          107.29992210566361      131.99094142329037      115.09805857121725
C          105.55925805609074      133.75683323126907      115.81085792231336
H          106.24674407733002      132.89459325209367      117.68578224421604
H          107.43261368395729      133.92694433924584      116.86503608767593
C          104.44933317854030      132.75001981114039      115.51076727836178
H          105.13736835005885      134.63616257220758      116.29933259663497
H          106.01366711420791      134.07383605856552      114.87002558513321
C          103.31485915456383      133.39265692742225      114.71393072213519
H          104.86933183175603      131.92327898781895      114.93456032192515
H          104.06003584481061      132.34670137944778      116.44746103582534
C          102.35928177068816      132.37612190691613      114.09049847906850
H          102.75356929886189      134.06807897733640      115.36311464835892
H          103.74774407624189      133.99186298194329      113.90896793266045
C          101.64256241086625      131.48972765579481      115.11833997656487
H          101.60547216825439      132.91683823277501      113.51002215183331
H          102.91429341193961      131.73824238746138      113.39803955778096
N          100.64139109340348      130.60145812498854      114.54672520190108
H          102.36828601599235      130.86184063702717      115.64007239144379
H          101.14151300230023      132.11842542187952      115.85955738626184
H          101.07804494956135      130.00902571020734      113.84795517456622
H           99.92889431383639      131.14810043058398      114.07488579871227
O          107.57559035829689      130.87323181914843      118.03435486537472
C          104.54379695300041      104.85105612912865       96.20131705865818
C          104.62301083282307      106.11128678629299       97.03638217813531
C          103.30087036952003      103.99148892221939       96.48343747546896
C          103.28522794432604      103.34749843498551       97.87427094184665
H          102.40421374732470      104.59761696221223       96.34518981293340
H          103.28803281771795      103.20077078905167       95.73222258271117
C          102.69597325040507      104.28068105355057       98.93550763741655
H          102.68245761817413      102.43784270621782       97.84120237581044
H          104.30226266965435      103.06079531977024       98.14705003523112
C          102.80946089483190      103.72891349763738      100.34543552718583
H          103.22148915416385      105.23418548360129       98.91039230301779
H          101.63935779852306      104.44840366820314       98.72012674750844
N          104.06381422509978      103.66221528096111      100.80679472728320
O          103.97303163194627      107.11647389515930       96.49564773830586
O          105.22248842699625      106.19128018859362       98.08995839911088
H          104.07233795151797      107.98988250106959       97.00997842015992
H          105.44298075865643      104.26020976297032       96.38195182842206
H          104.52149386278539      105.15945141136618       95.15584783741720
C          104.41641275829595      103.20240242952214      102.13421441591589
H          104.81948277580257      103.96535854000226      100.21040027940663
C          105.57035757778662      104.01812566123856      102.70748494683400
H          103.51924685632549      103.29275075155097      102.74979166713574
H          104.69767767743157      102.14275673806850      102.09759393391724
C          105.94983162488229      103.57553280981492      104.12049349034722
H          106.43494511102411      103.88707620857441      102.05372207206447
H          105.30654909251102      105.07617123178414      102.70992497795584
C          104.99595882801262      104.05624869812245      105.21334507372904
H          105.99616769192053      102.48507903159141      104.14904855120629
H          106.94661691402696      103.94923127099960      104.34726337112438
C          105.11465155754566      105.54573839496216      105.53300374606150
H          103.96706710206725      103.83139340765646      104.93636383822860
H          105.22496417373179      103.49428068334727      106.12005435052619
C          104.35669751949156      105.88285969802230      106.81166790838391
H          106.16530163655942      105.80932275541423      105.66575113558258
H          104.71615662531015      106.14993119605347      104.71668168629678
N          104.53763935563943      107.27436768387983      107.16963957601037
H          103.28466894680615      105.69090435256707      106.69446460013640
H          104.71247632119095      105.24828816713968      107.63475853450014