3258
 energy: -3427.571397704987 gnorm: 0.000832639804 xtb: 6.6.1 (8d0f1dd)
C          108.10474049178958      111.79292332570886      110.15989014837648
C          108.52878664660516      111.97054896783732      108.70907370210790
C          107.41906988583294      112.55749206032554      107.84169216808118
C          107.85272471508630      112.66582376295123      106.38321005211326
C          106.75693567543917      113.20160419506938      105.46625441518469
C          107.18308685530853      113.14325656320247      104.00193491497089
C          106.11209532079241      113.66044589022439      103.04572538889451
C          106.53824377444010      113.50139676133615      101.58916098946906
C          105.49729787836507      114.02079941386408      100.60204837520349
C          105.90021665725547      113.73696731905417       99.15739045742338
C          104.88713955171514      114.28483840157470       98.15656917520246
C          105.09349543108691      113.77347305713593       96.73019463318644
C          106.43773671311666      114.12636370225223       96.09218416514209
C          106.60181310728976      115.62166537376967       95.83160029328114
C          107.91966797805320      115.97528047944810       95.12919791485874
C          109.01656487499527      116.48415097659399       96.06561167573193
C          109.57391072240506      115.43865773035789       97.02738889150955
C          110.75157238717860      115.99207283472423       97.82708949768013
C          111.37981553651497      114.95302762068641       98.75199232760268
C          112.53654900167503      115.53407882578848       99.56115985203090
C          113.21975810796353      114.49381464185220      100.44537207521780
C          114.33978751145357      115.10478055380997      101.28293542130432
C          115.06245232956047      114.07821651251700      102.15178097126031
C          116.14574369440072      114.72910424006960      103.00793094603875
C          116.91689747570049      113.72676966084948      103.86235045218982
C          117.95273882403382      114.41626737786819      104.74630922748607
C          118.73400074456991      113.44111360333277      105.62280263892583
C          119.71821714428312      114.16519746828126      106.53819813200630
C          120.43959053446594      113.22068179290235      107.49531959239047
C          121.35856744315527      113.96648004396074      108.46042911555176
C          121.87713189400948      113.06412794255147      109.57652914856196
C          122.83348334923910      113.78997226913584      110.51946208769348
C          123.15122325347396      112.96057041789209      111.76043288188608
C          124.13697034906333      113.65681572438014      112.69479495120711
C          124.27730702375908      112.92322371430647      114.02559632294250
C          125.22423844409357      113.64487119932791      114.97915894566044
C          125.27980687019945      113.01101934379878      116.36890652675594
C          124.01971691865297      113.24976368701820      117.19918434362852
C          124.21962384132610      112.82000816184222      118.64990697901027
C          122.97343309459079      113.02108795733126      119.50910768030563
C          123.25652663438302      112.70833351128758      120.97645408931899
C          121.99976847592903      112.71947246301013      121.84346524147509
C          122.33769929799914      112.45643426042960      123.30980584640247
C          121.11927423589979      112.19090037075306      124.19269342678797
C          120.14781851577072      113.36480444574065      124.28928412580659
C          119.07403935998504      113.11282211960176      125.34662139137720
C          118.05392338510138      114.24531858316256      125.41884195956065
C          116.97225180870724      113.99585401222571      126.46755940631932
C          115.96546762558935      115.14322940124208      126.51984774932332
C          114.83014488081783      114.88219328879441      127.50842330113200
C          113.95142413330962      116.11088187940291      127.75225539621931
C          113.16106022295401      116.55115910469752      126.52158081919012
C          112.32123246523717      117.79586379616205      126.80442787364980
C          111.46235911095911      118.23229971154780      125.61604260890653
C          112.27897331827705      118.76287191806573      124.43872769581694
C          111.38069539736588      119.18795894954633      123.27866976962561
C          112.14443511443335      119.63864753315310      122.03092083459950
C          112.99230326877390      118.52303142484807      121.42484573221330
C          113.55752315837087      118.85831481323757      120.04657442725841
C          114.43175466013940      117.71115548239618      119.54162541009326
C          114.93786009762299      117.87952369139032      118.11165373403631
C          115.98364523138751      118.97879555404687      117.94570679804353
C          116.47674057601766      119.05387882205450      116.50273006112370
C          117.34815303934614      120.27763821895539      116.23770659357531
C          117.76772180556088      120.36523624455080      114.77312053947914
C          118.58430181323014      121.62066248697781      114.47941689345964
C          118.98784654525201      121.74286371313364      113.00931008812634
C          117.82321123954657      122.12368589940549      112.09974224704455
C          118.24746172920972      122.24870181498652      110.63890199919523
C          117.06716663232768      122.61277455812363      109.74375729747335
C          117.45019445208699      122.71754678225442      108.27008424848852
C          116.24136520489058      123.06628600480913      107.40730982108089
C          116.57096469320565      123.14875915376533      105.91938912117558
C          115.33128049143986      123.48966421510335      105.09785176625526
C          115.60008899128219      123.53827663144963      103.59652761356911
C          114.33318926167010      123.89025405410922      102.82284695321700
C          114.53885365768194      123.91313169801136      101.31106454795568
C          113.25329703052118      124.30550565932398      100.58956795576333
C          113.40228138582987      124.34939599712035       99.07169197385171
C          112.10418754514038      124.80144288355676       98.40918507211148
C          112.21040494044217      124.92426044792074       96.89253933930382
C          110.89435424574751      125.40355372825813       96.28638603342603
C          110.94938554064558      125.55502230640936       94.76884417926009
C          109.64331778602465      126.13201134177072       94.22675783769883
C          109.66049472109157      126.38672355478853       92.71945657195779
C          109.67222500347067      125.12240390051615       91.85883118787135
C          108.39593754984841      124.29258034488822       91.99706490424185
C          108.24767752716370      123.23673488505085       90.90146450449640
C          109.30670763357395      122.13999163664296       90.97397967299993
C          109.09365192562262      121.07922439036311       89.89611142220154
C          110.12263307852052      119.94915848551172       89.95473594209294
C          109.90784575968480      119.01612642899795       91.14293488649618
C          110.93828832206714      117.89218917981331       91.19657997049903
C          110.70089592052562      116.98398160562913       92.40005571014331
C          111.68996899370262      115.82289912156894       92.49261555167604
C          113.10727618997892      116.22206901841326       92.90791357165701
C          113.20723352173017      116.62170420686135       94.37754485010440
C          114.64601761271041      116.90694621365402       94.80050252370081
C          114.75195420155178      117.24738973768174       96.28476086303715
C          116.19920065162276      117.35989650472591       96.75599379081194
C          116.29610961057544      117.60564102244957       98.25919428147955
C          117.73903558049679      117.61050548213586       98.75685545730150
C          117.81955162271039      117.75772854013131      100.27369114162862
C          119.25642435921709      117.74696015802172      100.78920283382872
C          119.30879120973424      117.79588972488544      102.31370798203710
C          120.73417796358001      117.82960888698608      102.85976230531020
C          120.74627635925054      117.76381233824532      104.38483571667396
C          122.14692696860925      117.87711565224851      104.98216973967914
C          122.11746497584947      117.67251042125029      106.49506204905117
C          123.47201190561533      117.89492043011944      107.16363965031447
C          123.41334278286345      117.54905725715305      108.65015664022339
C          124.69286523099080      117.90368916386919      109.40327598065157
C          124.62963861361905      117.43750609029748      110.85669750268056
C          125.81444265945380      117.92449361659905      111.68650532392441
C          125.77368954789463      117.37814086258547      113.11284325934621
C          126.88760223701561      117.96367996186329      113.97839257025414
C          127.04449642365695      117.26672473478808      115.33067496580030
C          125.86367339367247      117.47567608810930      116.27614089887719
C          126.11907816267528      116.83841387498292      117.64031639805802
C          124.95062301943707      117.03530232340653      118.59763180930322
H          126.29950163276628      115.76980353992660      117.50620664882867
H          127.02195204383449      117.27288170071169      118.07732357213021
H          125.68525271289602      118.54621702155077      116.40295452361566
H          124.96196166769123      117.03858221016550      115.84390289228131
H          127.18778588182346      116.19590760375272      115.16733072270418
H          127.94819665167536      117.64795840345455      115.81438945639276
H          127.83260489028640      117.87518258297732      113.43521647007725
H          126.70085579112413      119.02860521482467      114.13893672334690
H          124.80228370796797      117.60900897188155      113.55469758188464
H          125.87475886885392      116.29121886103134      113.08175971803874
H          126.74776869383923      117.61456199717591      111.20857891598362
H          125.81195896295422      119.01769904649996      111.71594546807070
H          123.70496427153985      117.80304711793576      111.30898610209570
H          124.59637370998472      116.34620417576839      110.88286756561720
H          125.55253939112622      117.44287921591607      108.90870604824822
H          124.84470158055142      118.98638261566263      109.37256667045662
H          122.57688091345962      118.08327380776620      109.10571542577256
H          123.21778353456483      116.48015657716222      108.76094664396634
H          124.23188021266849      117.28002591443429      106.67311993788218
H          123.77273262539434      118.93930918425259      107.04054102517091
H          121.39095264262615      118.36024413608374      106.93285156381181
H          121.77658392707104      116.65691192801235      106.70992679098076
H          122.80403296036231      117.13257747800891      104.52415598680528
H          122.56349448250795      118.86176218499541      104.75167783699401
H          120.12524328495063      118.56888509314398      104.78276469395139
H          120.29877157273476      116.81872260012199      104.70251112762726
H          121.30180433596253      116.98793308738556      102.45347657537316
H          121.22986127415651      118.74602378183110      102.52744703850037
H          118.77166743091210      118.67929856224690      102.66441429602195
H          118.79364725919480      116.91923101260535      102.71483296489902
H          119.76132164137123      116.84290216453476      100.43810351436504
H          119.79690660016772      118.60325295735643      100.37661618823985
H          117.33647015497488      118.68963194556930      100.57386934255800
H          117.26750794205851      116.93726439996438      100.73977496104649
H          118.22430691487642      116.67654799876247       98.46057678388189
H          118.28556621376001      118.42875118364685       98.28054676863633
H          115.82393611633586      118.55922821155586       98.50472589876455
H          115.74358290528903      116.82020198003643       98.78181904771711
H          116.72549215864828      116.43312076198670       96.51182725888142
H          116.69683473340639      118.17155935725170       96.21910233705667
H          114.23071899515992      118.18673302891219       96.48500946295817
H          114.25328649295584      116.46364431563930       96.86100219023527
H          115.25937386712103      116.02569449762223       94.59325638931193
H          115.04644809817975      117.73202095541789       94.20547544586339
H          112.59715326539305      117.50729251471181       94.56079475536566
H          112.81047776531724      115.81023059696000       94.99184457901001
H          113.77081830162069      115.37004837944335       92.73410103869404
H          113.46425231648091      117.04143370733377       92.28097248678182
H          111.31036935948175      115.10097898156326       93.21767464789889
H          111.73160647516258      115.32317586287799       91.52085661296330
H          110.74445100089036      117.57968748245459       93.31327232596725
H          109.69032402845663      116.57361602908371       92.32960829343055
H          110.88327794768300      117.30170578113312       90.27814635168919
H          111.93883013570064      118.32728834107145       91.24711902495265
H          109.96488185828620      119.58647911649388       92.07179202308255
H          108.90643559079163      118.58283369909866       91.08131280538679
H          110.06051466202669      119.36374288998606       89.03360230747853
H          111.12713962911791      120.37738336983578       90.00411821466950
H          108.09106402349813      120.65559675647401       89.99483855173072
H          109.15077248851057      121.56203784127918       88.91695805365599
H          110.29988525469571      122.57527680898812       90.84778922951902
H          109.26668243752859      121.67904931306927       91.96230812106644
H          107.26132361208394      122.77387972704720       90.99060774578510
H          108.29437571623698      123.72195058116328       89.92285578574302
H          108.37751899465071      123.79757875985584       92.96927257642962
H          107.53486647490404      124.96479356896438       91.95026107862634
H          109.78103532993117      125.42395471652262       90.81339241347929
H          110.54131600526890      124.51628888614681       92.11615859433708
H          108.77863813319667      126.97707472863027       92.45597769120134
H          110.54082494690175      126.98741748755353       92.47503279231040
H          108.81966095824313      125.46070765078723       94.47456881695240
H          109.45082911165618      127.08235370116978       94.73170532733235
H          111.77567736782892      126.21838654719222       94.49957422681489
H          111.14548350313559      124.58101883222311       94.31776776991052
H          110.10321354630651      124.69548773322762       96.54574860201416
H          110.63012328078916      126.36646898572707       96.73097266072683
H          113.00685759653686      125.62852865920104       96.63761262614008
H          112.47954480851901      123.95466622972286       96.46773444789660
H          111.31236102209074      124.08876767745311       98.65439801847916
H          111.81236071878635      125.77053057812991       98.82202290058343
H          114.20639801803938      125.04071159936440       98.80464695737955
H          113.67799569729242      123.35896495678094       98.70226373552681
H          112.46630768740371      123.59268504385918      100.84959653694715
H          112.93219639545512      125.28874219453799      100.94365635137061
H          115.32787618547660      124.62779286411205      101.06150882359893
H          114.86317337062474      122.92735011977203      100.97125846763340
H          113.55454455772988      123.16177342821196      103.06469312108993
H          113.97418848360338      124.86973488305628      103.15006169438020
H          116.37306502132503      124.28257957356746      103.38775814873969
H          115.97435831826776      122.56895452307766      103.26103506704619
H          114.55758065574301      122.74278019900694      105.29585685866627
H          114.93963649346232      124.45720285561008      105.42327752384134
H          117.33826836117926      123.90986729966301      105.75657987784135
H          116.97811973410077      122.19303189876146      105.58289736642124
H          115.46786242514690      122.30851723285822      107.55941890871094
H          115.82903935932111      124.02358992734395      107.73768940359139
H          118.22204072118687      123.48116767029357      108.14613709967371
H          117.87187534907109      121.76702608869553      107.93595892029151
H          116.28879092078039      121.85348642981485      109.85755651368682
H          116.64481514119986      123.56552019142961      110.07471357874117
H          119.02599792587598      123.01020148442390      110.54717367725631
H          118.67547682007499      121.30050081448550      110.30456016807281
H          117.03766883867547      121.36952134615926      112.17363029682119
H          117.40059501468357      123.07461656976614      112.43511748151258
H          119.76890074064067      122.50186868083168      112.91622968654359
H          119.41116325163763      120.79356262123153      112.67200793785787
H          118.00736451850258      122.50340596984005      114.76755405129440
H          119.48602296709784      121.60255237068935      115.09537794223294
H          118.35925362408727      119.48317930988824      114.51441302698328
H          116.87269951629158      120.35420255584386      114.14859702242376
H          116.78984059461442      121.17905179806480      116.50368893074614
H          118.23721720152045      120.24050139878285      116.87136631320884
H          117.03910552445571      118.14774731664667      116.26597530808820
H          115.61379676063761      119.08518325809391      115.83308814551887
H          115.55603592315187      119.94265037248135      118.23008270652285
H          116.82863533075890      118.78433075114746      118.61060120884464
H          115.37909845820968      116.93363961392483      117.78800475519652
H          114.08952051012206      118.09165379577337      117.45464115933679
H          115.28773120129085      117.59429423814800      120.21041566765730
H          113.84807679320369      116.78838753621676      119.59389353528938
H          112.73577505214610      119.02902264294065      119.34686878617237
H          114.14176409972151      119.77894146633574      120.10678021788473
H          113.82564808689770      118.29841047895798      122.09404717792228
H          112.37920391377077      117.62281267043819      121.34012218536796
H          111.41742723836944      119.97436090981067      121.28663227322319
H          112.78136200525527      120.49142197234815      122.27919216537974
H          110.73538598131115      118.34734567133800      123.01099466318119
H          110.73145344461382      120.00287676265391      123.61041064301443
H          112.88163837076866      119.61404987761470      124.76543633546615
H          112.95856269292621      117.98161017557146      124.10030286507133
H          110.86237363395237      117.38257357485267      125.28132011739775
H          110.77241036003414      119.01286692425280      125.94808019125740
H          111.66401367839357      117.59025550597210      127.65386754143682
H          112.98118205698151      118.61786249119902      127.09373393171695
H          113.85285047282918      116.76026464247143      125.70642423513510
H          112.50413186120423      115.73809866120961      126.20411391769800
H          113.25018077811049      115.88746103163746      128.56109004998444
H          114.58234906295620      116.93850698057800      128.08738267070021
H          114.21218977254107      114.05904056516057      127.14254038106741
H          115.26190668207774      114.57112572725171      128.46380522945407
H          116.48540368830659      116.06171736895310      126.80490769972116
H          115.55377184901451      115.29465096212962      125.52012978792717
H          116.45159745158894      113.06464712107268      126.23394112346227
H          117.43836846325816      113.87663369434397      127.44937419613764
H          118.56814370891102      115.18326805026287      125.64584586172879
H          117.57896726710000      114.36111492487655      124.44144835700165
H          118.55829231867018      112.17777438009595      125.11942469300908
H          119.55189202545681      112.99621173397209      126.32296397043453
H          120.69884243054018      114.27456855367812      124.54285989295516
H          119.66743308647553      113.52609123173431      123.32239501809300
H          120.58587615306615      111.31644476283098      123.81582081088224
H          121.47441399264216      111.94852015106802      125.19715400786323
H          122.99408431419376      111.58327404899228      123.36673862448637
H          122.89494642319221      113.30873112111034      123.70772945924574
H          121.50166967925634      113.68501147531785      121.74459793379201
H          121.30881157738142      111.95174964457391      121.48682217298006
H          123.72824267488392      111.72482550619144      121.04511702693129
H          123.96924174708869      113.43928273481087      121.36748929387593
H          122.62773692867232      114.05407164782764      119.41863227619484
H          122.17431386430761      112.36957911011909      119.14677690504759
H          124.50430681816519      111.76467148062557      118.67709370936871
H          125.04455815106797      113.39381038160930      119.08123497183212
H          123.76798334992733      114.31260633238976      117.17232963242283
H          123.18161032133344      112.69734928036738      116.77172182071941
H          125.44733674726264      111.93584580517484      116.27128226474247
H          126.13583126481002      113.42693782296298      116.90841817188132
H          126.22926441629846      113.64367820900313      114.54635357627681
H          124.91152758756947      114.68696193454359      115.07650295256785
H          123.29259338587369      112.84235362865229      114.48914045410680
H          124.64816303664857      111.91069547357219      113.84753484999315
H          125.11446181484128      113.72950289010107      112.20978373080527
H          123.79193101978078      114.67566615927642      112.88870357030454
H          122.22128494372909      112.77257810855269      112.30441102048482
H          123.56074468541112      111.99333721470458      111.45976549815235
H          123.75919675776701      114.02892463152995      109.99064001129744
H          122.38034962592640      114.73400098522006      110.83229085273365
H          121.02448462443455      112.69521600060364      110.15288428735585
H          122.38430977300447      112.19850011560482      109.14378801880699
H          122.20233754943915      114.38837161945477      107.90979259493621
H          120.80612887490409      114.79588650417632      108.90924338404002
H          119.69660899788327      112.66807423578186      108.07365127708373
H          121.02254216342989      112.49291990093867      106.92433577439903
H          120.45557434979823      114.69553335550374      105.93100820765646
H          119.17121678891282      114.90953124956403      107.12223604097852
H          118.03414278390167      112.86701699590907      106.23378905810766
H          119.27627478978759      112.73506570915958      104.98794860473838
H          118.65405906081799      114.96760909869329      104.11464271409143
H          117.44409307783948      115.14094189234532      105.38657837856918
H          116.21691317708344      113.17462095495317      104.49338065216006
H          117.41480593075440      113.00402881009029      103.21153648257095
H          116.84951749655681      115.25362060914362      102.35586889766336
H          115.68264436930585      115.47424216329392      103.65883894512844
H          114.33835784797350      113.58295632158632      102.80383385608832
H          115.51102482690764      113.31331011840668      101.51323970363251
H          115.06628948199372      115.58099834803910      100.61850121408470
H          113.92087202781629      115.88533028109947      101.92179620518993
H          112.47792268946559      114.04785758989223      101.11084993931833
H          113.62814969961121      113.69654492916992       99.81841631322160
H          113.27400164373556      115.96374981525618       98.87749318824598
H          112.16149626811877      116.34741547768203      100.18595764994181
H          110.61919014167933      114.57263626520513       99.43696066498381
H          111.73962993470337      114.10960126005156       98.15667334408199
H          111.51199452620369      116.36310647795113       97.13465560110775
H          110.41062862294790      116.84289118488633       98.42119549385534
H          108.79380231568263      115.11734391434815       97.71927735709676
H          109.89800101220889      114.56178435820109       96.46061143799423
H          109.83970659939639      116.86002342987035       95.45243355208370
H          108.62707354691396      117.32783674879347       96.64115729770290
H          108.28846016939829      115.10426989887237       94.58166312996099
H          107.72979867580692      116.75989184132457       94.39172186975703
H          105.76317464978281      115.95029215489288       95.21190847397730
H          106.54558898102255      116.17132530223994       96.77208024764330
H          107.25227014689088      113.76263736220210       96.71731392524376
H          106.50738950466832      113.59846430060577       95.13605555589123
H          104.99087040643465      112.68406212127886       96.73705506565865
H          104.29280169634158      114.17335788898264       96.10073943247613
H          103.88559535165901      113.98612873077290       98.47655917922894
H          104.91530284355338      115.37592707997759       98.16899221439789
H          106.88108046555062      114.17893087818730       98.96939631946904
H          105.99149464417233      112.65691080312381       99.02139458560067
H          104.53523347541281      113.54523605522871      100.80681250149580
H          105.36807445114189      115.09689441456338      100.73946209981554
H          107.48172718848301      114.02924020448398      101.43223203844282
H          106.72215605183428      112.44269175067036      101.38697349544493
H          105.18130734396129      113.11091213117217      103.21172322656152
H          105.90974494697865      114.71391867253307      103.25602613300485
H          108.09850899491822      113.72490170109407      103.86728795970163
H          107.41780797070081      112.10738663707478      103.74458359732577
H          105.85078762401761      112.60550919123718      105.60081729638794
H          106.51778519519029      114.23197090214707      105.74145579771717
H          108.73178265530271      113.31163228606552      106.31482298532681
H          108.15221988777513      111.67464803060018      106.03123041890998
H          106.53376507380756      111.91897617356406      107.90926221735553
H          107.13826497895062      113.54448291791745      108.21766681183333
H          109.40478584420327      112.62134191493800      108.66099690519577
H          108.81448995134092      110.99855516184566      108.30171182995777
H          108.91694642915837      111.36713335106310      110.74600217193820
H          107.83021619965928      112.74954964508797      110.59931814660399
H          107.24733570504544      111.12771993975149      110.23175835323319
H          124.04483364720930      116.58996165587972      118.19336409052440
H          125.15979465301805      116.57138595148699      119.55893140819765
H          124.76534808798245      118.09497858201523      118.76069598607718
C          105.59642117660323      100.42001677780817      125.49572012030019
C          107.03033493779328      100.63161147309427      125.02872878611475
C          107.99826439747386       99.63136656782729      125.65334160672795
C          109.42752949690392       99.82801527671468      125.15439482136959
C          110.39686601650185       98.83072584925783      125.78274769645117
C          111.82825986492553       99.02819364001887      125.29092233192874
C          112.78861834632775       98.01906133289422      125.91752170309422
C          114.26058010993916       98.32469096199378      125.63956439919635
C          114.64538392018565       98.20192176094422      124.16765726792762
C          116.12411252437114       98.51194246206056      123.95293072058645
C          116.56597123938971       98.41676575319438      122.49277465253397
C          115.91506901691652       99.46695407614143      121.59381326852854
C          116.61635354870037       99.57979936084645      120.24349490172884
C          115.94332306395415      100.59690122451997      119.32739414474267
C          116.74608260068491      100.83710064983303      118.05235560843393
C          116.10437212775831      101.90557258464536      117.17173054589803
C          117.00027057069357      102.37368220775318      116.02686907161835
C          117.33462900395392      101.27224149540861      115.02417232239760
C          117.99702274679797      101.83712688402699      113.77177237050462
C          118.36114324175232      100.75401644718204      112.76146569077709
C          118.96647114077676      101.34499415233327      111.49149975093984