3536
 energy: -3716.258914887171 gnorm: 0.000945608543 xtb: 6.6.1 (8d0f1dd)
C           45.44222431549366       52.96647803248612       53.16299077406385
C           46.70616610095310       52.41197404036296       52.50657286401237
C           47.41520569839560       51.46248429492872       53.46719023729440
C           47.60803765082542       53.57993523624575       52.09586374943287
C           48.86498404458643       53.25157245542668       51.27685577571424
C           49.60699129550348       54.55982801122008       51.00886611047979
C           48.49612171370551       52.54036586145776       49.97122990834205
C           49.63604153925709       52.26384258116189       48.97658022507572
C           49.03260212480899       51.50603335504506       47.79341621804356
C           50.77441259639177       51.48662653120376       49.65311132375139
C           51.80701133325768       50.81421660174892       48.73486875015369
C           52.80896808112505       50.05626869748598       49.60617343611707
C           52.52205316462069       51.82271931623745       47.82740144124308
C           53.51838611074720       51.22596832374308       46.81627773939860
C           54.20097883222272       52.36353464443116       46.05595540739541
C           52.80396243703902       50.27391418180717       45.85136151327605
C           53.65891996675970       49.60717043796097       44.76529425528173
C           52.74626192403218       48.76786224462968       43.87176536680894
C           54.84055262641808       48.79095948225073       45.31226275082192
C           54.50469044557666       47.61074160992728       46.24405553329444
C           55.52994332339785       47.55669905211248       47.37763552542773
C           54.50131349913314       46.27162355176335       45.49168291875726
C           53.75281460327341       45.14110549551813       46.21830028286483
C           54.31269899059907       43.79554030319584       45.75516498638644
C           52.23390157179480       45.22972001519627       45.97455120144055
C           51.36331590928075       44.98815710836164       47.21371998717855
C           51.59168051455092       43.59481756390367       47.79947415161251
C           49.86639996646171       45.13968653670733       46.89568022125486
C           49.41580207360179       46.48672912987134       46.31586208253501
C           49.87975433141136       47.65370346807559       47.18615253113571
C           47.88425264127431       46.56187689981802       46.18900833046880
C           47.21633404236064       45.43506273059045       45.39473629393217
C           47.81530774959656       45.31431223870578       43.99232926084662
C           45.70472030225930       45.66506097927623       45.24685215473505
C           44.86920763935834       45.82084708679349       46.52786285963641
C           45.15889296846494       44.72053604704889       47.54558304925420
C           43.38730007402166       45.78956590521819       46.11870048373226
C           42.37697718893006       46.36656850374105       47.12354958973940
C           40.97551453831152       45.91728628658048       46.71036400432324
C           42.49502206640427       47.89601156540647       47.16287970386044
C           41.39330560645375       48.67966359805586       47.89228575376833
C           41.71097658995928       50.16993137047088       47.75920575674468
C           41.27830050570474       48.26707951265799       49.36310095356230
C           40.10535271814374       48.89462677048461       50.12929955477169
C           40.31652867341148       48.68638833049729       51.62834824598603
C           38.75158727871101       48.30771889016726       49.70579926939842
C           37.57499550947666       49.26377953714410       49.96060764887647
C           36.27887207066277       48.47403746220339       50.13146861470641
C           37.44713967641538       50.26756088847075       48.80749125702382
C           36.67176265302101       51.54773508754320       49.14331771868619
C           36.41515222435360       52.33036152793201       47.85468803961842
C           37.42374991692842       52.41736685959286       50.16843115818556
C           36.73886094642877       52.51909348473087       51.53661770910826
C           35.51757768085729       53.43325762765973       51.44969207158557
C           37.71261259678054       53.06058605540223       52.59360211256744
C           38.75399469797474       52.04591116656989       53.07885338842482
C           38.10182250414972       50.98314416726158       53.96622240972007
C           39.87263917101841       52.71530037039263       53.88743085635622
C           40.73674677008799       53.76605437037764       53.17769019445686
C           41.32664204595549       53.22110954019101       51.87774534504990
C           41.87605727033004       54.20958908658891       54.10889354487269
C           41.43285018037678       55.07962880816967       55.29487261610569
C           41.45002384294096       56.55781440054988       54.90484841533087
C           42.32634497207167       54.85815374345538       56.52290172885046
C           42.17414157721912       53.50108188321819       57.22253081598772
C           40.75155333744756       53.28522055876269       57.74020409299759
C           43.12657834073480       53.39148122639466       58.42178416664629
C           44.62798831986805       53.45982084195528       58.12784071413087
C           45.06517135710352       52.32034559431522       57.20795886186674
C           45.43722800779510       53.36972996748547       59.42921034702025
C           45.23479062091256       54.50025036807269       60.44659696750652
C           45.74469464897908       55.82512764921903       59.88980719688810
C           45.95411724501457       54.11938097749049       61.74845220808378
C           45.81525410420270       55.10031765198713       62.92259491433737
C           46.63095278881506       54.57065826809736       64.10223849015138
C           44.34348569495481       55.28756407327034       63.30495978357911
C           44.04521539703252       56.23345828400784       64.47702337850210
C           42.54571088651170       56.16305047554131       64.76641779364570
C           44.50613227709358       57.66324059989332       64.16458897577935
C           44.23235043706526       58.68569215743236       65.28213160238725
C           42.99325555399679       59.52512819503598       64.96158231617832
C           45.40998721023006       59.64856352797327       65.49694742402110
C           46.72637391977477       59.04606547119210       66.00754047717014
C           46.50858198411124       58.13403937110974       67.21500547163035
C           47.70497934214916       60.16050717523949       66.41419777258145
C           48.12995707662164       61.12332959427417       65.29922049570642
C           48.96089934754220       60.41296915764406       64.23452415895824
C           48.86918121385236       62.34442956506798       65.86878793325957
C           50.22189791532077       62.05328653795843       66.51422009630421
C           50.84489255072283       63.32475861758000       67.07716151215000
H           45.69701419649974       53.53732226999674       54.05347331865357
H           44.90736017901836       53.62009360351547       52.47834736720468
H           44.77583029760932       52.15605431313493       53.44968973884871
H           51.80912867664712       63.10942408513208       67.53305973022732
H           50.99877668542672       64.06068417866169       66.29048304464158
H           50.19754817709878       63.76775929068753       67.83081645227675
H           49.02028966575030       63.06185717098133       65.05766520807842
H           48.22484565916248       62.82584676609235       66.60936358786711
H           47.24296727405596       60.73957231481955       67.21828565916574
H           48.60041906207940       59.68845012164161       66.82496661770020
H           47.18850022171848       58.44879272603200       65.21565848393341
H           45.94434717562613       57.24721821297916       66.94113192649102
H           47.46606580052519       57.80922760026747       67.61777161767061
H           45.96948478570767       58.66117180945530       67.99937390308101
H           45.59949299499115       60.15500775678404       64.54789833398195
H           45.09029105748569       60.40738729693118       66.21632947232108
H           45.57817838965351       57.63423367348554       63.97184548103287
H           44.01956834267837       57.99572258958347       63.24552625833122
H           47.22814514936012       61.51621268585185       64.81789149166093
H           48.34843714320736       59.70332458889224       63.68683559390164
H           49.36278698380799       61.13213920146807       63.52449448162942
H           49.78779471535978       59.86810225329656       64.68302418102128
H           44.04600916181568       58.15229773751709       66.21749917723457
H           42.74826659657126       60.18210851022828       65.79400545950593
H           43.17620237923440       60.14424947398239       64.08482160487205
H           42.13166085512965       58.89567716273993       64.76050247308720
H           44.57593030253282       55.88088133257198       65.36697510205892
H           42.28375039833633       56.74508188803130       65.64533695696979
H           41.97821563315343       56.53555482958448       63.91602488939836
H           42.24648125837975       55.13219220190305       64.94733928719778
H           43.79758797884691       55.66733157545923       62.43932839407756
H           43.93177935991503       54.30443694666029       63.54868794346113
H           46.23662766623037       56.06139621471753       62.61923956716467
H           47.63977350071680       54.31626793866072       63.78336076862231
H           46.70776926972967       55.31292043964644       64.89210843529493
H           46.16698713533516       53.67633283173053       64.51340416090892
H           45.58038828842010       53.14632374583751       62.07535582607852
H           47.01884005437896       54.00060676829279       61.52802853282547
H           44.16694079451059       54.59245414267256       60.65763493238084
H           45.23178456354579       56.07763276929563       58.96554113235718
H           45.58379335724469       56.63550029363090       60.59596846380622
H           46.80984302741643       55.75458600895818       59.68080982471484
H           45.19267341310201       52.41869859437522       59.90985487694326
H           46.49742871236923       53.33982594133091       59.16621662657918
H           44.86062568580044       54.40870897600529       57.63830026936773
H           44.78644681566919       51.36248550959448       57.64008963282657
H           44.60365673044495       52.40647462568805       56.22829207592088
H           46.14540075956268       52.32720685299865       57.07557452780644
H           42.86402996627721       54.19249547158429       59.11543119969546
H           42.93040550726599       52.44130934519642       58.92659473961355
H           42.39997241846811       52.69998340631155       56.51389756602278
H           40.69664281258545       52.36564661380299       58.32009931569416
H           40.45439403919434       54.10879817578120       58.38613134638457
H           40.03797421421136       53.20154724852863       56.92636828653118
H           43.36412238262919       54.98236100751621       56.20662099022180
H           42.11248399253586       55.64124241165330       57.25509632676383
H           40.40533938965422       54.83173676249839       55.56219214079456
H           42.46540149132051       56.88901071460304       54.69463907752942
H           40.84426962490936       56.72606823959648       54.01783561670635
H           41.04907444916234       57.17090222706210       55.70995647617579
H           42.37998145578928       53.31315491858243       54.47250650147338
H           42.61126832921537       54.77127061543164       53.52746728147635
H           40.12321459195370       54.64171372396316       52.94227803320219
H           41.86591447589932       52.29478154985333       52.06438250212604
H           40.54819834198721       53.03109714720601       51.14424363861768
H           42.02222996184911       53.93883117494541       51.44676506172338
H           39.40909950987999       53.17634124313643       54.76098135267387
H           40.53832913008799       51.92685724464114       54.24889877984999
H           39.20036926398935       51.54229295347850       52.21825280105191
H           37.33397045975480       50.43206572361319       53.42944751454448
H           38.84412620411241       50.26891984722906       54.31808318963078
H           37.63937437725033       51.44720876432674       54.83560343486342
H           38.21811019494286       53.92884269332615       52.16773327010014
H           37.14423120645534       53.40711931378141       53.46013988575393
H           36.39711160836708       51.52479905827289       51.83777584207651
H           34.83233767875292       53.09513974904541       50.67624812275870
H           34.98011643231178       53.44853819012513       52.39564155808809
H           35.82434652067783       54.45013485365609       51.21306373469266
H           38.42905197887698       52.01598628121955       50.30035921639270
H           37.53661583927252       53.42936612953692       49.77628909729553
H           35.70111227448211       51.26316966103346       49.56011368420836
H           35.85512411953808       53.23951154313924       48.06237948463047
H           37.35661221980373       52.60503705637721       47.38348746278108
H           35.84234676133619       51.73160866894473       47.14928395958877
H           38.44363381660777       50.55522412279684       48.46397850317511
H           36.95011209923506       49.76590728790043       47.97410158231711
H           37.76674058622913       49.80910444264799       50.88801431470776
H           36.34364664789418       47.81258408374205       50.99312654325595
H           35.43354822484667       49.14174053385394       50.28056164410008
H           36.08376411163423       47.86861494722225       49.24821542426150
H           38.76235377357391       48.05303110036791       48.64449576416864
H           38.59167866972774       47.37858824178918       50.25754225629918
H           40.09822454651277       49.97134403537695       49.93953598163935
H           41.20978011928435       49.20762857163088       51.96389504760684
H           39.46807208722707       49.06028582316855       52.19441553169148
H           40.43299018224177       47.62784306317643       51.85153192198475
H           41.17989366215281       47.18213708397536       49.42842249325214
H           42.20777228527425       48.54498672855684       49.86675038412915
H           40.44215450715768       48.49239211467037       47.38652912325065
H           40.90643424053336       50.78639836945749       48.15113512662362
H           42.62327809225524       50.41553088876584       48.29901920621572
H           41.85385625271347       50.43437892488758       46.71434368957692
H           43.45390885283346       48.16268083627454       47.61296690469977
H           42.51179009510049       48.25067851148032       46.12888365173054
H           42.59173719135823       45.96138558438561       48.11698385780759
H           40.71652285211933       46.34117653811116       45.74278986835657
H           40.93559744050469       44.83277023353931       46.63054216647707
H           40.22870018289512       46.22515424864307       47.43668660426085
H           43.26900828221603       46.33296232093375       45.17788115663100
H           43.12370182210493       44.74761878850634       45.92029941352492
H           45.09851347244694       46.78899897780949       46.98104467636851
H           44.48522868969018       44.80375944057081       48.39526296309525
H           45.02052419716118       43.74041648966734       47.09365722941975
H           46.17733680365408       44.78535903201742       47.91874261284317
H           45.55374502548546       46.56091516316909       44.63810560304601
H           45.29868927153338       44.81854263427661       44.68567350735479
H           47.36928308327494       44.48749059679468       45.91789262510865
H           48.85809575105887       45.01258183039506       44.03065823309478
H           47.27271352353646       44.57141783323377       43.41119103293904
H           47.75333251492192       46.26720511031623       43.47072625247007
H           47.46308146887493       46.57979094642844       47.19614056051721
H           47.63052991268268       47.51212665665084       45.71133129150511
H           49.84840410145598       46.61088651698155       45.31892098199360
H           49.52205360857460       47.53519102165490       48.20721323878276
H           50.96372724119663       47.71780428388806       47.21385759609237
H           49.49293395718739       48.59124229797701       46.79194002719832
H           49.59624721690390       44.34714384206460       46.19567142097419
H           49.30932758795468       44.96396659039687       47.81938162919384
H           51.63615718812897       45.72414525212849       47.97722045100492
H           52.61071433923829       43.48001696941328       48.15908305190118
H           50.91973379321103       43.42054440573327       48.63675838112547
H           51.39819808617901       42.83068226983862       47.04927670716796
H           52.00411504214185       46.22519830840640       45.59644878672830
H           51.95078212067462       44.51657745164135       45.19685242750956
H           53.94079932524884       45.23762967503348       47.29193937943003
H           54.24295510538937       43.71290954591424       44.67196836159204
H           55.35994601375062       43.70282249696511       46.03780410091985
H           53.76836515189085       42.96581128610035       46.19656181052193
H           54.06012894128833       46.39615868275840       44.50242928588297
H           55.54015628335098       45.96932544141542       45.34552055665295
H           53.51768285640735       47.76705553836676       46.68652992060077
H           55.49937485674931       48.46840939261727       47.97066069599630
H           55.34006201753682       46.71621529297639       48.03945837548833
H           56.53410381349090       47.45137511232087       46.97105744428183
H           55.41240571923656       48.41302036650288       44.46033309872001
H           55.49607437728289       49.48098494332236       45.84556677410625
H           54.09212640436684       50.39478715825479       44.13881940931032
H           52.21157484582353       48.02269643229699       44.45466981351080
H           52.00823258009562       49.40040708710186       43.38360924905085
H           53.32120243083684       48.25972582994195       43.10180066986355
H           52.31656101227422       49.48914622552326       46.42849093705853
H           52.01542211492807       50.83924033877932       45.34754013061341
H           54.28557231496224       50.67372567603913       47.36458393940938
H           54.61888972336057       53.09099198148777       46.74848465535250
H           55.00913164622931       51.98937864071357       45.43317350277062
H           53.48556439888529       52.87469026679173       45.41482542301328
H           51.77730779502117       52.38900793203450       47.26753221683593
H           53.05850867630045       52.53214008763215       48.46365490268211
H           51.27590132660013       50.08541952287409       48.12049110760805
H           53.42928569464848       50.75159810015936       50.16894606700083
H           52.28777141442141       49.41510278859233       50.31329188571419
H           53.45607500957278       49.43010133293571       48.99851925170088
H           51.30550201406675       52.15886445750127       50.33064189792084
H           50.32664605677382       50.69810031004893       50.26303003282087
H           50.02538729155847       53.21701325235839       48.60812792081557
H           48.69253736807427       50.52214527398045       48.10961815439555
H           48.17406010275494       52.04852527811650       47.40163674744659
H           49.75023068930342       51.38482002258443       46.98738298863184
H           48.03921171041291       51.57911364268003       50.21615752292073
H           47.73766450161314       53.14069985060161       49.46062379401124
H           49.51342124044388       52.60050764052339       51.86989356092408
H           49.04724599228238       55.17841964700243       50.31100469599909
H           49.73299922516939       55.11947578131077       51.93183269752048
H           50.59222008983851       54.37290969701895       50.59255456940928
H           47.00724411057228       54.28677379420962       51.52040134728438
H           47.92611655769301       54.08802735226077       53.00995232395606
H           46.40429132010068       51.85466140162794       51.61451167257253
H           48.28371501240713       51.00704804046005       52.99939792539935
H           47.74441219059426       52.00491288759203       54.35128665600454
H           46.74229898481294       50.66777570510899       53.78392557664208
H           50.09833795310384       61.32928856244033       67.32152101513182
H           50.90039033093685       61.62462171372690       65.77503484206736
C           64.77802013560257       46.37458061210512       42.75528310504895
C           64.99864796405494       47.87691614399556       42.59474404957025
C           65.78534426301222       48.41487252485724       43.78849692126337
C           63.66506391039093       48.62560979867349       42.46155574596110
C           63.03001068281417       48.52881047141205       41.06883986872228
C           63.72649022300052       49.48811114396577       40.10151897104569
C           61.53077543507315       48.86103662127455       41.08810585286898
C           60.61881759955057       47.91900750697251       41.88773901579703
C           60.90124464690700       46.44947506212108       41.57551845881604
C           59.13974501700228       48.19716440205913       41.57138691639759
C           58.65110587497969       49.62821865294038       41.81628709489868
C           58.74583470418254       49.98959448280092       43.29900573038663
C           57.19518625756112       49.81042863492348       41.35996669927638
C           56.88496455919821       49.50989862176566       39.88680664152287
C           57.88189690791552       50.18304024288856       38.94307298758660
C           55.48038143051672       50.01253841637568       39.51613825161634
C           54.30788995757481       49.44421276182184       40.32202399640960
C           54.19462770480942       47.93114424371014       40.13683634762654
C           52.98194050068600       50.09825296685372       39.89920125068480
C           52.91119558673628       51.62105467528268       40.06427521260847
C           53.19540887784707       52.02380911032955       41.51160533823979
C           51.53536702554746       52.17306734787756       39.66261484452371
C           51.06725300771799       51.89851405765641       38.22649896119116
C           52.15989286660884       52.20014092635176       37.19981506468547
C           49.83831821990881       52.75952727528990       37.88512281895489
C           48.63706535946457       52.62904703358143       38.82653582205037
C           48.09000292084670       51.20170693001980       38.84029345660102
C           47.50142547291398       53.58873438301154       38.43656835559977
C           47.82823088674225       55.09155253961641       38.39989749668405
C           48.45144057094002       55.56924292536492       39.70681493268260
C           46.52367343507251       55.84758806319545       38.09747583677602
C           46.56468307141000       57.38281617258898       38.17227926960131
C           45.16268301202330       57.91208193050286       37.86966223830593
C           47.60101899721134       57.96413423632225       37.20554173439971
C           47.74920658053771       59.49392171089335       37.18032439010893
C           48.64821895011240       59.86258076484278       35.99627606933665
C           48.36273194913019       60.07773449662557       38.46661181245103
C           47.39603096017497       60.49782451092470       39.58257995060867
C           46.41472387873211       61.57099119919773       39.10767774009848
C           48.15960673748956       61.07908910898630       40.78597362847165
C           49.27057397142350       60.21736734898155       41.40011903920794
C           48.73085722334391       58.86745333058440       41.86252626246205
C           49.90737545303916       60.96773403293835       42.58154121957236
C           51.34783323403600       60.54359342905341       42.89748040678315
C           51.70916193060486       60.95718189054827       44.32402811401268
C           52.38432248163402       61.06990904704919       41.88822018401993
C           52.42081244063730       62.59443801187429       41.67242259880594
C           51.74774403832447       62.96443118339334       40.34885859084009
C           53.85881339297665       63.13322044306435       41.64350014605011
C           54.58308444252226       63.17073275877071       42.99338112054575
C           53.99276233238843       64.24993755417570       43.90049984584673
C           56.08044384006515       63.46406167757841       42.81500497515510
C           56.88594694974682       62.44262904989622       42.00666349301340
C           56.84648611528947       61.05514991735276       42.64722999738463
C           58.35377008133694       62.86967968619643       41.87108226593484
C           58.64074842315406       64.19503269296182       41.15255422964155
C           57.96438858852748       64.25652395610696       39.78415836812854
C           60.15938977958275       64.36628734801420       40.98341262438179
C           60.89502866659638       64.77129337121579       42.27071462653505
C           60.81692371065746       66.28408939529356       42.46434954570201
C           62.34892219227211       64.28408078185188       42.21079684339492
C           63.20157749029774       64.54853709725984       43.46048591793276
C           64.65451369587316       64.18469046660920       43.15438824376204
C           62.67688747743355       63.75295904260013       44.65886267920774
C           63.30427465208597       64.09738001599652       46.01577238929797
C           62.74552802523456       63.13381442607550       47.06230305968781
C           63.02686292442448       65.54904739869414       46.45158697379581
C           64.21577543014823       66.51182680620751       46.34465204897398
C           65.32827811264123       66.10935921795377       47.31440102853156
C           63.79209980000302       67.95027219820594       46.68266269717608
C           62.78821610950758       68.62568587767306       45.73790022352632
C           63.37319562861569       68.79432764935524       44.33675913769824
C           62.36464608025209       69.99356301478001       46.31644310883223
C           60.84719951725055       70.18370999933988       46.46809291933379
C           60.16302958312325       70.18747640778200       45.10300722119478
C           60.58545146384421       71.49420904539835       47.22430355804302
C           59.13259566546401       71.76588981612520       47.63975718391059
C           59.04491044537450       73.17052255232329       48.23872459496788
C           58.60349839567749       70.72104594169171       48.64078732667347
C           57.60151454564805       69.73038534623475       48.03419858969933
C           56.26305737893620       70.41331220981382       47.75860345275333
C           57.38942499493960       68.51564812213395       48.94982261082546
C           56.95107376671525       67.25810367652544       48.18415047389824
C           56.25364442168672       66.28090028331869       49.12849996158480
C           58.17061533708733       66.60220878300024       47.52048435332881
C           57.85694898749657       65.64607792895758       46.35781915852254
C           58.83823672471175       64.47232753635177       46.37600551682530
C           57.93859804638529       66.33298254795467       44.98862914557687
C           56.83075220188671       67.34504259879985       44.71118711348258
C           56.89093343114936       67.85709612113344       43.27663989915621
H           64.25377542054868       45.95934978063323       41.89785142112386
H           65.73238826905015       45.85871011488035       42.84501781683880
H           64.19216429140762       46.17262955120858       43.65037191196138
H           56.09928752805071       68.58043302599840       43.09382078016716
H           57.84637445606602       68.34109371452836       43.08341931641419
H           56.77295007852471       67.03735286048560       42.57037810788353
H           58.90851526015575       66.82731208664076       44.89626688023130
H           57.89241842184910       65.56113199357041       44.21658536031860
H           58.84590510897071       67.37779623055421       47.15495658234356
H           58.71086238684813       66.05382156296453       48.29641790123667
H           56.23260006659677       67.54766864607184       47.41380611983145
H           55.97857838644778       65.36764676354353       48.60640639301818
H           56.90623570514048       66.01958079586615       49.95891440319512
H           55.34558580744829       66.72356859656814       49.53289857683924
H           58.31585580362269       68.28613212823771       49.48245978499903
H           56.63895307708866       68.76652764962267       49.70279553448157
H           59.44945533987448       70.16783055344074       49.05211820564541
H           58.11919135260994       71.22791501064576       49.47748888591764
H           56.84193871145429       65.25237997416296       46.48019477271885
H           58.77432410819166       63.92234863811979       47.31225936021466
H           58.63223689368555       63.77994100691371       45.56186114342237