3536
 energy: -3716.251082114048 gnorm: 0.000845446250 xtb: 6.6.1 (8d0f1dd)
C           51.51357247151762       38.18450505652597       60.21736545428048
C           52.36328702475385       38.98275421930574       61.20326458490457
C           52.25700344530266       38.36686579465947       62.59822871145650
C           51.94185073933647       40.45558086848676       61.26252516785524
C           52.04685703055636       41.23329593587059       59.94615752215536
C           53.46681477434835       41.17276949802452       59.38360293743551
C           51.66635764738805       42.70681558711348       60.14538755144023
C           50.25457957760229       42.99016275160689       60.67082963454816
C           49.18793619358212       42.37882862173695       59.76301272475046
C           50.01639834967693       44.50435295245449       60.76827230631436
C           50.84204150977195       45.24549075153853       61.82494424077674
C           50.41280052912492       44.84019638539363       63.23536712594353
C           50.67825223279451       46.76415735023281       61.68045799359395
C           51.26880846330849       47.40902194883761       60.41981426832883
C           52.78121269095973       47.21157748666114       60.35381739692441
C           50.91697937649475       48.90420956974268       60.41920395205224
C           51.03763889024333       49.60483681474053       59.05772872375504
C           51.06664781430673       51.11723557936524       59.26376695064422
C           49.87376666315750       49.19915697671507       58.14635775112118
C           49.89165539469199       49.75549148329891       56.71383722342690
C           48.64084628119299       49.25664925515007       55.99392238361353
C           51.16783747946205       49.34155675034895       55.97433894470274
C           51.23348537543477       49.67437044138121       54.47498867038652
C           52.58738778271100       49.20522142946083       53.94493565167010
C           51.01505108001979       51.17375978732771       54.24105382726867
C           51.23376164374415       51.69905104747006       52.81565704185144
C           51.06578629930505       53.21832316044466       52.83314226733354
C           50.27468948652488       51.08043819935362       51.79249401354166
C           50.73222232042265       51.29967358208872       50.34197754030511
C           49.54149792736937       51.26635619386998       49.38608411597188
C           51.78858297195695       50.26653197715604       49.91639631634778
C           52.92134419007091       50.84283194939637       49.05655075204829
C           53.63712391433877       49.71629707396763       48.31361575687126
C           53.91566987703872       51.61089259596477       49.93589691128020
C           54.88575932953988       52.51789161448229       49.15789594624045
C           56.33607101741761       52.15426826382706       49.47318529729720
C           54.64746671996741       54.00040559894843       49.47367640306530
C           53.29284453631993       54.54603013335986       48.99918911155838
C           53.28376864693531       54.71867660651917       47.48375379331321
C           53.00472539685394       55.87012103002144       49.72057100882385
C           51.70648115389336       56.60052400963400       49.34176137566217
C           51.71418659527203       57.97460306026014       50.01146719952090
C           50.46780656819466       55.79693173573637       49.75712423245148
C           49.12640085150753       56.29672023628382       49.19504643351058
C           47.98357575041851       55.66751590960655       49.99101685901201
C           49.01529100880128       55.95856908485155       47.70314689894487
C           47.75665689858791       56.44835214749480       46.96790155746547
C           47.82978997155470       55.98777721627618       45.51175571249884
C           47.62895563516264       57.97368352023773       47.05445673853732
C           46.50916186518553       58.62406756089015       46.22746866892430
C           46.64906533412766       60.14283365882081       46.34121267691150
C           45.12533646650364       58.16402621769382       46.69990513782558
C           43.95884660143034       58.55174602073126       45.77864243927061
C           42.65004107595486       58.49363341584146       46.56444675724228
C           43.89235699827353       57.62781601802075       44.55685823631666
C           42.91529663890270       58.10229710695339       43.46392951901243
C           41.82971861717706       57.05388500584021       43.21619461065654
C           43.62904457969036       58.40811408923197       42.14067680230313
C           44.60605674877445       59.58871059626638       42.17313214353397
C           43.88656084644865       60.90413365637801       42.47563531433199
C           45.32728783039079       59.73587320334444       40.82465769648468
C           46.23660500998924       58.57805297868020       40.39593776640915
C           47.31860676710205       58.30328930929728       41.43928499688980
C           46.91395845744614       58.88890388623030       39.05139375505365
C           45.98518236057114       59.03824887602772       37.84134647047422
C           45.22718988135148       57.73943041773188       37.56263636861573
C           46.78063385376071       59.42587147153787       36.58510464605440
C           47.41713916266306       60.82448499758015       36.56962235423257
C           46.35892555203483       61.91481613939866       36.72138617903925
C           48.18632139625285       60.98218513900919       35.24859513557993
C           49.09273456750792       62.21582067405036       35.11941312125398
C           49.51131859380916       62.36703330099486       33.65676453529993
C           50.32058570050398       62.10115898214875       36.02889778188703
C           51.18586532970482       63.37595326955415       36.09303598365469
C           52.55299676619980       63.14176376750449       35.44941813788657
C           51.38019852215603       63.84627803232831       37.53970481902247
C           50.11822710767883       64.43978748009260       38.17965002595807
C           49.95745669901011       65.90559619467945       37.77885124719103
C           50.17054464752834       64.31464007131871       39.70951124433844
C           49.80400153064177       62.91772716088264       40.22456622678094
C           48.29075854783962       62.70800313337006       40.16483095666369
C           50.26911166819406       62.68794378588286       41.66822676164055
C           51.78042906154689       62.72064700841422       41.92833848236460
C           52.54104920805752       61.80196256166609       40.97408114373267
C           52.07820004661139       62.28383528433960       43.36895174231340
C           51.60885284050391       63.23086281360387       44.47731226540402
C           52.46079907180177       64.49835467640939       44.51195944588095
C           51.68164084886482       62.52175792884911       45.83581427151199
C           50.51594453300151       61.57478623364032       46.10322652671037
C           50.66362857838883       60.87626726072176       47.44897746599937
H           51.78813578179187       37.13198893833826       60.24826732218627
H           50.45818375003125       38.26932279893190       60.47029759847924
H           51.65342801339403       38.53863644351200       59.19931264562854
H           50.72104953635906       61.60672847673328       48.25349157375997
H           49.81348160635990       60.22475233354380       47.63851174291505
H           51.56965257918490       60.27389135425876       47.47014334389852
H           52.62093273960015       61.96728992678701       45.89547411309378
H           51.69433009530709       63.27539101998978       46.62546045097447
H           51.61826267214834       61.30665001661779       43.51764206303933
H           53.15729697307103       62.15602978193867       43.47774300457701
H           52.15180192322423       63.73993044937097       41.78351834515279
H           53.59004066473488       61.75582554694468       41.25782511355972
H           52.13095831719644       60.79427109677229       41.00157441053355
H           52.48957798410420       62.16845964164311       39.95277578182555
H           49.78959797975859       63.44063382483306       42.29683979137652
H           49.89451656528014       61.71124527339923       41.98728583587938
H           51.17679688167389       64.58143972099353       40.03624933616062
H           49.48230636534706       65.03721475868123       40.15531993568615
H           50.56633809355895       63.51412344510178       44.29932428105293
H           52.10498074249805       65.17849074580153       45.28255739218777
H           53.49660732772014       64.24936733901291       44.72997648251287
H           52.42572180851803       65.02263322624152       43.56029137008424
H           50.26928839049268       62.16506380364883       39.58121891189683
H           47.78008743726618       63.41785849776478       40.81289821349225
H           47.91198540859445       62.83903855344376       39.15484518637918
H           48.03474770458702       61.70372554907133       40.49599311182938
H           49.24611689948938       63.89249982317203       37.81096493099605
H           49.01608763854506       66.30518679867677       38.15092771960450
H           50.76943725732333       66.50277231374167       38.19009870020905
H           49.96769897368308       66.01601834374050       36.69680248119958
H           51.72572773408944       62.99288629067134       38.12544564233380
H           52.17209117204424       64.59852726153706       37.57212472833766
H           50.68304784173192       64.17640887315068       35.54064301157401
H           53.11360946650876       62.40199212114205       36.01740556409008
H           52.44547250854554       62.78304526557994       34.42862032351812
H           53.13075419288069       64.06401621473269       35.42753945240582
H           49.98163794272551       61.85130728768907       37.03431251899710
H           50.92951089511656       61.26446288198143       35.68118494558248
H           48.52907379603807       63.11070631621479       35.40344176559336
H           50.05903802511320       61.48558133786489       33.32847834355015
H           48.63766814783008       62.48314971235008       33.01838142428909
H           50.14712613291439       63.23762695246850       33.51867888907908
H           48.80727637613681       60.09495550123667       35.09808692906307
H           47.45422891312283       61.00586189265586       34.43673049502296
H           48.12234262302818       60.90100526195577       37.40125363028925
H           45.59316144217907       61.80920585743580       35.95521922659258
H           45.88236019679674       61.86120528656076       37.69669944803992
H           46.80188180452893       62.90298742057492       36.62412757868805
H           47.57046202623364       58.68366698295027       36.43990086820743
H           46.11061359327697       59.35732599753938       35.72330571102037
H           45.24911918998966       59.82064246236611       38.03976187318700
H           44.61307587005255       57.84117910769560       36.67006699935258
H           45.92358370287464       56.91798316058004       37.40578056324119
H           44.57178860803810       57.48296022749027       38.39051867698501
H           47.48861734762927       59.80891417945018       39.16914888497734
H           47.62391773399666       58.08675323838655       38.83139794274920
H           45.64001662038716       57.66902295002527       40.28179067904272
H           46.88631525162453       57.93271332201553       42.36460654735607
H           48.01330556735297       57.55140106770905       41.07157335719224
H           47.87923325571640       59.20946230720018       41.65804300218924
H           44.56276526802453       59.88560095348504       40.05910871851337
H           45.93337364234463       60.64510813411189       40.86157761732115
H           45.34645780657851       59.42598372504465       42.96017378793960
H           44.58925216199322       61.73436387862879       42.44101677380817
H           43.10332229967850       61.08943232997781       41.74259719638697
H           43.43366339345799       60.89160362775461       43.46319866625287
H           44.16464315293059       57.50699905367959       41.83482144789480
H           42.87321028403787       58.61350866040330       41.37670974658869
H           42.41506548435989       59.01458316816671       43.80075874638268
H           41.11512183665663       57.40372688510760       42.47316550213554
H           42.27027442879256       56.12703225113540       42.85393084380782
H           41.28530792345198       56.84010225640137       44.13350295341708
H           44.89017036498602       57.53780858007401       44.12658359704785
H           43.60399817129164       56.63013919387295       44.89670367049031
H           44.10141614201768       59.57917429972981       45.43036315149521
H           42.67611920364931       59.18895523120964       47.40108689201141
H           41.79939867391748       58.75223612026998       45.93741464477334
H           42.49249250286205       57.48926119698145       46.95295683099862
H           45.11817727052573       57.07772775418126       46.80607077213037
H           44.95083635176762       58.58815890303390       47.69109242135731
H           46.64233051845446       58.35659389295245       45.17550038068381
H           47.62311814784670       60.46117690401206       45.97562121522335
H           45.88829189076104       60.65667456982467       45.75863037514829
H           46.55560113065827       60.45478830526363       47.38005147963008
H           47.47621525554329       58.25775916742949       48.09760493155239
H           48.57937685790235       58.40460727890174       46.72716344631783
H           46.88067361398188       55.98217454865546       47.42957604194289
H           48.08330676673215       54.93065754322159       45.45522601248698
H           46.87680009998837       56.12929322275728       45.00826406681421
H           48.58681193415036       56.55349712790748       44.97346232700258
H           49.88232331986404       56.37215976901342       47.18557543300040
H           49.06461932211362       54.86993980452419       47.60186880068444
H           49.07330364112136       57.38046709074449       49.32493035192032
H           48.09920665702311       55.87848189071022       51.05206545580819
H           47.02091311395530       56.06011097276610       49.67231325472891
H           47.97729941041693       54.58712851941219       49.85662382156348
H           50.59028168348618       54.75800400668175       49.44563644401371
H           50.41232065309120       55.80638282907224       50.84886546277587
H           51.69532929708712       56.75570480273048       48.26004337469374
H           51.74502367041792       57.86624994831246       51.09446033132796
H           52.58709040785681       58.54701093384276       49.70302639147658
H           50.82962573951562       58.54802502462385       49.74739259916245
H           52.98669980389494       55.68143156674075       50.79843227383016
H           53.84242345699931       56.54632398438532       49.52499554230721
H           52.51798537865699       53.82218293093445       49.26450959989637
H           53.95551386768417       55.52280045841979       47.18811057271493
H           53.60778275348125       53.80559151612458       46.99094126336535
H           52.28260955399992       54.94783296210242       47.12943790415866
H           54.72801620559647       54.13462665203161       50.55593794714006
H           55.44118066122581       54.59548628069123       49.01395925757448
H           54.73396245029810       52.36251156613925       48.08517843722140
H           57.02125254272361       52.75516815550772       48.87938613960112
H           56.54939009428309       52.32722564653000       50.52625816222620
H           56.52623979808816       51.10579213241854       49.25541092381068
H           53.36354597260310       52.21655121404439       50.65463632694881
H           54.48628538344401       50.87897612532183       50.51160905618249
H           52.48859645048505       51.52566287977650       48.31605637123656
H           54.48131079629672       50.09836485987107       47.74561543762206
H           54.00928822995409       48.97581209848261       49.01960713924446
H           52.96140347223630       49.21687266868989       47.62117269020597
H           52.24026623497951       49.80865889673807       50.79882550429470
H           51.28839064870780       49.46935169530652       49.36031944413880
H           51.17280226684709       52.29755857437681       50.27073385617474
H           49.87453083804883       51.39146081769722       48.35783374117439
H           49.01472556545781       50.31649745578346       49.46036010085282
H           48.83999923788437       52.06542223378925       49.61900074727554
H           50.17758906824617       50.00980595276153       51.96861509266967
H           49.28581915023044       51.52329942745246       51.93465169154452
H           52.26060019576189       51.47154555377367       52.51514286284826
H           50.04026097437713       53.48181086771693       53.08438210360492
H           51.72365788561847       53.66799180166745       53.57091418390754
H           51.29968726684464       53.65633250799795       51.86701253384160
H           49.99908971593308       51.43542703541855       54.54156575143431
H           51.69846798435110       51.71549976367707       54.90206438163909
H           50.45299576801623       49.10891330517068       53.95717575968355
H           52.77437623312029       48.17589274740674       54.24520470023791
H           52.62201680768781       49.24543679767611       52.86064907243097
H           53.38870533964568       49.82484369523279       54.34199908958918
H           52.02127104976558       49.82263096049095       56.45812899116068
H           51.29456573560797       48.26073624584799       56.08978945168318
H           49.84177332406482       50.84690183955979       56.76107086739371
H           48.68711529953099       48.17805493327332       55.85001404043000
H           47.75876842256335       49.48563937486359       56.58838305818412
H           48.52666566185774       49.73096254410208       55.02277584474425
H           49.84193995862447       48.10865549664145       58.08025986140808
H           48.94345908997672       49.52061520630587       58.62462082274057
H           51.98101373943952       49.30133629268519       58.59555833217626
H           50.12499071654458       51.46210889121640       59.68727389786064
H           51.87034166206865       51.39344853146038       59.94324163119168
H           51.22849715397147       51.63393187806612       58.32212418091469
H           49.89051597840575       49.02957904035660       60.77390046657715
H           51.57077103541085       49.40428984714475       61.13779981987446
H           50.81782761214465       46.94286182404341       59.53936337853614
H           53.03412440281376       46.16447370118004       60.20887038661883
H           53.20747658497160       47.77341791424740       59.52671720670069
H           53.24683414493718       47.55616016558390       61.27466879553084
H           49.60869053394069       46.98873339741228       61.72098961369855
H           51.14264324468205       47.24014900716629       62.54751107544327
H           51.89924443197960       44.99634347117561       61.70533513355427
H           50.57724392723987       43.78018056920382       63.41014747315690
H           50.97994432592780       45.39356133573178       63.98105572155136
H           49.35609656548394       45.05341714660519       63.38660886459717
H           50.21963080817334       44.93624252444793       59.78670338447365
H           48.95944588978856       44.67915109775497       60.98622608077890
H           50.14476108264165       42.55278173930773       61.66699843901266
H           49.26222498422894       41.29468387689564       59.73717029080505
H           48.19214818906124       42.63489218903937       60.11998741093961
H           49.29366954596155       42.75698075868321       58.74817671847911
H           52.39193725287728       43.14332357403725       60.83424371470144
H           51.77868840806504       43.21945039284442       59.18556706539529
H           51.36588357728187       40.79136851533923       59.21321101378041
H           54.18600545419230       41.45791601272433       60.14769259914895
H           53.70690787207815       40.17223373553935       59.03380087177014
H           53.57307714786487       41.85765095509356       58.54412727119465
H           50.90862276523732       40.49098194024845       61.61520297209557
H           52.56220038475632       40.96110800628126       62.00784385302276
H           53.41037437120080       38.92013300120611       60.89193336830755
H           51.22668145877030       38.39129147762593       62.94881723336808
H           52.58856346827816       37.33075828808082       62.58582635614030
H           52.87284557084840       38.91366243856371       63.30930238219021
H           49.58228863239853       62.14220094351108       46.08598338197795
H           50.45667417131974       60.82273584815713       45.31371365717851
C           63.52561681655769       77.47768704965863       61.41737866064969
C           62.27412435948342       76.75822243523366       61.92097308924574
C           62.46648290501722       76.35539996821048       63.38078466890584
C           61.98579159971531       75.54884950529882       61.02357947519731
C           60.64395476730187       74.83872465716202       61.25294390429318
C           60.65619354465757       73.50748322022248       60.50262513697895
C           59.46935819604481       75.71009849506282       60.78981654779808
C           58.09741498547061       75.27911671555950       61.32526354773576
C           56.99753186086865       75.95316180480711       60.50555297800268
C           57.93321808887429       75.62832670911718       62.81164106941251
C           56.98446516675289       74.68471942969479       63.56722352972525
C           56.46972732820625       75.37168349407081       64.83144435325636
C           57.71494801427676       73.38046593573708       63.90823293471260
C           56.83414201427620       72.21070799121263       64.37197690618352
C           57.73878583421115       71.14351145237067       64.98912741334743
C           56.02643128774918       71.63929938761443       63.19933164449046
C           54.98207187917265       70.56997805859049       63.56628515601820
C           54.96654899635005       69.47638634599245       62.49618235872205
C           53.55918884990334       71.12877856793777       63.70773142860455
C           53.31680482216960       72.14682543788616       64.82676489428381
C           53.63693201934288       71.56181918272752       66.20210254126081
C           51.84683700123928       72.59776406360831       64.83391700496128
C           51.39202127486210       73.50305804086622       63.68268863099264
C           52.10153603283220       74.85544709077887       63.72340591431674
C           49.85994755602791       73.68965857356532       63.74121510932540
C           49.10196119205024       72.97755862404834       62.61030446334164
C           49.30887043552395       73.73166730531507       61.29850600385247
C           47.61450608513478       72.88931027984084       62.97305710766963
C           46.69518399482798       72.19741914350477       61.95633294401242
C           45.24311165018384       72.40202905282911       62.39649301971079
C           46.97886336162973       70.69292064337479       61.80939973887849
C           47.91736400521266       70.29404723875213       60.66329964999154
C           47.24979833704469       70.52244471505391       59.30686261065029
C           48.31030335831686       68.81536894394279       60.79347717469199
C           49.38303639152942       68.50402343541263       61.84831265098743
C           50.75274333143300       68.97707231630783       61.36965370131226
C           49.37013124423858       66.99344921935123       62.11661977591786
C           50.32028202794725       66.47018095100984       63.20101216789568
C           50.29468358737519       64.93986909022057       63.18128063048608
C           49.95945728637000       66.97736305417450       64.61033890721062
C           50.83484968628512       68.11543555929133       65.15014198997956
C           52.30097864521220       67.68709250916552       65.24576250836468
C           50.38879484563670       68.55392079759208       66.55583731456851
C           48.93587090382542       69.00770779059899       66.73422066046639
C           48.63313099905073       70.24483597290559       65.89058731576517
C           48.64881601092212       69.33360352851440       68.20956107356189
C           48.62263452116373       68.14118701816689       69.17703390067098
C           47.44898804208728       67.21400480709818       68.86874558614986
C           48.54863272710093       68.66468007618616       70.61934750221637
C           48.83950167897299       67.63505667092849       71.72335967303110
C           48.35308673604869       68.19326017838432       73.06145063267020
C           50.33668312423784       67.30438965636525       71.79998116161507
C           50.68635515827919       66.04847367467573       72.62202691806979
C           51.90755904282160       66.32259174627833       73.50303981302584
C           50.98006268866322       64.82519705895757       71.74119416156624
C           49.80161179732539       64.31453524211354       70.90666237902335
C           48.72157921881531       63.69974013467406       71.79792013373454
C           50.24467402372844       63.26137950390113       69.88170942331476
C           51.25913243762633       63.71256163491622       68.82046073563859
C           50.85833437479261       65.03943182509590       68.18592744538937
C           51.36853619118858       62.60333254577834       67.76514398879677
C           52.45128385430795       62.79529363791847       66.69347221759496
C           52.23870075800254       61.78201015456246       65.57302349778098
C           53.84294005123094       62.65361590665362       67.31190868525115
C           55.04785623875295       62.87289520093389       66.38596406222008
C           56.31009700746532       62.70698029174639       67.23200350578774
C           54.97557294004953       64.24007705191515       65.69077422773184
C           56.25596025785917       64.72737000625679       64.99558470676531
C           55.98837830431055       66.09463758420399       64.36747767035571
C           56.76180191279462       63.72751757700472       63.94936245640245
C           58.18725868918195       63.97328861983472       63.42847531972426
C           58.48355457029813       62.97071915632394       62.31218165798941
C           59.23967410175884       63.86893700296420       64.54905609818330
C           60.26128321900862       65.01675811244672       64.58067888706796
C           61.42886062080519       64.74102050121292       63.63494563941976
C           60.75866911199513       65.25457369650516       66.01575747108421
C           59.80442249278315       66.12541414648798       66.85155866067171
C           59.99376677808987       67.59759881794490       66.48968813803640
C           60.04765255928922       65.89048321547340       68.34799718120877
C           59.01958764859124       66.51021535565135       69.31065034948691
C           59.62773731782752       66.56112966997729       70.71230272931437
C           57.70966875517333       65.70924403611774       69.28613062138957
C           56.63121798904115       66.14185752035591       70.28820051300102
C           55.49273296336277       65.12056495574865       70.32059930688894
C           56.08725726535675       67.56008590430119       70.05240221400814
C           55.29898051425727       67.77086599653535       68.74566830202777
C           56.07987035025965       68.61074762050762       67.73721999017029
C           53.90963947448109       68.36828992740416       69.01685373743041
C           53.92079042106097       69.78675248406121       69.58260648214869
C           52.51038052881120       70.26593735270056       69.90405086361422
H           63.39147001741148       77.81351262885904       60.39136038167802
H           63.74477799308191       78.34609254044069       62.03499706568162
H           64.38422713782421       76.80965141539056       61.44909721008344
H           51.89255862071513       70.25737977614071       69.00864511709027
H           52.04364361759433       69.61825656903956       70.64296414149712
H           52.52745386596204       71.28019730790989       70.29836539127442
H           53.33875123794733       68.37121756015586       68.08529683048685
H           53.38201985162409       67.71409258290502       69.71676754486633
H           55.43617996636704       67.78914195404607       70.89972724533904
H           56.91751708462088       68.26706766769908       70.09630044942531
H           57.07820666693527       66.13958774199713       71.28881669252094
H           54.99637650530462       65.04476211868207       69.35666210027331
H           55.87042760467540       64.13466498374440       70.58168324798076
H           54.74974245122743       65.40489016553106       71.06351416036320
H           57.28952274493738       65.75611758193514       68.28001745040692
H           57.95504731138557       64.66325892824071       69.49420495809584
H           60.08044161668843       64.81421311764929       68.53941463828211
H           61.03698165988680       66.28826589945965       68.58852793809959
H           55.12511157640071       66.79718821915434       68.27679244148209
H           56.38059483646443       69.56441607817946       68.16510533755103
H           56.97450130626130       68.08190425271985       67.41845109556358