3536
 energy: -3716.231843080571 gnorm: 0.000980320740 xtb: 6.6.1 (8d0f1dd)
C           51.51428535166328       38.18527851144631       60.21727341654463
C           52.36448594957948       38.98323625919502       61.20283483142369
C           52.25752993940645       38.36808328281644       62.59779795512873
C           51.94211913175214       40.45588695609982       61.26283622145247
C           52.04614725177333       41.23309139016312       59.94610144748552
C           53.46622474619033       41.17298943051033       59.38307428132956
C           51.66622161198593       42.70697164720661       60.14527201629981
C           50.25422599407081       42.98983012353271       60.67094443353758
C           49.18767224087487       42.37869443770700       59.76297346396274
C           50.01615560688748       44.50421337383310       60.76782798013427
C           50.84266838702667       45.24476780248728       61.82460319564875
C           50.41266860963754       44.84048909662517       63.23494628849608
C           50.67812166584486       46.76357353610728       61.68054154032856
C           51.26841903483581       47.40805999564214       60.41945875304386
C           52.78128260168491       47.21149846993240       60.35371530780521
C           50.91637371695440       48.90338011051924       60.41922188800847
C           51.03789714524266       49.60378157080883       59.05750259653295
C           51.06607977875974       51.11661367141831       59.26359906077053
C           49.87345387020207       49.19803925972163       58.14659106691223
C           49.89126823685964       49.75543104204509       56.71426587925955
C           48.64116125832386       49.25512732650712       55.99384247906791
C           51.16772493610003       49.34086783330834       55.97499492436288
C           51.23272289035613       49.67337135234180       54.47532693787200
C           52.58710120929483       49.20437857190140       53.94562728036985
C           51.01464080061375       51.17321336411073       54.24158194140013
C           51.23406460981167       51.69855629180387       52.81595242700826
C           51.06501358329044       53.21816941633061       52.83325021550392
C           50.27451121264370       51.08010336850077       51.79271702800253
C           50.73231451177513       51.30024640224171       50.34210935872345
C           49.54122015662542       51.26648599040197       49.38645503485719
C           51.78865110292445       50.26656497952717       49.91651417921475
C           52.92110127049618       50.84286193333334       49.05578694627901
C           53.63713012216829       49.71584022932144       48.31344524391834
C           53.91566429674481       51.61082347133466       49.93561701308602
C           54.88565563225819       52.51787209917045       49.15693745917252
C           56.33607750341327       52.15430839001052       49.47268322664443
C           54.64731027660289       54.00055354292543       49.47310503218566
C           53.29180818133410       54.54508530013781       48.99885661900172
C           53.28278211750678       54.71788551169495       47.48328452294275
C           53.00425212581909       55.86971990863360       49.72015159561657
C           51.70602331203211       56.60023396091847       49.34023013792120
C           51.71400607065726       57.97431124145112       50.01050471931665
C           50.46712977719290       55.79640688639963       49.75611840121498
C           49.12528512511889       56.29642291230481       49.19415551568661
C           47.98281163613795       55.66630494946530       49.99058795057211
C           49.01481210397835       55.95803505068049       47.70202565500551
C           47.75547508335912       56.44791927387141       46.96754018552247
C           47.82923098352851       55.98800825454489       45.51115496646095
C           47.62806942135199       57.97357677312229       47.05436729827050
C           46.50803988075568       58.62349262953354       46.22671028292118
C           46.64799660805979       60.14237098567879       46.34079282483103
C           45.12420122384290       58.16323691325940       46.69963071819513
C           43.95791210819812       58.55205500612237       45.77800260999782
C           42.64925945992362       58.49320499414134       46.56414086552830
C           43.89212830871741       57.62781061134994       44.55625710611398
C           42.91501660612400       58.10275120959425       43.46325344200367
C           41.82999711820536       57.05399660503342       43.21591129731285
C           43.62964757083659       58.40797378377981       42.14034591133889
C           44.60700954187082       59.58849593789800       42.17367238952047
C           43.88725937740728       60.90389137224175       42.47571861451134
C           45.32733854202100       59.73608006278076       40.82455272964009
C           46.23637969504748       58.57821568706197       40.39527878786107
C           47.31878946715784       58.30336643139788       41.43870955195501
C           46.91438760282473       58.88938234789224       39.05106516747712
C           45.98513931630900       59.03897777835321       37.84126816901201
C           45.22763102465937       57.74009923276829       37.56318952413304
C           46.78092541182037       59.42601349959801       36.58520853639314
C           47.41781525223742       60.82443925940409       36.57030384888979
C           46.35934962997221       61.91447958093321       36.72184641352336
C           48.18614767512292       60.98240831213632       35.24881612700227
C           49.09195257745329       62.21634200449095       35.11980627516692
C           49.51097930614336       62.36722838008592       33.65755332525978
C           50.32016008281975       62.10075863270389       36.02887778517677
C           51.18531180839675       63.37569248830623       36.09289413489626
C           52.55233963033771       63.14155168319368       35.44945893405943
C           51.37994104127004       63.84594274296254       37.53960285253408
C           50.11751350971043       64.43907080473863       38.17933111351321
C           49.95744350012600       65.90465699418937       37.77885891301131
C           50.17039010684314       64.31490157584022       39.70936588582884
C           49.80386649259812       62.91783840775483       40.22419930952174
C           48.29049468280684       62.70793869372752       40.16522149715423
C           50.26857846919884       62.68842091320526       41.66836242296971
C           51.78004393218955       62.72158557931527       41.92785105321412
C           52.54071714382966       61.80279320296349       40.97359313649630
C           52.07846734902554       62.28415674447154       43.36840539039684
C           51.60884090583016       63.23167156912985       44.47655844764374
C           52.46081192512182       64.49909252046380       44.51143735201041
C           51.68180968494426       62.52226624081663       45.83519942117387
C           50.51539190816133       61.57563125898226       46.10222605871391
C           50.66378058243940       60.87650073641725       47.44799767040429
H           51.78916038543827       37.13304381787026       60.24875668909618
H           50.45935366863681       38.27046925765919       60.47115533274649
H           51.65335624495825       38.53869648052662       59.19874555069345
H           50.72181864978467       61.60662492249672       48.25280578538057
H           49.81370678750281       60.22496858200897       47.63775338494501
H           51.56999261755920       60.27412739185804       47.46900592084086
H           52.62055474141159       61.96693494591159       45.89519246230191
H           51.69444017863646       63.27538922304554       46.62508679314501
H           51.61859474553084       61.30698829968894       43.51767696727042
H           53.15753760216889       62.15646142321386       43.47751422733196
H           52.15160247408460       63.74008761670243       41.78406109785639
H           53.58969580400286       61.75680780300373       41.25753674078184
H           52.13055757297794       60.79510050095983       41.00116648527655
H           52.48845859967908       62.17017251437498       39.95303902564942
H           49.78979236749470       63.44137664696483       42.29667242454157
H           49.89445415183306       61.71172633289376       41.98820376899696
H           51.17669479436334       64.58125133274291       40.03589910368701
H           49.48207581310476       65.03666592740342       40.15543185594539
H           50.56670679190666       63.51339226007282       44.29893824100706
H           52.10472746652469       65.17836819027175       45.28235832243644
H           53.49669773531015       64.24994586086456       44.72929867592098
H           52.42484474795837       65.02237250330064       43.55977562639467
H           50.26921514145423       62.16462633506467       39.58206355399381
H           47.78026493130153       63.41778393307298       40.81330386511738
H           47.91248276030128       62.83873327852248       39.15522955432804
H           48.03534563576721       61.70353171108398       40.49687119519373
H           49.24579527379964       63.89141348083760       37.81150757260245
H           49.01633458599267       66.30414688114850       38.15117441008054
H           50.76984945463960       66.50092398796843       38.19026462617884
H           49.96775443191471       66.01438610662576       36.69702323805743
H           51.72627095680799       62.99271041852668       38.12541203712577
H           52.17098844041300       64.59873797596801       37.57173248818558
H           50.68250213816093       64.17581069428158       35.54126212630660
H           53.11327323968102       62.40156244853792       36.01694648823344
H           52.44407364382047       62.78320992685582       34.42877464850524
H           53.12988685877680       64.06380215152176       35.42792818534271
H           49.98227572533145       61.84985747590648       37.03452999438939
H           50.92875438082389       61.26436770197070       35.68004872440037
H           48.52870656066018       63.11078065338838       35.40433101977364
H           50.05848246604458       61.48559977766953       33.32953405342612
H           48.63737425090855       62.48342322922571       33.01942501567972
H           50.14698108800270       63.23756880445575       33.51962043233706
H           48.80721992825514       60.09541477599446       35.09809058436561
H           47.45356153866243       61.00664880765880       34.43797046351849
H           48.12328499127172       60.90037481425513       37.40181207152953
H           45.59416900768615       61.80761615447727       35.95558318182056
H           45.88256512743281       61.86142713134817       37.69716380741858
H           46.80198817699482       62.90261251226074       36.62393022792079
H           47.57024774781130       58.68345156254613       36.44012912029210
H           46.11053521086608       59.35839551858744       35.72421693983521
H           45.25001247637324       59.82148958346214       38.04023178559898
H           44.61422696809554       57.84186230720550       36.67049988972469
H           45.92431866039004       56.91883093527797       37.40682886910852
H           44.57192799770748       57.48378810104575       38.39086597920461
H           47.48947517366903       59.80898768030299       39.16978575067508
H           47.62426409237762       58.08694581934692       38.83175653041081
H           45.64090300223281       57.66902777245716       40.28142775743270
H           46.88716264884161       57.93248363203441       42.36433127186431
H           48.01387581940458       57.55187216911224       41.07076951028436
H           47.87938619514718       59.20965878733334       41.65795661650497
H           44.56263183383658       59.88480385704363       40.05983024880971
H           45.93350423423254       60.64508826815695       40.86165922955205
H           45.34812949961008       59.42594566165651       42.96017610809081
H           44.59024526681294       61.73392840100634       42.44114874194701
H           43.10485137178218       61.08792052686600       41.74212456791054
H           43.43421407896951       60.89155076274928       43.46320276263351
H           44.16493407994555       57.50677601743418       41.83469393972427
H           42.87427639418451       58.61473166954735       41.37738564851210
H           42.41634713440985       59.01491211937187       43.80056178492379
H           41.11635424956138       57.40424187555422       42.47291144232230
H           42.27098568622288       56.12730279470695       42.85407127841590
H           41.28578038829479       56.84082238949438       44.13331040732202
H           44.89034743400170       57.53793507239180       44.12688784059318
H           43.60405559262909       56.63056254134018       44.89704559669165
H           44.10187154061055       59.57901679079576       45.43113982265221
H           42.67597453736689       59.18853909858301       47.40065197239662
H           41.79945551258513       58.75132008012090       45.93672080323438
H           42.49334340319869       57.48857048206833       46.95244145640344
H           45.11737524056777       57.07692474572843       46.80576408326372
H           44.95116015597341       58.58701018861864       47.69119672938584
H           46.64249576073924       58.35576605746253       45.17568028476170
H           47.62205983617985       60.45997533112505       45.97458774566355
H           45.88666732776740       60.65510921849607       45.75876034821624
H           46.55532197694374       60.45331275415715       47.37996875328466
H           47.47502940528109       58.25710602722379       48.09753885658598
H           48.57865885553488       58.40384785122090       46.72722246412090
H           46.88081926267596       55.98168785562029       47.42993564886056
H           48.08301907775640       54.93104457114807       45.45525510901771
H           46.87615294434455       56.13024330240420       45.00899493043828
H           48.58658253027983       56.55446873679374       44.97432723773090
H           49.88166114207550       56.37255738936361       47.18516453162250
H           49.06485997082505       54.86963122003717       47.60098297942158
H           49.07269173775748       57.37959952494241       49.32406493257229
H           48.09983671084564       55.87714063130380       51.05145874877144
H           47.02019503985208       56.05913655868476       49.67236093283275
H           47.97743309898632       54.58613972565284       49.85568024733936
H           50.58966848313878       54.75789278912745       49.44410757506020
H           50.41212150422914       55.80627746066840       50.84768797922277
H           51.69538548380817       56.75477203779767       48.25909971234780
H           51.74451472453696       57.86465660987049       51.09329584197636
H           52.58712502745764       58.54621981770875       49.70228584332003
H           50.82939649181454       58.54705960782273       49.74604643827541
H           52.98542110534324       55.68100515482155       50.79769560048175
H           53.84190548533189       56.54519151488785       49.52402627197002
H           52.51784472701652       53.82125852131949       49.26475590959404
H           53.95434594042162       55.52237001574268       47.18910786772236
H           53.60730174014419       53.80471826744794       46.99129049678029
H           52.28119233509662       54.94622076559219       47.13005881180572
H           54.72821423188591       54.13461778949744       50.55506682965326
H           55.44019832481860       54.59537555429449       49.01247967621215
H           54.73317620401156       52.36225426074799       48.08510981024117
H           57.02063834651873       52.75528135950643       48.87858613710730
H           56.54830592639598       52.32802333255619       50.52577135288445
H           56.52541124570064       51.10580030170265       49.25512910309796
H           53.36398322933228       52.21645037698202       50.65453110304770
H           54.48663904889110       50.87880571407208       50.51039944656718
H           52.48843512742017       51.52554564231066       48.31631633872173
H           54.48118307132057       50.09846865315139       47.74588899840563
H           54.00903877242042       48.97608877723391       49.02016684673505
H           52.96099419134338       49.21696892079174       47.62153061656728
H           52.24065985519372       49.80918227514268       50.79874543494664
H           51.28824739526607       49.47030178520895       49.36027356998345
H           51.17317028679927       52.29755250671067       50.27174715853451
H           49.87498037442974       51.39221414113832       48.35871857957432
H           49.01612183201134       50.31607215340421       49.46151912712242
H           48.84013977353536       52.06511777082099       49.62081424233941
H           50.17787966725315       50.00964863057879       51.96838638906468
H           49.28657194510248       51.52390128857544       51.93463323216446
H           52.26045662676745       51.47093673015603       52.51561324300103
H           50.03909720964818       53.48032359094305       53.08335341812785
H           51.72224068010689       53.66806819171959       53.57137936390787
H           51.29954317525488       53.65552302524055       51.86708995787001
H           49.99882964269845       51.43502114450462       54.54097946861640
H           51.69839075756433       51.71473274927618       54.90180742810264
H           50.45260397774278       49.10887467740232       53.95758508224859
H           52.77338809957366       48.17545884982504       54.24667859906588
H           52.62176562112118       49.24446810042927       52.86131186940482
H           53.38769106502021       49.82475130330148       54.34283076193070
H           52.02118576769697       49.82223302365118       56.45777271230640
H           51.29366949529329       48.26040729946416       56.08937976092064
H           49.84200652384472       50.84645713587450       56.76110727301531
H           48.68983106998471       48.17683992703351       55.85038607355209
H           47.75950164352937       49.48389462977349       56.58842543609192
H           48.52739733245375       49.72973440190158       55.02273099896740
H           49.84294002329401       48.10822681036361       58.07936616032231
H           48.94382624042875       49.51994455991264       58.62462998869417
H           51.98098697227634       49.30077149642175       58.59545418684994
H           50.12412050948044       51.46053115686754       59.68663268598601
H           51.86963490959300       51.39295294370368       59.94314220398036
H           51.22823072092709       51.63324168953523       58.32186126952518
H           49.89006014683157       49.02898754159335       60.77242012368606
H           51.57033921660930       49.40394051550764       61.13694119462669
H           50.81858873767514       46.94260661676888       59.53883763748286
H           53.03388380406573       46.16454452393662       60.20833228637680
H           53.20788512562910       47.77344978227423       59.52662300584577
H           53.24626017579619       47.55608799560814       61.27481413495041
H           49.60906384680355       46.98795465773020       61.71971626059985
H           51.14304663146090       47.24016889167878       62.54661701944016
H           51.89971381880497       44.99663804923392       61.70409149450551
H           50.57742548021990       43.78088056819707       63.40922781963580
H           50.97958112991296       45.39476327820950       63.97993691070815
H           49.35619772674484       45.05449670575400       63.38411740118249
H           50.21923125057209       44.93607260056955       59.78608698048679
H           48.95996722101823       44.67929350353099       60.98689755141146
H           50.14537508934367       42.55344835849218       61.66669102898810
H           49.26304476959513       41.29496928610453       59.73724670338505
H           48.19261177046411       42.63504100804223       60.12071876026618
H           49.29373960900761       42.75768008632154       58.74842149776457
H           52.39200576268126       43.14323873636302       60.83399862754148
H           51.77906233717983       43.22006456002663       59.18554365134203
H           51.36551597986117       40.79185651482003       59.21326137298773
H           54.18534566075596       41.45858407040431       60.14708356389217
H           53.70602434184249       40.17250206449077       59.03357695943722
H           53.57281365800563       41.85808007558157       58.54332624121249
H           50.90905817303606       40.49089350124635       61.61456311790862
H           52.56253219430209       40.96236948600343       62.00710137236046
H           53.41142792389880       38.92125023499399       60.89169562460456
H           51.22717606874659       38.39307449090126       62.94753261653666
H           52.58865279893339       37.33204311054048       62.58484013227719
H           52.87367823675325       38.91462348152175       63.30874827945334
H           49.58242338217508       62.14325904900614       46.08649143919658
H           50.45590814772475       60.82369886877769       45.31307960896422
C           63.52406392302682       77.47765128804164       61.41852170279017
C           62.27328992735707       76.75794807754663       61.92245265138618
C           62.46732257224866       76.35386056796155       63.38164362713633
C           61.98571627251803       75.54929933037054       61.02395515365984
C           60.64406752045074       74.83895397159991       61.25351294114711
C           60.65690066064074       73.50780226894547       60.50222437653738
C           59.46933328456355       75.70996751271680       60.79011114576178
C           58.09749273060582       75.27827001056879       61.32552361643585
C           56.99771301110553       75.95257911196131       60.50571576900594
C           57.93328668729514       75.62825300020805       62.81187997193513
C           56.98392884142665       74.68499686909053       63.56718358380721
C           56.46991415822838       75.37128238673465       64.83177808467167
C           57.71511969552638       73.38091944161431       63.90846712233424
C           56.83420479986642       72.21137472259963       64.37276729392002
C           57.73870607877408       71.14371790051717       64.98991449496882
C           56.02668321916641       71.64016872984348       63.19965530328549
C           54.98230195741210       70.57079980967278       63.56696092403480
C           54.96650900392683       69.47702418669820       62.49639370770473
C           53.55923560553742       71.12975007853588       63.70818800986527
C           53.31705212729624       72.14802015028653       64.82745090669061
C           53.63709938988546       71.56256551603414       66.20269235939206
C           51.84675267883220       72.59801512391176       64.83379436258504
C           51.39276393404987       73.50321158405413       63.68190690835749
C           52.10220218578647       74.85551249708145       63.72371597152527
C           49.86069454087641       73.69011144611783       63.74102203187590
C           49.10277343227398       72.97721864501354       62.61047283290418
C           49.30922222632232       73.73180953486786       61.29861566630633
C           47.61528680078809       72.88968116649232       62.97358381541360
C           46.69601958178617       72.19835380794883       61.95655774709488
C           45.24422176149251       72.40189941455000       62.39701554243538
C           46.97912719874883       70.69358989265291       61.81017179999980
C           47.91757679942901       70.29516159562473       60.66369727018056
C           47.24955002558589       70.52255280942242       59.30732134804144
C           48.30988818033951       68.81602686322337       60.79356650399186
C           49.38263979715875       68.50482255600420       61.84856150523022
C           50.75277480164486       68.97754106620603       61.36986433907013
C           49.36922895962415       66.99403181164693       62.11683254102267
C           50.32009818273509       66.47111101121097       63.20117598441738
C           50.29463545951547       64.94038700125365       63.18138442577704
C           49.95893159885146       66.97816627067282       64.61066390967461
C           50.83448043788718       68.11648318254494       65.15030601250820
C           52.30079646447120       67.68766877953156       65.24600194795747
C           50.38819803463488       68.55441822894745       66.55622758699872
C           48.93500272591228       69.00826495287043       66.73432623975978
C           48.63357223791310       70.24603268750244       65.89112620812197
C           48.64946488105874       69.33401637686238       68.20998001648906
C           48.62383031796108       68.14118929429694       69.17706463839038
C           47.44969561898097       67.21446192245809       68.86858997014767
C           48.54894330002895       68.66470396796393       70.61937907506815
C           48.83935479458125       67.63449722047920       71.72290714823635
C           48.35377591371334       68.19306303425643       73.06081837254921
C           50.33682880060732       67.30437932742576       71.79978835810871
C           50.68633784367768       66.04843836370658       72.62189174371323
C           51.90760460309764       66.32247146386467       73.50240430745804
C           50.98079708534490       64.82517541589799       71.74116536549862
C           49.80180447122386       64.31531693621096       70.90665263729385
C           48.72225138035832       63.69980792417591       71.79763648006329
C           50.24455535436717       63.26142105474858       69.88209595708393
C           51.25966508092269       63.71267053154659       68.82128813724847
C           50.85851489741729       65.03936680737417       68.18621185723708
C           51.36865462815134       62.60320972994801       67.76591335415763
C           52.45104655915129       62.79581712601672       66.69372408775997
C           52.23855321422184       61.78217791824383       65.57308477168804
C           53.84287793804135       62.65356512464816       67.31212613131001
C           55.04780482880025       62.87233168863096       66.38554638133955
C           56.30994436332904       62.70724103677478       67.23254438979571
C           54.97518199369177       64.24003159072323       65.69064336342308
C           56.25625061322813       64.72768255302182       64.99651350952948
C           55.98871300049525       66.09509477109324       64.36821906113460
C           56.76152768341267       63.72746327044337       63.94992158522314
C           58.18705384017934       63.97373295317917       63.42884239034540
C           58.48347240786681       62.97044432035823       62.31281483160415
C           59.23958487433733       63.86863568533822       64.54954516223140
C           60.26120500249694       65.01678055858372       64.58113528581879
C           61.42873254723364       64.74072194296177       63.63495240544937
C           60.75851197466982       65.25408138316372       66.01647390578789
C           59.80386033906152       66.12534068148358       66.85199641135650
C           59.99401577423381       67.59761530534927       66.48992930912617
C           60.04765252668909       65.89013279536364       68.34854682140424
C           59.01961813947828       66.51039110091006       69.31124604864043
C           59.62794960146955       66.56040423641608       70.71267055704219
C           57.70953885496811       65.70908339651912       69.28617273412009
C           56.63146776578344       66.14230170599811       70.28889837405369
C           55.49297951259047       65.12071224859673       70.32149685987586
C           56.08780765756040       67.56050234432750       70.05282257008113
C           55.29950885322567       67.77071999504420       68.74587333913459
C           56.08064017167717       68.61168170669016       67.73787891579531
C           53.91008148494848       68.36847986089604       69.01714423779445
C           53.92146937591818       69.78711956421637       69.58265870052909
C           52.51067260333575       70.26513589572703       69.90408771949417
H           63.38914955741456       77.81410686312802       60.39290941275828
H           63.74320429888900       78.34539970032489       62.03674669232194
H           64.38280970456586       76.80969146402167       61.44920808164157
H           51.89288652040476       70.25641479716980       69.00872452405737
H           52.04525426835328       69.61696370860484       70.64310503522941
H           52.52853480839850       71.27901102218787       70.29812252701541
H           53.33974177713126       68.37020581654347       68.08522019213486
H           53.38344881358415       67.71376285952265       69.71676080811696
H           55.43605686506733       67.78885103935180       70.89892975791611
H           56.91789028056637       68.26705115167351       70.09564317416941
H           57.07939255978951       66.13940787061431       71.28806938035160
H           54.99583013380553       65.04580236626110       69.35769279080071
H           55.87115435634449       64.13467045244846       70.58106767262174
H           54.75115505393284       65.40481785814737       71.06506105279244
H           57.28962419218453       65.75611341197515       68.27986496889160
H           57.95515665248223       64.66323964897205       69.49393131040951
H           60.08014690255640       64.81387004695900       68.53876647082777
H           61.03690262084933       66.28793721433232       68.58766385812037
H           55.12598500206271       66.79734466081941       68.27631248421996
H           56.38095190353099       69.56463477966560       68.16684587766241
H           56.97518681224638       68.08287362284464       67.41831748590762