3258
 energy: -3427.522179353999 gnorm: 0.000980750384 xtb: 6.6.1 (8d0f1dd)
C           96.44369974283761       99.12842583726544      113.33239992582982
C           96.45768517092520      100.36290990003532      114.22617726951808
C           97.59123050251912      101.31371939988283      113.85033213029891
C           97.59168525117067      102.61358352230924      114.65402019109142
C           97.86047946058660      102.40225474939685      116.14366927094450
C           98.19067143075667      103.70133244975113      116.87809644332923
C           97.00226655612302      104.64121416816954      117.06856910334182
C           97.44630761410944      105.95189239489655      117.71682181312126
C           96.27758991539928      106.81002683143852      118.19436564850001
C           96.76406218527745      108.11912750567519      118.81161537079707
C           95.64499670235715      108.90765896314200      119.48756536155163
C           96.15098915121865      110.23724506025148      120.04411717153334
C           95.09575089249738      110.96417699705468      120.87489459211314
C           95.51609415652599      112.37735151705887      121.28420294959128
C           96.75267017246374      112.40965791406157      122.18055883276494
C           97.06698184772712      113.81622736812086      122.68707221332504
C           98.41319774983120      113.86731522648445      123.40630573381945
C           98.71873985054815      115.25034049437984      123.97618601090028
C          100.10747562720120      115.31388026765207      124.60810846773410
C          100.38012706409238      116.67043266454654      125.25543796687474
C          101.79147368187623      116.78945298709804      125.83502903720778
C          102.85998234442802      116.94755688651134      124.75625525116276
C          104.27511287507200      116.97963275478499      125.32774346857393
C          105.31258602822413      117.18726594893808      124.22718943863487
C          106.74854655490715      117.06630925603707      124.73230581298273
C          107.74723414706480      117.25467005554310      123.59365566056368
C          109.19967365092380      117.13655070233266      124.04985126404669
C          110.19430242004822      117.14219177999715      122.88666041087568
C          110.06992633226439      118.38155116729668      122.00603609722195
C          111.16444895205335      118.48338003547310      120.94795632780308
C          110.89922898236794      119.66548243452216      120.01976414917999
C          111.93347648946900      119.79820504762739      118.90712373681046
C          111.69377121330210      121.02177830396249      118.02242498852884
C          110.36891212529140      120.96894427018394      117.26544129836591
C          110.26736932167535      122.07868673839849      116.22194672853300
C          108.86652682395562      122.22209647674268      115.62708129278930
C          108.32508737369352      120.94804178028545      114.98296839703234
C          106.95224773547328      121.18914623831198      114.35916142097065
C          106.38371382757104      119.96972768939010      113.63408271260519
C          106.16754874150548      118.76872841630005      114.55357149536670
C          105.26823436393107      117.71124953078557      113.91660643297760
C          105.23995668458143      116.42666363610218      114.74127492829274
C          104.27963399396363      115.36783647147143      114.19774639560758
C          102.81482851586895      115.61040706056259      114.55417776775484
C          101.93476445203129      114.42727772208205      114.14633278795202
C          100.55870638046332      114.49048159885713      114.80342253637255
C           99.70270701279051      113.24491401802148      114.56446100621460
C           98.98727976682224      113.19940383843146      113.21323048606027
C           97.75988664526128      114.10735826596149      113.16964451799591
C           97.02217447565172      114.06916112343373      111.83032793102628
C           96.18094513868570      112.81190175623463      111.62241366959503
C           95.34742750290962      112.90196110538805      110.34555691463684
C           94.45842357603389      111.67934116008648      110.13085081729726
C           93.49784338519962      111.87666749596917      108.95939713616551
C           92.64836950361742      110.63500429736418      108.67722408545626
C           93.39126936803180      109.55048282204370      107.89286713571369
C           93.44108088872326      109.84257151918189      106.39423782813638
C           94.13564464896517      108.74447245964880      105.58868877882038
C           95.62923543919926      108.54933781572160      105.86090341778176
C           96.53448883944138      109.68984201307916      105.37945391816696
C           96.81185279293439      110.77251385027496      106.42071432162744
C           97.87437806877880      111.75826530775609      105.93697468716162
C           98.04753394257420      112.92872572711242      106.90147590052476
C           99.18790912167901      113.85691469984080      106.48918065152647
C           99.27634088252653      115.08931076446730      107.38680249316731
C          100.47739570023343      115.98163631757899      107.07395151023144
C          100.39544826032542      116.72916070692250      105.74186090658084
C           99.33594205983114      117.83225139928918      105.67850290021796
C           99.64342764855503      119.01222846045307      106.59833179164640
C           98.71180409415601      120.19941855758546      106.36018856872006
C           98.96094708654428      121.35672175813538      107.33266006552682
C           98.38555657875840      121.09101818399877      108.72227961209718
C           98.67480000109025      122.21645667436550      109.71374774723840
C           98.05343215049926      121.93013799662296      111.08055149597728
C           98.42642562151958      122.97066035475943      112.13412451470163
C           97.67405957270719      122.79051758557721      113.45478030714703
C           98.07541130425237      121.54211879179790      114.24154259914557
C           97.28522205559970      121.44121600563803      115.54569587930830
C           97.71573124513820      120.29346798858353      116.46054763062332
C           97.44321351834091      118.90097726507946      115.89165504864623
C           97.62317962367004      117.81519412257586      116.95401350850666
C           97.48204001783634      116.41091937609403      116.36869822427506
C           97.48240855890802      115.29117366006925      117.41279490683537
C           98.73990576343211      115.27817586036890      118.27955542800245
C           98.90123483193197      114.01627416442793      119.13099860810732
C           99.36474141877738      112.78495278828466      118.35285591767227
C           99.77072563298974      111.64717461693536      119.28799691226968
C          100.20726690667621      110.39225953682137      118.53541343222437
C          100.58233731486611      109.25884329473217      119.48869080483844
C          100.94967935210883      107.97735409828968      118.74496510482427
C          101.21898485677737      106.80005983617340      119.68213083960218
C          101.45024231260734      105.50869963204812      118.89998260181706
C          101.59868555052968      104.27358730090690      119.78424901423178
C          101.56210144363612      102.98833643369788      118.95822288908526
C          101.68511385570974      101.73128131666860      119.81799832167702
C          101.10877679654352      100.48086483595260      119.15419691089220
C          101.81524780939804      100.03714559456627      117.87273874288597
C          101.32522076019471       98.64923644243093      117.46106917157812
C          101.95742312110443       98.10457869421923      116.18098086635332
C          101.51796470983351       96.65880486745517      115.94870847469306
C          102.18692244986653       95.96153325495114      114.76427539164918
C          101.78641462792564       96.53316948693768      113.40771856342846
C          102.24810716724342       95.65212017157533      112.24795949838861
C          101.81256997713399       96.21786757741036      110.89860188473419
C          102.25057031327492       95.35850734748500      109.71507630672299
C          101.76649892506148       95.95196189015189      108.39222626691281
C          102.22576410106993       95.16769620166966      107.16192817447309
C          103.69935195923502       95.38011655823077      106.82003502581028
C          104.10145940483204       94.61872472432167      105.55865699234582
C          105.54598504602404       94.89905248284902      105.14989760019448
C          105.97031863411621       94.04387794214090      103.95719563240357
C          107.35429532110599       94.38992498361260      103.40564851214585
C          108.48487803023013       94.16434961991396      104.40704953205849
C          109.86108132244239       94.39934008939808      103.78748986646670
C          110.98223268356674       94.12847952067240      104.78790142963391
C          112.37183469789700       94.33291483005546      104.19024755422546
C          113.47446243723520       94.00139385183301      105.19360329787204
C          114.86850215957253       94.18366048387855      104.59920081181762
C          115.96972090897029       93.89335709382523      105.61663158338922
C          117.35765881366554       93.94707176348163      104.98900523746308
H          115.90623858255009       94.61872133104065      106.43178151162554
H          115.80845125327062       92.90232031797188      106.04718193847762
H          114.98531113209279       93.51583974295441      103.74229286463510
H          114.97306062455520       95.20881112652448      104.23483750854651
H          113.37023068761341       94.64284393054304      106.07129676803540
H          113.35878127306731       92.96696932196285      105.52648302822065
H          112.48296647328824       93.69634290544509      103.30913597519830
H          112.48030431443313       95.36985606016465      103.86427971449586
H          110.86174918604443       94.78627774345843      105.65159884055011
H          110.89735292784354       93.09986539634208      105.14682345076038
H          109.98577156428541       93.74638810731244      102.92029462872472
H          109.92770701872942       95.43121426412287      103.43439789023084
H          108.36576380555252       94.83837408799124      105.25670897679235
H          108.42977217247852       93.14030081610829      104.78407669239397
H          107.53880794607004       93.77217721988733      102.52290976014453
H          107.36226298494073       95.43218835295320      103.07807853241168
H          105.95476891831797       92.99071674361323      104.24901489745758
H          105.23772430361446       94.17353324919777      103.15612532809980
H          105.64782685783921       95.95671927457234      104.89705679669315
H          106.19814175537935       94.69432006380838      106.00090606782555
H          103.97419257465315       93.54687900060678      105.73039007826648
H          103.43586256611721       94.89741051480081      104.73765901841018
H          103.88336108788569       96.44650881509106      106.67085214343560
H          104.32559063531988       95.04753145491279      107.64908623848063
H          102.03907298727941       94.10302466589430      107.32064225302469
H          101.62449127882395       95.48040852655757      106.30411077883207
H          100.67379155586696       95.97842079160496      108.40645346064268
H          102.11651107656540       96.98385322762282      108.30658766225527
H          103.33893080810519       95.27796062026493      109.71306285160745
H          101.84676119122933       94.34954821303258      109.82659704785901
H          100.72357235356137       96.31396129220599      110.88791526161994
H          102.23442987225125       97.21799461991023      110.77661198969746
H          103.33546175365410       95.56218296497268      112.27259693941023
H          101.83315261924065       94.64872922474233      112.36874173377420
H          100.69912093877451       96.63483313403528      113.36611785630427
H          102.21742890324208       97.52805319794456      113.29545476121683
H          103.27242099048672       96.01579043384008      114.87487754098504
H          101.90911746486714       94.90565152844572      114.79123466858213
H          101.74614626593923       96.08615217896956      116.85092619427377
H          100.43383016205361       96.63409368387258      115.81092642966101
H          101.66910432450459       98.72865752251313      115.33367105956948
H          103.04659906541224       98.14147928428895      116.26646709320370
H          101.54159640183013       97.95339371429739      118.27609765809105
H          100.23928071082898       98.67449969896373      117.33784067832889
H          101.62403425708851      100.75308142614062      117.07121981054091
H          102.89298117958775      100.00320151489395      118.03965794117236
H          101.16405443990679       99.66276270841564      119.87732553806859
H          100.05255482023422      100.65345265414216      118.93279534686540
H          102.73244337233459      101.55971340297330      120.07669080028126
H          101.14365679474783      101.89203247272803      120.75426260422863
H          100.61403921854959      102.95275326618220      118.41867724170827
H          102.36109529906530      103.01173907096549      118.21542417935517
H          102.53624754489344      104.32792751310900      120.34015607327304
H          100.78330951823952      104.25166705565141      120.51196640796985
H          100.60101588742116      105.35433778975286      118.23201094154551
H          102.34243310473651      105.61378472080347      118.27980502297208
H          102.08627209226626      107.01589871559358      120.31066920272407
H          100.35793033233290      106.66647427109125      120.34148709000691
H          100.12732103425286      107.71124708229748      118.07735086592143
H          101.83051274110431      108.15848633923233      118.12479670095198
H          101.42178101698657      109.57533198181841      120.11191296760610
H           99.73755911351684      109.05871460305966      120.15162812205453
H           99.39188356099324      110.06221501068792      117.88717976048149
H          101.06158367727852      110.62672951429285      117.89553953868057
H          100.58719947928748      111.98258640317478      119.93361243159242
H           98.92571153272839      111.39670225200260      119.93197579189605
H           98.56662342582005      112.43614872555591      117.69521002662425
H          100.21882249805653      113.05049238459547      117.72529412697388
H           99.64084039201181      114.22329948192161      119.90873070318865
H           97.95686764443238      113.79363193297158      119.63063054839614
H           99.61655618254366      115.39026464722872      117.63776924035908
H           98.70729458630447      116.13787410115617      118.94934398492499
H           96.60522567358176      115.39375878226137      118.05672129131798
H           97.39688278662068      114.33976964013803      116.88444070641624
H           96.54810363205468      116.35523402837839      115.80344929483297
H           98.30037858016800      116.23853243672598      115.66744045612725
H           98.61251487597909      117.92539185542292      117.40210154663967
H           96.88133603055860      117.95671765161354      117.74377525339747
H           96.42248634417130      118.86021995383460      115.50395949917318
H           98.12276707970130      118.70370776837291      115.06003056804421
H           98.78048214408908      120.38772153238985      116.68273911078634
H           97.17454440871630      120.39388058002810      117.40526522040624
H           97.40396931285768      122.37800290771401      116.09645752251019
H           96.22348975695546      121.33210164041911      115.31089508518272
H           97.89458861389490      120.65130157959752      113.63968651306195
H           99.14349488782113      121.58725329857454      114.46811553694441
H           97.85797652983675      123.66742485759690      114.08090841920549
H           96.60104681110154      122.75432206957530      113.25061331280509
H           99.50158176902961      122.92614356077486      112.32109909469411
H           98.20153770914871      123.96518033126310      111.73979240151681
H           96.96566120341819      121.89644566196819      110.97904070045145
H           98.38451003968225      120.94610053511950      111.41627721554248
H           99.75500429196607      122.33107178138157      109.82247561136045
H           98.28151748988998      123.15880113131985      109.32480575499072
H           97.30463235886351      120.95499908942602      108.63758853918569
H           98.80294968947359      120.16405435647503      109.11795275819431
H          100.03553983817986      121.53936092954520      107.40839834106252
H           98.50207045900611      122.26390919315011      106.93212052186210
H           98.85649804903099      120.55482083960169      105.33679751224398
H           97.67217382311222      119.87430586182428      106.44989985145693
H           99.56280665773225      118.69164187131530      107.63728776695079
H          100.67339704484644      119.33567048724748      106.42635320579933
H           99.28522047572662      118.19969368077635      104.64960403025067
H           98.35420251221150      117.42347009117339      105.92224450347040
H          101.37185028551058      117.18116073283925      105.54956532207692
H          100.20989809590016      116.01081107885337      104.94099593707487
H          100.59349839497172      116.71006548501225      107.87749791954744
H          101.37828540634524      115.36197855425054      107.06578370431252
H           98.35747347416770      115.67125390727780      107.30484986407913
H           99.35349749867746      114.75705203736217      108.42598559095249
H          100.13298631395153      113.30977969747057      106.53686240068571
H           99.04017603360333      114.16228928006367      105.45156465580385
H           97.11335718944673      113.49517993853863      106.94302600480177
H           98.24279528963815      112.54258762557403      107.90419099671102
H           98.82869524014203      111.23714907688380      105.82246313043683
H           97.59295469205448      112.14130000349688      104.95298866871877
H           95.89952961080152      111.32347544191430      106.64822950408859
H           97.15165439004382      110.30478566129119      107.34744783415148
H           97.49679668457478      109.26323867576802      105.08459539648645
H           96.09846336479472      110.14546917426723      104.48827096210452
H           95.79404483594396      108.37641453839410      106.92567049035547
H           95.92556949896594      107.63653780604878      105.33706430715552
H           93.62747339772929      107.79773873294963      105.79340754435894
H           94.00645398176471      108.95770695116821      104.52428906462750
H           92.41513743560226      109.93299875707758      106.02611188438445
H           93.93177813933424      110.79783952572654      106.21194295042737
H           94.40284141903351      109.45199226221565      108.28644068752037
H           92.88507041073657      108.59321448597811      108.04019676873403
H           92.31010269321665      110.22419507658302      109.63149638541174
H           91.75814965657966      110.92538924287707      108.11430925273628
H           92.83784968997358      112.71644610428154      109.19051144044614
H           94.06566671129067      112.14606929854749      108.06707567150744
H           95.08234116062137      110.80129571318444      109.95317372953649
H           93.87733643287329      111.49160771414736      111.03765577574148
H           94.71553312717677      113.79174834984548      110.39893875966101
H           96.01004695740923      113.02285963943160      109.48506992154074
H           96.82775937311173      111.93495297593329      111.57549959344905
H           95.50968393239641      112.68783102854013      112.47609632929243
H           96.35987703495874      114.93629022369778      111.77368586357257
H           97.74683712205314      114.15358592375544      111.01636549092730
H           97.07090332129808      113.81911550121760      113.96692319398187
H           98.06883427686638      115.13523756797377      113.36457634435521
H           99.67898162126174      113.47954508257361      112.41624145202336
H           98.66927694618960      112.17198822307986      113.02679808016029
H          100.34113726230714      112.36412364420204      114.66193138402019
H           98.94682107154512      113.18623573058835      115.34988417559973
H          100.71061148927315      114.59758919721737      115.88002172202143
H          100.03105554979494      115.37939304377244      114.45823398966024
H          101.83444107157169      114.40410021564271      113.05925573364878
H          102.42402663435277      113.49965482727933      114.45426436302267
H          102.73382118649654      115.75654630314619      115.63414245505109
H          102.45311987931117      116.51886352993311      114.07040342655172
H          104.37964535935338      115.31256645501590      113.11124918036242
H          104.57189707975127      114.39807964394699      114.60668754680701
H          106.25007891303611      116.00839232729689      114.76121275476837
H          104.96656895318063      116.65925047292716      115.77361171559450
H          104.25775940817775      118.11116116934896      113.81470412316921
H          105.63415463719819      117.48582689227747      112.91232916692458
H          107.13090722851804      118.31486827801254      114.79564519294787
H          105.71639850616847      119.10475860349233      115.49018010631337
H          105.42632853926764      120.25038955295365      113.18928696344116
H          107.05323095116276      119.68424150684913      112.81910946170879
H          106.25630966212776      121.49164754676043      115.14652195641412
H          107.02126520262530      122.01929311303431      113.65016437177815
H          109.01940743155970      120.59834420161742      114.21546690404148
H          108.24006630423898      120.16828145618732      115.73948981478622
H          108.17762934206054      122.53321179508623      116.41486613730197
H          108.88691568937784      123.01518399296165      114.87461430978804
H          110.53749368061989      123.02853963783932      116.69223939259759
H          110.98988318659872      121.89291405406570      115.42444330363082
H          110.28025945695475      119.99752928230731      116.77637610069822
H          109.54029995124914      121.07227203960439      117.96799000047487
H          111.71492100702456      121.92170976816267      118.64183340597407
H          112.50736514885281      121.09506145785957      117.29677404813206
H          112.92967506547275      119.87275822649335      119.35135629010171
H          111.91657942118879      118.89684979940715      118.28871736786547
H          109.90852107195374      119.54038985638836      119.57946382484494
H          110.88702955960055      120.58548225661103      120.60654677788391
H          112.13748191774906      118.59843024155388      121.42996257198494
H          111.19174326763692      117.56015422598901      120.36316987608522
H          109.10548193243508      118.36595638809803      121.49660978603426
H          110.09407465017033      119.27474844171158      122.63432297828133
H          111.20859541842104      117.08941315259274      123.28907229420741
H          110.03853819258629      116.24988817566265      122.27474947333343
H          109.42723343109122      117.96272274498074      124.72788986654852
H          109.32217280660024      116.20609205522572      124.61017307640944
H          107.55203343816606      116.50719296023951      122.82018555687482
H          107.57989278682372      118.23948286198667      123.15475385360830
H          106.93088794406701      117.81806350955200      125.50339791059456
H          106.89232340037938      116.08329210430031      125.18807816927452
H          105.14808787782559      116.44587015604426      123.44162504610672
H          105.17112526810638      118.17341599155587      123.77797158337320
H          104.35711138918028      117.78072231216885      126.06604578940593
H          104.47584141264569      116.03661415011304      125.84199991391398
H          102.79085701186852      116.11752543165990      124.05086756770410
H          102.67569514870704      117.87239031335652      124.20309356218094
H          101.83244472791422      117.65653538147700      126.49872847225703
H          102.01012060607837      115.90482016571497      126.43747548470299
H          100.22769881878583      117.46091610030857      124.51658820836052
H           99.65243730583011      116.82620631568200      126.05550179422090
H          100.19431274480272      114.53223923345529      125.36710984335080
H          100.85410403563924      115.11177194813096      123.83816531377580
H           98.65498879388204      115.99357721750093      123.17809180524523
H           97.96592808106821      115.50727051867054      124.72522853171193
H           98.41657316368486      113.13455062901738      124.21656821088860
H           99.20265530838796      113.58354390933835      122.70605977068513
H           97.08648441479610      114.51024797209810      121.84312242165430
H           96.27670859044149      114.14608674250876      123.36530478102998
H           96.60082800489920      111.74403002611523      123.03314035095401
H           97.61686104272381      112.04330568022831      121.62474224423579
H           95.70774200952441      112.96720239252257      120.38393632274851
H           94.68422338867340      112.84885854895178      121.81341047314075
H           94.17219037897745      111.03220084286225      120.29386221476859
H           94.87735544187009      110.37847408359275      121.77111754243843
H           97.02692058878729      110.03987289075124      120.66486440817035
H           96.46580601718244      110.88050153875025      119.21893534946234
H           94.84149269056851      109.08962841718241      118.76960870050620
H           95.22766261213178      108.31126583300362      120.30274640418796
H           97.53889939698369      107.89745967357264      119.54957327187734
H           97.22542129488600      108.73445483915795      118.03549700575719
H           95.61033133161064      107.02465123276775      117.35644979880557
H           95.70397991745791      106.25206301375599      118.93876562470027
H           98.08846061143252      105.72760402574870      118.57286543542040
H           98.04376184171286      106.52074125829343      116.99912202573013
H           96.53139492901488      104.85530075397101      116.10802172191566
H           96.25807376892877      104.15381714023897      117.70330976337694
H           98.58539236933690      103.45522366689420      117.86766166963567
H           98.97650627073865      104.22597336247372      116.32833115652598
H           96.99669211520046      101.93209557991779      116.61679306295683
H           98.70949311027729      101.72097724926977      116.25089077138877
H           98.37036940650680      103.26642426616040      114.25035131899712
H           96.63252907219889      103.11693867507120      114.51868959729113
H           98.54738204300119      100.80386480024696      113.99042995381336
H           97.50333827313402      101.56061518648322      112.78958394206335
H           95.50307831992519      100.88640562659545      114.13632253276631
H           96.56946371813878      100.04890807510066      115.26540369780891
H           95.63993996186288       98.45441569600295      113.61967931162889
H           96.29727809927523       99.41153629962821      112.29183713403222
H           97.38630480657393       98.58991438653287      113.41167587498349
H          117.45340686882720       93.18979064219117      104.21384719857477
H          117.53937146023047       94.91957050852271      104.53708610558287
H          118.12495343783705       93.76830608780823      105.73910026778675
C          126.56995155270103      110.36473458232540      105.07246393054018
C          125.65080061717175      111.54055273560536      104.76345171967213
C          125.06087865001371      111.49806519608751      103.35369955041020
C          124.10363653366747      110.32952211775728      103.13349638357944
C          123.45867955015707      110.37135561132153      101.74951688671445
C          122.54830707602599      109.16698787270825      101.52479182545171
C          121.92589400012623      109.10953615634831      100.12985949509606
C          120.93977699426804      110.24678140847300       99.87022909802184
C          120.04755083899558      109.98129750779583       98.65921133682178
C          119.06374246612995      111.12804986438877       98.43433450565755
C          117.92141533202032      110.76742236221783       97.48687811777563
C          116.82814670535436      111.83212512013183       97.52078189970739
C          115.63770806235350      111.49923083517251       96.62634365987851
C          114.50651719501275      112.50691725609769       96.81477758857315
C          113.31998562761649      112.22586162651237       95.89795803427089
C          112.21065357479257      113.27130199872330       96.01249251539768
C          111.44420413816211      113.20994080902291       97.33186850818664
C          110.30617366926504      114.22607006296815       97.36452987681912
C          109.52023701075917      114.19121164835897       98.67298544267497
C          108.45233330310879      115.28061959668004       98.70508279645367
C          107.69178709329972      115.34168152087189      100.02749995042068