3864
 energy: -5104.258079481513 gnorm: 0.000997276507 xtb: 6.6.1 (8d0f1dd)
C           48.82236323664322       53.70770990789967       34.09865315099965
C           49.55229357799094       52.68277445986444       34.69032569212624
C           49.07884562701119       51.38204806596018       34.56951240236947
C           47.90796654421228       51.10775641888686       33.88412667320180
C           47.19472301334462       52.13658773161422       33.29416340902512
C           47.65743260933058       53.43794883203336       33.40407029969691
C           50.84067147540932       52.96611610580693       35.42090442479724
C           51.88229647040787       53.53448551769033       34.45380656875450
C           50.62726483282597       53.92089580142699       36.60122588591911
C           49.78083488718215       53.29540613936432       37.71808027952770
C           50.53020238387153       52.15831270692377       38.36879263210056
C           51.61818091075596       52.40031901747603       39.19986967380508
C           52.30801182932620       51.35586474448332       39.78852698818816
C           51.92849676585205       50.04564832525323       39.54816696304704
C           50.84836931806403       49.79071404666100       38.72135002430073
C           50.15179898653547       50.83996634134830       38.14624630260348
C           49.37224658088549       54.34613652138459       38.76429113179021
C           48.11919049582778       55.14061944631486       38.36857652913548
C           48.43157071747529       56.32245049556183       37.48552644658524
C           47.80902866547511       56.44581955301283       36.24806398119105
C           48.06281817279680       57.53081421636739       35.42752078479520
C           48.94269407233713       58.51853174232250       35.83637976694698
C           49.56121814407589       58.41163279638090       37.07026498518548
C           49.30656233536531       57.32478428203652       37.88733744943774
C           47.33202940032051       55.63718003823119       39.59587234298998
C           46.78793812467338       54.53771948925730       40.53085170393085
C           45.70000422458784       55.10530885996226       41.40848098942309
C           45.82371050028991       55.07934663393257       42.79076683117626
C           44.80085584372149       55.53725488968805       43.60257795294920
C           43.64236264812190       56.05071382878950       43.04619653189152
C           43.51029579773073       56.08646516791659       41.66805306086901
C           44.52655319784279       55.61170712012811       40.85889722880645
C           46.24319815608577       53.33414658745964       39.74993554287808
C           45.56685361881279       52.28214535494861       40.63360330516557
C           46.49708991924251       51.69480751487928       41.66885738552222
C           46.08223552015215       51.59178422719872       42.99119367471668
C           46.87878030159475       50.98356817829139       43.94538422453378
C           48.11146731493611       50.46502898288524       43.58919807848820
C           48.53873811976495       50.56271533903848       42.27555369619284
C           47.73762291120914       51.16939999676339       41.32452634932142
C           45.00991452609178       51.12594515742724       39.78417632178640
C           43.67378611272349       51.42688970488689       39.09083063982816
C           43.79656012609041       52.43565216626732       37.97944544190845
C           43.04792847615577       53.60706045086675       38.00828151718542
C           43.15410194887295       54.54558142819935       36.99708495992673
C           44.01539955289478       54.32754234850589       35.93541776077009
C           44.75694988227001       53.15910125918560       35.88695938643043
C           44.64107456341950       52.21963660315365       36.89528109519515
C           43.08008526541258       50.12037702663330       38.54660103876686
C           41.67246937880481       50.31157932573587       37.97166222398702
C           40.69776075772365       50.72592482545249       39.04483187555174
C           40.52473958281257       49.97934788068870       40.20480303556306
C           39.64546810906321       50.39412939707804       41.18924752197194
C           38.91597456642780       51.55895950778760       41.02764338061991
C           39.06038463589323       52.29841908096839       39.86706892410171
C           39.94434058297994       51.88323303455279       38.88668683184289
C           41.20719869232374       49.02919294546923       37.26488003956477
C           41.83146339583671       48.89523452585207       35.86596024572296
C           41.16089093508739       49.86355176515206       34.92695858459783
C           39.86255770487617       49.64606559579115       34.47932029704846
C           39.24148539416159       50.55491764580572       33.64228801151853
C           39.90582340443298       51.70324471577403       33.24393667508636
C           41.19728658033116       51.93183146736520       33.68529530844076
C           41.81880593007080       51.01661582578654       34.51691478004437
C           41.74773428726138       47.45041219071734       35.35346233098931
C           42.84072479761124       46.57075764199264       35.97051455652614
C           44.21977863528978       46.93961078175876       35.47461496963042
C           45.23040642494471       47.24189799323926       36.37853144538098
C           46.52785312995079       47.46971022766781       35.95575820352649
C           46.83653119414196       47.40711868277979       34.60850752702213
C           45.83489937801372       47.13134055139268       33.69244316850128
C           44.54065045404607       46.89578002712968       34.12219241900040
C           42.61780735540939       45.07586386241335       35.68425131164198
C           41.67554317044601       44.35449211596838       36.66432383181249
C           40.23847035948040       44.74980334214214       36.46109863490580
C           39.53701458600099       44.37888307288051       35.31955441551840
C           38.21936846129883       44.76051081888442       35.14317878332342
C           37.58164733621474       45.52921991093373       36.10211176285086
C           38.26960263121698       45.90863236218553       37.24104865018933
C           39.58318568608346       45.51412295672812       37.41983229937080
C           41.91438836870025       42.84540513130149       36.49153082910789
C           40.87965784669986       41.90380546841510       37.12534749404792
C           41.31955373913998       40.49548465914863       36.80676911570008
C           40.56701882130645       39.69509864336501       35.95727791973389
C           41.00787165745979       38.43458483959478       35.59084443101629
C           42.22210830929155       37.96102676386316       36.05596156728392
C           42.97935713235059       38.74936735456146       36.90674312410991
C           42.52699903927702       39.99933418001083       37.28613272719151
C           40.68851386883755       42.13140723984890       38.62917767130823
C           39.63861824119801       41.17488504021419       39.21029246890314
C           38.36556259379110       41.16680086121342       38.39823021104407
C           37.65783936574918       42.33817027871689       38.15123240128256
C           36.47177029644811       42.31361037977859       37.44162357700789
C           35.96869931523801       41.11433406315163       36.96614058990382
C           36.66124881186733       39.94013421081027       37.20963766053774
C           37.84645374092509       39.96843942519030       37.92432736017833
C           39.23883363268151       41.53003380886426       40.65147634005324
C           40.30837823056728       41.31807913990412       41.73287707387884
C           39.85677463805570       41.96731186671050       43.02029413093168
C           40.68157977649862       42.85550987090851       43.69837490669502
C           40.28083347831188       43.43991989339418       44.88765241274104
C           39.03619289202361       43.14604473310728       45.41513361679357
C           38.19684963480157       42.27300524824888       44.74532317396866
C           38.60987317912148       41.68255880885039       43.56551332594937
C           40.58115790994623       39.82802535454845       41.97695184659492
C           41.81028282823507       39.59664598539983       42.86719322316701
C           43.06692454113014       40.06695729781881       42.17915708850183
C           43.48621719321974       39.50716985257390       40.97729707016437
C           44.64049903486217       39.94975139127519       40.35571469274792
C           45.38824643459119       40.97066917675142       40.91752465136250
C           44.98267898574380       41.53522151327130       42.11336865386390
C           43.83486927973754       41.08120915028738       42.73754347443268
C           41.90175987439788       38.11211589256897       43.24408631278604
C           43.11935840659801       37.78457988295568       44.11610112448805
C           43.17111226566620       38.64040188483264       45.35996061378520
C           42.12250387539552       38.64172116436171       46.27157574251136
C           42.18814032747515       39.39585537727288       47.42856267765409
C           43.31168839377844       40.15594930198188       47.70272585617494
C           44.36414848093435       40.16358891038593       46.80331418822426
C           44.29025414513657       39.41515533884599       45.64097084635473
C           43.11881991326254       36.30746936641667       44.54915045407712
C           43.32322485610976       35.28471887413328       43.42014454510848
C           42.95678970243112       33.90531707267748       43.90926019783242
C           41.94849384252599       33.18586914859641       43.27953953251200
C           41.59820543995053       31.91932261075068       43.71428943531181
C           42.24297675348672       31.35616632343579       44.80144774287690
C           43.24592511660533       32.06585705820675       45.43901305440788
C           43.60458817033534       33.32486632490511       44.99413483849436
C           44.75977570543164       35.31534773723974       42.88640010099216
C           44.99338885353433       34.30213842566573       41.75976041551358
C           44.00342801033486       34.46619782915838       40.63368465883187
C           43.35398688724344       33.35372038431058       40.11408028652694
C           42.45069929207752       33.47589269106259       39.07303413636755
C           42.17033230932058       34.72256187414852       38.54142138159280
C           42.81425208708068       35.83879806294021       39.04694939341435
C           43.73327216854760       35.70892965334052       40.07219770010271
C           46.42381908788219       34.40782014321589       41.19599275153364
C           47.42796895847741       33.47212299106143       41.88241971146405
C           47.70229460292911       33.91512476850597       43.29797721525849
C           47.22900376981942       33.19057364721855       44.38516008165344
C           47.51003750839581       33.59242097098859       45.67994214022510
C           48.27575542019803       34.72219998208176       45.90632457297507
C           48.74855641517937       35.45393112737902       44.83105838624476
C           48.45738733544665       35.05761634149759       43.53967334491069
C           48.74948138613605       33.40163049870999       41.09310103919658
C           48.82409195687119       32.24993177206504       40.07756559568573
H           51.22805189678549       52.02010056234634       35.81615976247402
H           51.60285644595069       54.19818869176719       37.00443369989075
H           50.14147187563513       54.83402248751256       36.25450683466863
H           48.87201909185861       52.88633157577522       37.25864541112603
H           49.16928893284511       53.82864062763937       39.70140895853342
H           50.20454638642563       55.03001652723555       38.93468839206080
H           47.45699244674582       54.48335120194098       37.79557575583725
H           47.95521843760862       56.31403069999716       40.18499079184084
H           46.49281219760159       56.22738903810964       39.22007358205756
H           47.59584823977661       54.18999251795247       41.18416422815264
H           47.05641461643764       52.85523966749246       39.20570862262164
H           44.72780157613622       52.75223329304515       41.15909819413440
H           45.75552350510352       50.82720992458940       39.04533749310963
H           44.84510562400951       50.27271574763778       40.44560282171211
H           42.98201319543526       51.82528281826885       39.84254353555774
H           43.73697129806605       49.72862931764222       37.76852081108354
H           43.04457037034740       49.38304845047240       39.35050508627747
H           41.70487404610731       51.11234564467138       37.22397581811200
H           41.47315231652357       48.16641068962340       37.87655490002543
H           40.11928515352941       49.03954542551917       37.16432824717754
H           42.89122792071122       49.16489101086979       35.92001958176981
H           42.82668179211110       46.71251817218438       37.05563927065974
H           42.24680232601116       44.95229353420068       34.66504077230471
H           43.58756766127283       44.57578714225980       35.74494570491510
H           41.96462426214837       44.63508604800895       37.68232706216230
H           41.94418549450069       42.61394793182293       35.42286065682299
H           42.90296810318812       42.61896405410407       36.89597392712915
H           39.91440812302861       42.08096185696536       36.63868475718145
H           41.63683669839470       41.98345153375283       39.14861161151687
H           40.36695268299031       43.16092719881379       38.78865694369208
H           40.05300087028618       40.16187977572827       39.18772159207841
H           38.92295678978871       42.57613649209198       40.67190072638092
H           38.36766636506572       40.91988265315112       40.89550514831817
H           41.24153799555056       41.79214778514245       41.41257888188196
H           39.70675238147661       39.38044616737989       42.45399834170853
H           40.72776333876930       39.31938962135234       41.02333013988541
H           41.68355120849054       40.17545559141139       43.78949180110217
H           40.98986343773944       37.82950112603340       43.77447459791427
H           41.94952112174249       37.52164918137870       42.32735116061797
H           44.02074280469971       37.98939644540751       43.53026452143740
H           43.90586427569302       36.16890166502792       45.29511035170282
H           42.16327949975328       36.09276709264263       45.03443288717899
H           42.64969494072361       35.52873671173770       42.59310148486874
H           44.97654904685260       36.31799942726028       42.51585394037000
H           45.45692566124733       35.10335941540427       43.69803100603804
H           44.85688080210225       33.29666525752823       42.17389042661480
H           46.40033649618085       34.16158693237139       40.13246751260462
H           46.77465982950050       35.43597805819535       41.29797027199302
H           49.16572627799786       54.72900772641120       34.17671591286853
H           47.10589659656955       54.24705684128984       32.94520346486691
H           46.28504999112295       51.92395589030419       32.74984386950867
H           47.54912048360769       50.09095615062081       33.80921887361431
H           49.63661392418192       50.56972261097084       35.01547210405898
H           51.92491344023650       53.41589308695811       39.39686856334222
H           53.14793013976231       51.56895422314444       40.43281313551336
H           52.46755064554217       49.22475973248276       40.00080282400337
H           50.54915030586212       48.77156878653399       38.52111364736005
H           49.30086569204824       50.63303784343653       37.51030264503142
H           47.12078777529172       55.67731739681261       35.92102751333526
H           47.57330121250288       57.60636276036763       34.46603055984446
H           49.14262489132954       59.36723022614180       35.19737804882200
H           50.24597325934062       59.18098457640624       37.39725480948293
H           49.79671191206373       57.26454531501545       38.84787955902694
H           46.72596652705871       54.68059538553481       43.23365993730281
H           44.89991002969433       55.48336202982384       44.67629803134418
H           42.84676771212056       56.41390760649055       43.68219208150307
H           42.60561662980738       56.47873314434312       41.22247253429648
H           44.39538031176190       55.62646164064911       39.78563681855643
H           45.51927782647407       53.69173286266341       39.01915522237278
H           45.11873796007659       51.98866414351761       43.27980070839010
H           46.52684198033177       50.91214434104666       44.96500565656864
H           48.73624720212125       49.98640184637189       44.33047283666855
H           49.49923188701773       50.16065154538095       41.98349099234721
H           48.08821365285264       51.22368815658537       40.30331476775255
H           42.37988993787300       53.78663985054160       38.83961896517954
H           42.56658081818516       55.45255286276860       37.03804502661934
H           44.10655938271191       55.06344444533317       35.14890598555273
H           45.43216641533950       52.97900832317152       35.06204487096812
H           45.22725849540186       51.31364018210488       36.83557371773924
H           41.08575509340580       49.06717727053797       40.34822479762228
H           39.52744048129348       49.80874234457504       42.08868905709414
H           38.23934480983721       51.89355437050562       41.80126662817899
H           38.48526424807156       53.20318731146127       39.72751251662059
H           40.05653263835382       52.46744846178254       37.98260193534217
H           39.33129660632545       48.75688812799815       34.78696461331496
H           38.23295508146861       50.36966848231604       33.30043608672803
H           39.41836523120417       52.41482595567500       32.59309415208271
H           41.72354557114900       52.82629835323792       33.38324285018731
H           42.82866046729514       51.20617180218763       34.85481461768160
H           40.77042234781084       47.03181317551574       35.59211150212951
H           41.85102951009222       47.45112790558827       34.26624042813360
H           44.99765591865748       47.28451474172494       37.43169895181720
H           47.30274339689804       47.68021860128358       36.67874399902983
H           47.85328936671753       47.55940960371989       34.27475172344543
H           46.06645650880233       47.08377535252681       32.63715990078039
H           43.77856299149850       46.65868206169398       33.39371032700650
H           40.02321736849212       43.78688699763712       34.55753556759453
H           37.68692866304487       44.45895482838799       34.25186857711840
H           36.55329167750089       45.83011455028531       35.96120237228635
H           37.78175137480113       46.51146544073735       37.99229765790783
H           40.11163157003566       45.81459620767415       38.31420792046862
H           39.62431549235372       40.06423048435657       35.57615067889664
H           40.40644132700131       37.82574587623747       34.93004370289331
H           42.57587570523243       36.98378469063326       35.75872807072907
H           43.93440904277072       38.39175078353271       37.26545673347434
H           43.12897580569942       40.59684546244493       37.95456009250517
H           38.02999920939767       43.28624895317363       38.50773694075770
H           35.93695038010483       43.23525447439055       37.26448715388199
H           35.04056975530439       41.09428866676171       36.41251582747333
H           36.27886170101809       38.99793923030902       36.84006829359228
H           38.37824391599757       39.04475467481502       38.11016492321990
H           41.65525363056158       43.08569863311610       43.28948958222234
H           40.94069026337455       44.12289714461769       45.40370273978267
H           38.72245934741806       43.59867492609606       46.34446695706916
H           37.21448779222520       42.04855243360480       45.13549491920213
H           37.94543993991903       40.99173761284224       43.06713646270249
H           42.90697207438532       38.71903766748167       40.51704744955304
H           44.96035998612717       39.49670119083318       39.42654084552252
H           46.28276810446856       41.32473653964886       40.42930330051281
H           45.56456919440048       42.33065721862457       42.55789492420622
H           43.52794828127062       41.51818283695491       43.67655995574702
H           41.23860248206180       38.05019195676111       46.08614474728394
H           41.35278581066012       39.38371154005472       48.11311705361794
H           43.36599793631034       40.74427144041510       48.60705269020302
H           45.24444556147469       40.75844320324542       47.00523276280860
H           45.11333485863253       39.44030473645815       44.94056378729008
H           41.43293877999004       33.61574764574953       42.43166048570961
H           40.82004396194052       31.37150726514032       43.20006969705538
H           41.96701405451167       30.37084230885910       45.14916838340739
H           43.74865838757706       31.63031725919402       46.29028919681942
H           44.39877139552242       33.85735895528716       45.49612430839166
H           43.55432303499605       32.37763523490320       40.53459329714412
H           41.95685198868718       32.59642332056307       38.68194586786288
H           41.45175423341152       34.82718301545387       37.74061705144500
H           42.59261667215859       36.81277270817916       38.63452393151178
H           44.23714636629272       36.58877884400965       40.44421463535710
H           48.82597131426134       35.64038786323282       42.70870654847614
H           49.34805284205138       36.33813266285568       44.99489154159721
H           48.50879553022447       35.02401279216566       46.91574198360149
H           47.13604602607325       33.01862675816248       46.51566150892214
H           46.62827996571573       32.30603117782988       44.22058952770771
H           51.59266727753029       54.52528507032547       34.11072630575110
H           52.85021656072667       53.60483997985038       34.94495403383313
H           51.98988923993561       52.88795031617158       33.58480947564818
H           46.98398063324265       32.47196444649758       41.90965506077922
H           48.91219711634920       34.34508454113912       40.57125329161962
H           49.57654235328717       33.27319371597067       41.79663167103313
C           50.26584450806669       32.13986120415901       39.56658166284360
C           47.83329709147610       32.43233219828038       38.95768579113708
C           46.73194474955357       31.59053232919556       38.85590840885720
C           45.79104797631455       31.76353114324852       37.85640087010682
C           45.94631097713874       32.77658164927511       36.92684938451223
C           47.04721503152219       33.61216935652724       37.00655805132464
C           47.97645917754350       33.44669534518727       38.01685886792934
H           46.60885898121164       30.78795579427167       39.57030085128431
H           44.93603207931447       31.10482737520948       37.80011064422949
H           45.21446081454094       32.91239438829544       36.14351818211365
H           47.17988817263345       34.40189146151299       36.28160604502760
H           48.81780107075429       34.12156850398085       38.07128605181341
C           50.48747478129006       30.97228321646169       38.60035007793983
H           50.56220901440691       33.06574747592234       39.07121963507846
H           50.93071966732318       32.00942281059064       40.42338380220270
C           51.94615739994271       30.90543143464971       38.25135201361127
C           52.47390733013140       31.73551118345627       37.27012745024207
C           53.82984600426106       31.73650468583311       36.99673266992785
C           54.68348424842780       30.90903146780533       37.70716468121510
C           54.16735014458479       30.07236994963591       38.68261064677709
C           52.80953203025756       30.07260250714815       38.95190098209194
H           51.81819043425052       32.39019914594390       36.71384554084202
H           54.21884748452533       32.38872900671971       36.22881066084758
H           55.74587642084712       30.91929041337688       37.50807838523552
H           54.82840712593625       29.42311223577193       39.23945327438439
H           52.41466987114247       29.42286423557661       39.72049225139975
H           48.58214102605847       31.31448633112977       40.59569464708532
H           50.16909428021016       30.04179155604751       39.07507520772966
H           49.88611624983825       31.12181298230148       37.70085984179656
C           47.31640542298486       64.01648354015954       57.38073440175964
C           46.00223549695117       63.95154106031953       57.82712869704931
C           45.60120679461227       64.82909874402404       58.82716641761483
C           46.48709001699082       65.74730723138329       59.36260311448493
C           47.79452985734853       65.80074837753952       58.90995124686268
C           48.20578973291311       64.93144430251250       57.91488367566988
C           45.06067109943194       62.92166533316930       57.25717837508424
C           44.78718945658900       61.84014173708837       58.30693843422876
C           43.73605752233902       63.51997923155572       56.76387163046822
C           43.90319691795950       64.69523855380358       55.78544047429585
C           44.91672345539246       64.36567447714201       54.72120005119568
C           44.71435329551306       63.33139415893796       53.81515066440159
C           45.68404473260875       63.00983750780543       52.88278014732287
C           46.87771182771768       63.71051974621708       52.84806309429084
C           47.08460056514555       64.75112919135314       53.73691939986747
C           46.10745899918740       65.07870693044393       54.65907348229813
C           42.53558469693048       65.06080621098548       55.19063875467403
C           42.59448945416038       66.21318980847074       54.17704084627495
C           43.19249938702466       67.45502044619572       54.78468413171186
C           44.34042457012103       68.02377165526462       54.24796713077563
C           44.87848741967966       69.17936518777510       54.78634128717104
C           44.28020388794648       69.78204975096450       55.87870610414377
C           43.13727589239573       69.22285684545619       56.42525430864421
C           42.59748453004143       68.07282865434890       55.87909905014661
C           41.18449893659027       66.49655958054154       53.60525336074310
C           41.11246859580024       66.28671677909603       52.08456070661180
C           39.68733334147364       66.07772652529208       51.63832143588844
C           38.72297312058677       67.06538996236107       51.80085826950369
C           37.41950853167264       66.85638801664680       51.38730940541510
C           37.05559344934439       65.65297904855032       50.80620458398089
C           38.00427422087449       64.65834934019480       50.64578843290192
C           39.30649589908170       64.87324478031891       51.06048733093042
C           41.76185322143166       67.45589434297695       51.33262241936808
C           41.95276851406727       67.14468943414194       49.84048462129096
C           42.81181657163744       65.91758964019014       49.68335057015401
C           42.29226380519106       64.76992624915036       49.09837772058692
C           43.04280611730366       63.60972027168707       49.02275375541866
C           44.33289668138446       63.58422753757921       49.52396290158961
C           44.87111065447084       64.73127505238472       50.08181779025991
C           44.11661032916972       65.88672633384927       50.16204487635468
C           42.55161003964992       68.35689385838477       49.11421281798118
C           42.83931865872197       68.07362862211998       47.63705254932021
C           41.63423931306940       67.58277871794374       46.87059849686145
C           41.80616702745043       66.60374055928961       45.89911104094202
C           40.74538790317609       66.16539988289797       45.12836600443921
C           39.48301022835115       66.69671429540651       45.32656942927842
C           39.29739228687339       67.67532942218369       46.28821504334526
C           40.36571973911625       68.12088657292342       47.04693222124716
C           43.39378021772247       69.30644475403894       46.89905764264195
C           44.86544159443414       69.62545653619978       47.21555990459635
C           45.02758580119953       70.39349074390725       48.50185978646719
C           45.71774472709596       69.83712589715701       49.57326611322125
C           45.89205309006147       70.54021757149636       50.75188674261563
C           45.37696032479531       71.81809394277761       50.87944158933323
C           44.68425494709538       72.38284912378289       49.82167112192254
C           44.51162320884424       71.67605549525727       48.64527287798889
C           45.49188237758030       70.39044180940841       46.03660513696313
C           46.96994518645673       70.74683716445882       46.26096163828341
C           47.44137461184698       71.71978285332256       45.21031550274011
C           47.39531311026099       71.38863377691224       43.85998636505585
C           47.85214926258236       72.27095604691475       42.89842171575808