3258
 energy: -3427.520677289537 gnorm: 0.000942413684 xtb: 6.6.1 (8d0f1dd)
C          103.16110207322480      120.54658223548402      119.43299397450842
C          103.56105034091885      119.97544001055694      118.07767612240906
C          104.03118224652061      118.52221791259902      118.14342931694543
C          102.94375826117661      117.54672635467747      118.58866980899251
C          103.38092995600400      116.09337098539127      118.41925196748394
C          102.29150682973014      115.11242046527302      118.84408141381080
C          102.66656920976367      113.66375587280129      118.54092233382634
C          101.52384068981328      112.70176219426838      118.85431921524922
C          101.78521098360609      111.29043150254645      118.33558564035732
C          100.56958360708684      110.38911852077138      118.53967547701835
C          100.71208834566052      109.02506941102790      117.86318060304191
C          100.53152427988449      109.05998910178033      116.34286911089038
C           99.07197015476039      109.15667541861342      115.90021061506945
C           98.91003059470026      109.26835819770876      114.38081118376677
C           99.49665597949681      108.07636350463628      113.62642912169250
C           99.13497706783033      108.05797906931542      112.14309476476886
C           99.77599829476657      106.86662712833407      111.43205725579274
C           99.34540316773408      106.73070441221952      109.97271332112632
C          100.04591908210661      105.55426220006227      109.29444795981982
C           99.63439817649400      105.38110374549970      107.83456606878443
C          100.39440956417587      104.24585636768700      107.15060093821965
C          100.01141252346993      104.10233656667300      105.67958931822260
C          100.86341896817419      103.07070420021103      104.94470422532467
C          100.44149387943204      102.92486518311743      103.48406953720048
C          101.41116439472393      102.06505271967023      102.67795148446844
C          100.92979056848131      101.84801454973187      101.24442644270380
C          101.98890349240932      101.18135169158195      100.36350248253629
C          103.02367100106710      102.18392419865309       99.85616335595687
C          104.16638920214490      101.54659084735310       99.06448644131390
C          105.18938344234205      100.84682209651217       99.95453963249214
C          106.40299677741730      100.34605607297192       99.17626747833111
C          107.37743572354309       99.54498270196345      100.04205501434264
C          108.07144423512156      100.39699304075432      101.10073937283362
C          109.09183724339283       99.62286121933342      101.93634155125986
C          110.23674372971593       99.04493088837785      101.09965838272433
C          111.55138804869293       98.93237671771712      101.87002989936283
C          111.51708960351151       97.94159729247109      103.02910413336046
C          112.85198615381178       97.90509879726149      103.77194061925596
C          112.77335816231869       97.10071670948120      105.06700359717813
C          114.09548284790512       97.10195722264346      105.83289865572772
C          113.94553346638050       96.49884003607009      107.22782129933046
C          115.24917229350449       96.54650488181198      108.02338134040127
C          115.06584221184038       96.16943236776373      109.49447845407556
C          114.81430034580593       94.67757663996633      109.70683594360921
C          114.56923930080302       94.31590257263728      111.17359559285781
C          113.18016658505155       94.72594842881220      111.65713127188454
C          112.93789227522184       94.36621313951768      113.12122632934624
C          111.53706343180011       94.76995938399001      113.57351715225980
C          111.30048306210398       94.54415779275968      115.06361092571524
C          109.88142929369097       94.94143142399714      115.46588517172825
C          109.65305402909394       94.87117520857386      116.97407552080054
C          108.19171495937920       95.13584925290284      117.32999400454581
C          107.92982063524005       95.25679418663623      118.83194439185009
C          108.34731482807301       94.04159131066292      119.66410065853577
C          107.76579344084253       92.70549804865624      119.20109200450750
C          106.24538641361234       92.62523384499360      119.30434431621099
C          105.71493146436433       91.30599375704485      118.74692855043973
C          104.20062143927082       91.18142504367867      118.89912450881663
C          103.64912286290162       89.87175829194567      118.33298142635296
C          103.59945505659925       89.80820109445165      116.80474959013026
C          102.51692623189940       90.69703259165867      116.19327396719676
C          102.35995389684750       90.44542244857547      114.69478712226665
C          101.25017855454708       91.29618131686917      114.07798153298985
C          100.88330775211266       90.87207327273201      112.65418588740685
C          101.96248616648693       91.20096663144588      111.62325277276700
C          101.75256227413674       90.49328275229253      110.28298797973014
C          100.44834774168804       90.83746221269729      109.56149061249216
C          100.37875738944643       92.29293886936125      109.10550695364087
C           99.17630143296054       92.58383772274331      108.20577167736811
C           97.84080030522225       92.52852490343530      108.94506521226143
C           96.66990252250299       92.92677916945107      108.04725474966365
C           95.32741214993639       92.96002212523929      108.78210671899804
C           95.27244492705749       94.05199780363128      109.84818411732911
C           93.90955788642601       94.15436594975164      110.53523526343723
C           93.99351570333741       94.89976276997042      111.86941381140767
C           94.36718582469769       96.37402678513139      111.71812225713003
C           94.86107960624517       96.98572368661169      113.02631306981465
C           95.35942848435819       98.41455818933454      112.83302102844567
C           95.90963379672722       99.01915100197719      114.12220268994311
C           96.28644226667859      100.48511829248066      113.92653029615377
C           96.65635541278986      101.20853237651828      115.22034633952902
C           97.87460425333116      100.65036081781207      115.95371178905485
C           99.15389342890209      100.67747829032511      115.12107880936405
C          100.38245225954883      100.35731829212068      115.96882094470848
C          101.68628849358522      100.34037650647421      115.16942049610803
C          101.82416848767789       99.10531183179221      114.28162912137290
C          103.17726235548534       99.01902932638694      113.57513219484724
C          104.35175216173475       98.83541908902373      114.53729952185786
C          105.60332026905516       98.32901414527510      113.82387247367998
C          106.81463777779290       98.19829133102884      114.74952742193216
C          107.45945368625233       99.54425855223374      115.07333311080538
C          108.79833595474675       99.40639949097066      115.79701705197184
C          109.50372927778011      100.75487238584098      115.93452334694032
C          110.93015014042165      100.62703941518677      116.46593758974852
C          111.72738529222164      101.91953134082512      116.28358106474339
C          113.06904786865731      101.88126014603020      117.01588423201090
C          114.06072224464074      102.94946268393544      116.55146073616679
C          113.61272977797587      104.38606619159809      116.81428315291652
C          114.72425476475655      105.38417246142590      116.48979548618165
C          114.27685284883481      106.83618935516226      116.63918003244311
C          115.39456371360285      107.82432767231116      116.30893674016410
C          114.91433282854105      109.27362834415050      116.35330818382977
C          116.00158075922211      110.26510119036928      115.94350932354554
C          115.48621938197034      111.70321681607506      115.90485518263647
C          116.53812003277750      112.68263883004568      115.38882541330786
C          116.00996518518971      114.11294191056184      115.29236221311378
C          117.06080269291590      115.07549642853981      114.74265020041008
C          116.53638896024806      116.50345365675854      114.60787785967369
C          117.61126378786919      117.46790134915848      114.10922921749417
C          117.07258908564006      118.88525278739108      113.92885697742018
C          118.15881907199126      119.87300572285551      113.50815047589688
C          117.59607109357245      121.27653687860511      113.29585395621349
C          118.67453874056118      122.29195681768927      112.92606240862200
C          118.08957526139112      123.67926480562957      112.67728689949587
C          119.15332021241586      124.69931366879192      112.27781112115092
C          118.53724026208592      126.06053883334417      111.96354617954101
C          119.58250308874258      127.09206952369259      111.54550015466987
C          118.96457951647965      128.38713212749860      111.01738898449646
C          118.22227761842784      129.18730020348397      112.08547465250768
C          117.65480229337906      130.48483365228188      111.52271035866551
H          117.40527550098531      128.58905328173813      112.49197659396856
H          118.90750947211194      129.41541539493377      112.90525846718592
H          119.75921799149113      129.01176881364390      110.60155406810973
H          118.27589822716379      128.14845550340002      110.20252974630706
H          120.23118430174725      127.31859242014578      112.39485545818623
H          120.20702230384776      126.66069344804477      110.75939228940038
H          117.81109977825363      125.94520867779261      111.15437984101523
H          117.99856524476492      126.41766133945193      112.84299308965744
H          119.87737324211997      124.80500075796050      113.08914533263039
H          119.69264423899294      124.33501329488915      111.40021373785468
H          117.33895700048244      123.61516079155570      111.88392554728553
H          117.58191541456004      124.02169944482579      113.58246896566946
H          119.40640897178083      122.35495768373391      113.73446156839032
H          119.19902836285202      121.95517824668612      112.02856822891103
H          116.84492556144009      121.24460746665773      112.50154345301164
H          117.09199471949445      121.60383997877956      114.20760032916324
H          118.93462284737460      119.90500658078200      114.27698143650026
H          118.62959948674931      119.52721651735612      112.58459194935695
H          116.28154379420714      118.87624345835172      113.17445202369170
H          116.62278493654634      119.22370482167663      114.86491279598079
H          118.44026146995436      117.48438392536595      114.82113232465483
H          118.00664659316026      117.10930398100741      113.15494277195735
H          115.69156688596196      116.51393678354651      113.91506623120873
H          116.16394069580791      116.84800183794287      115.57530409103502
H          117.93255947275794      115.07130398091994      115.40143477785357
H          117.38895035350892      114.72394983217391      113.76032550548875
H          115.13031252116612      114.13058056292907      114.64520623813488
H          115.68965342002096      114.45129148492553      116.28069818586772
H          117.40991131680545      112.66192224503558      116.04664812815012
H          116.86858427424123      112.35809816603981      114.39868145656762
H          114.60733928409816      111.75146718945975      115.25874736675276
H          115.16708550861040      112.00345356421853      116.90588136961266
H          116.84049590666628      110.19724263404649      116.63984062831004
H          116.37614688263919      109.99334809763279      114.95335208454381
H          114.06143572090340      109.38604320432755      115.68117399879517
H          114.56490723426910      109.50986660089136      117.36092686977992
H          116.21744500685280      107.69145220081226      117.01517265285622
H          115.78161193605244      107.60677890610165      115.30995483144586
H          113.43148068678759      107.01887059568617      115.97232911085194
H          113.93035895896472      107.00626097375324      117.66056999969103
H          115.57459232888753      105.20012187048808      117.15088421822580
H          115.06445138666064      105.22051592704976      115.46370570433182
H          112.73596008451180      104.61361108715056      116.20451073851137
H          113.32830010992247      104.49173559657126      117.86340971197291
H          115.00771302510080      102.78135869756456      117.07025133239866
H          114.24713860272207      102.82442139988555      115.48113501644072
H          112.90152108023078      101.98487022772936      118.09073321593087
H          113.53016413296453      100.90342302929801      116.85044314328215
H          111.90454486039214      102.07339121049425      115.21762483605622
H          111.13360600005916      102.76189996338533      116.64368121798158
H          110.90224072979804      100.35236953752593      117.52293359077892
H          111.43789731105760       99.82078906260996      115.93202258702564
H          109.54143349116156      101.22798537442878      114.94991449118108
H          108.92389900799384      101.40925579244310      116.58971390279697
H          108.64621324989567       98.96394053117976      116.78400152672486
H          109.44218439860249       98.72889252105423      115.22884374413962
H          107.62315474396020      100.07870321481771      114.13407775755806
H          106.78246483294973      100.14733005273941      115.68145671112063
H          106.51716840734704       97.69702101794606      115.67388793939021
H          107.55999999069120       97.56594077905287      114.25966287384213
H          105.38176321067974       97.35249451897506      113.38730626897107
H          105.85738270273922       99.00289791789181      113.00251012262930
H          104.57239809416029       99.78179710499414      115.03246828666508
H          104.07309702418722       98.11398264004298      115.30793156794823
H          103.15226821931043       98.17096141290088      112.88542891734221
H          103.32917670248200       99.91936039553781      112.97555805204765
H          101.68209752493406       98.20856132359791      114.89132981944091
H          101.03837190254976       99.11110678855407      113.52332102202851
H          101.74738833989664      101.24063820933682      114.55491433980110
H          102.52269797387875      100.36389906815110      115.86993753453247
H          100.46140499485831      101.10672221014660      116.76109093780819
H          100.24575786568542       99.38611506211616      116.45223396431729
H           99.07295020049374       99.95445137961278      114.30895072434478
H           99.27499216211126      101.66842705156635      114.67673956157412
H           98.02940920750341      101.24923127061885      116.85523897141653
H           97.67101454972273       99.62756306718519      116.27551580335977
H           96.84407368471679      102.25874588034792      114.98387192104809
H           95.79984447174064      101.16985841280125      115.89840818201748
H           97.10748533187670      100.55986020331979      113.21134642991493
H           95.43051691063270      101.00367296379927      113.48656830062673
H           95.15515397579317       98.94315935987025      114.90776028756702
H           96.78142971154907       98.44656387658752      114.44229598984246
H           96.14059506078453       98.42420832297171      112.06879493418516
H           94.53700350438982       99.03332384342048      112.46761718603783
H           94.05834377170237       96.97567618230934      113.76683090187574
H           95.67663040638931       96.37391675280189      113.41937614550565
H           95.15989424276579       96.47323739228288      110.97576737206528
H           93.50460214899643       96.93479179385724      111.35267127717854
H           93.03589348010163       94.82204509800827      112.38952843833079
H           94.74156313777895       94.40442493217046      112.49457739073453
H           93.19506028300658       94.65146510320992      109.87555631741321
H           93.53540357079170       93.14589456586526      110.72784893893878
H           96.02468586087387       93.84474270553625      110.61099760759667
H           95.52394632591916       95.00445840536155      109.37874344313224
H           94.52882179320711       93.13231102650744      108.05550618130420
H           95.14526417932666       91.98765448448721      109.24571453627183
H           96.86429633064957       93.91482577976070      107.62085642424931
H           96.60502235431505       92.21947925175199      107.21666133078919
H           97.66681960243291       91.52072752735661      109.32544598080946
H           97.89233134366911       93.20566938856528      109.79881634777587
H           99.29703537079975       93.58491855032736      107.78242350600136
H           99.16602219743065       91.87365889476993      107.37578195594747
H          100.33879864587334       92.95103755445766      109.97590606374628
H          101.29283951581733       92.52928911098655      108.55368434940847
H          100.36694916655911       90.19425401196798      108.68116947029755
H           99.60372025872432       90.60973068468378      110.21174747950998
H          102.59163637256209       90.73805680010490      109.62594205444582
H          101.77607643238649       89.41396452707397      110.45543352209134
H          102.00303038728227       92.28003999443897      111.47075825722528
H          102.93457159572807       90.89024087262108      112.01042019061644
H          100.69421418883290       89.79562674479237      112.64534373456536
H           99.95446385376763       91.37295631091315      112.37308362432910
H          100.35836081851004       91.20712272935975      114.70416141693916
H          101.54943149889087       92.34597533149956      114.08061561838402
H          103.31006434203854       90.65184813160077      114.19802289706236
H          102.12775460598210       89.38918637675570      114.53609084776750
H          101.56492996153972       90.49050955417846      116.68919454742932
H          102.75653144970090       91.74886882673134      116.35765690580328
H          104.57176707185712       90.07878783950649      116.38881106282939
H          103.39919427649667       88.77377681050588      116.51334595860949
H          104.26684022335380       89.04840650021087      118.70043831429906
H          102.63796374926662       89.71657253492131      118.71643358328762
H          103.95485819191596       91.23172655440905      119.96232239530146
H          103.71378023106784       92.02657223584795      118.41102778574368
H          105.98681192393828       91.23501454871527      117.69148762862939
H          106.19503089013588       90.47333643882847      119.26793593451815
H          105.94532784857444       92.72694141082066      120.34975316444796
H          105.79801334382893       93.44729867968380      118.74547727120637
H          108.06323439774062       92.51407378359049      118.16916217303948
H          108.20016714270893       91.91288769036777      119.81568497549812
H          109.43758071646144       93.96720533965771      119.65425245212494
H          108.04428405746695       94.21782873305283      120.69900296588273
H          108.46968311671321       96.12783993504134      119.21300364517296
H          106.86482696120100       95.44871954211699      118.98016019773591
H          107.88480669973295       96.07244965460454      116.85652586336073
H          107.56863309449162       94.34331935220423      116.91095304002582
H          109.95109477563078       93.88532751009141      117.33545130894856
H          110.28755652576996       95.61059095590554      117.46876502591994
H          109.68269291478349       95.96101402590433      115.12432592073758
H          109.16889671076704       94.28383682690581      114.96077063012635
H          111.47053042272594       93.49255234494090      115.30451905102473
H          112.01925153589484       95.13138546044740      115.63732537463467
H          111.38062126540810       95.82784923470672      113.34779520666667
H          110.79833887549371       94.20058433591474      113.00540042676914
H          113.07144087651027       93.29095784241991      113.26237350116988
H          113.67935535416936       94.87400211598387      113.74189939509969
H          113.05416987316674       95.80351764665288      111.53507893360982
H          112.42967955181525       94.23076144480832      111.03535641857684
H          114.67602243245911       93.23531112809759      111.29656735392416
H          115.32973868861271       94.79339744159014      111.79640105017073
H          113.95168804923699       94.36047204653207      109.11848212563535
H          115.68393662643344       94.12458379708164      109.34346203961148
H          115.96455641775567       96.45387285317601      110.04757437264314
H          114.23389774140705       96.74659338595345      109.90174489506069
H          115.98417820981987       95.88174316447676      107.56409893678382
H          115.64850480656973       97.56215001625840      107.97388712952841
H          113.17993963477883       97.05733177512948      107.77189362823965
H          113.60074353941043       95.46756632256184      107.13593724871649
H          114.84692360193148       96.54433101904755      105.26951914880368
H          114.45475503773623       98.12999729826831      105.92696607059919
H          111.99556922462853       97.53194235835453      105.70144388805036
H          112.48102309558290       96.07258782173305      104.84238481183735
H          113.62124702667460       97.48286833708404      103.12156015293495
H          113.15440347823569       98.92879064316590      104.00953069337255
H          110.73137319418167       98.23155954577211      103.72853702142295
H          111.27557329077335       96.94420556837861      102.65557963344177
H          112.34191013203595       98.63336644096607      101.17798967966577
H          111.81458281229193       99.91908866652770      102.25861035155802
H          109.95897911561647       98.06251080503095      100.71536013091733
H          110.40704225151015       99.69975251373943      100.24252718782823
H          109.50576499143391      100.30880321150869      102.68035965062948
H          108.58349775237055       98.82154731610315      102.47695924152249
H          108.57625127068195      101.23037761150907      100.60725168910099
H          107.32121163124712      100.81313922159700      101.77535657125203
H          106.83930969799204       98.73156990271734      100.53422119687559
H          108.13367660879781       99.10069370715159       99.39204782635635
H          106.05783051299262       99.71136223153020       98.35629506767380
H          106.93001028414518      101.19691457378980       98.73735011950913
H          105.51803451377957      101.55040097302053      100.72104285267122
H          104.72122330254136       99.99731952563207      100.45341304873031
H          103.75028205818273      100.83396170459291       98.34849222841156
H          104.67854514171475      102.32496670769903       98.49383991577329
H          102.50770293487254      102.89976089227066       99.21403302288418
H          103.44370784200002      102.73878573521846      100.69766129418872
H          102.47359518629354      100.38641338948618      100.93290155388839
H          101.50273546104074      100.72077367266233       99.49937986246013
H          100.03000921352275      101.22936290530006      101.26796917645625
H          100.65287879898372      102.80884955433648      100.80318345913427
H          102.38902702741683      102.54912137554604      102.66763484801616
H          101.52973606797286      101.09383853396790      103.16501682817197
H           99.44510539967730      102.48090248198527      103.44149540483227
H          100.38160676904542      103.91686143917210      103.02799627705686
H          101.91138171737506      103.37321660782732      104.99089169451294
H          100.77565986372986      102.10240670221135      105.44339474669121
H           98.96151218283460      103.81167695890278      105.60726998293617
H          100.11763270531053      105.07073371907497      105.18343644668646
H          101.46751277199033      104.43706026150667      107.22516493144148
H          100.18709288535908      103.30830129098807      107.67116385844402
H           98.56222264597451      105.17690126124893      107.78300114477308
H           99.81489923986322      106.31427402243892      107.29508725066117
H          101.12687908484293      105.70941791197563      109.34545467154638
H           99.81773378004333      104.63750195501996      109.84227595240898
H           98.26289606272523      106.58777792599217      109.92448203878978
H           99.57869723962847      107.65061730600364      109.43190723476368
H          100.86405628256439      106.96581465242525      111.47431227928445
H           99.51076480922528      105.95006460133047      111.96458560833213
H           98.05033742995776      108.00057487242721      112.03776576550675
H           99.46302015553771      108.98865778669644      111.67341781081164
H          100.58364440418133      108.09795102903890      113.71562023897199
H           99.13772071999486      107.15099468723126      114.08490446785646
H           97.84469965575843      109.34953671804736      114.15029955589290
H           99.39258589109986      110.18462020102172      114.03241328445520
H           98.53355602394997      108.27303552198229      116.25473339712501
H           98.60514451054861      110.03049796852335      116.36140329306185
H          101.09030475181758      109.89794071368412      115.92261378258581
H          100.95308463685504      108.14334772914289      115.93309922119501
H          101.70268394306940      108.62561055246053      118.09699383182337
H           99.97696924577612      108.33306963841792      118.28270199797895
H          100.42204028489709      110.24304300070632      119.61203693921919
H           99.68060656941476      110.89411471113915      118.15696256567281
H          102.02420099103070      111.34728316688368      117.27205869678525
H          102.65097964022860      110.86175180086103      118.84507490923926
H          101.35138085541961      112.67161029338783      119.93305629760815
H          100.60939969925236      113.07896851357204      118.39052330532962
H          102.91800425122631      113.58035759495095      117.48018999493347
H          103.55586412390808      113.38316968634118      119.10853957860844
H          102.09238513540424      115.22417613033065      119.91287411967852
H          101.36824846464823      115.35785928995008      118.31293060677082
H          103.62784153282428      115.91560164216891      117.36907749430740
H          104.28702155593209      115.91131764589572      119.00102944343043
H          102.69091118292678      117.72385294007113      119.63571485995925
H          102.04086087044152      117.71963939249970      117.99680405988043
H          104.37836933959419      118.22818936804941      117.14949755190442
H          104.88542888397849      118.44523689831361      118.81964291194564
H          102.71150469202790      120.04728177504582      117.39389430151492
H          104.36921605524979      120.58314250583146      117.66136395309559
H          103.97508261840306      120.44677025641248      120.14829907910558
H          102.91756214945680      121.60273037376325      119.34025071350676
H          102.29017628962134      120.03235565416119      119.83063655049551
H          118.45140160744032      131.11241387794601      111.12856029762185
H          116.95471020071855      130.27639962465693      110.71604309292049
H          117.13002238178231      131.04175835194098      112.29574006600886
C           94.85164761184497      113.85543641024925      105.49509078668299
C           95.58503471247387      112.59918031749960      105.94766919584984
C           96.97634840262485      112.91705469884880      106.48896851939864
C           97.71541355178897      111.66070663366663      106.94239137653663
C           99.12493341647485      111.96959965582998      107.43794957930882
C           99.81759001483755      110.74653185350131      108.03303951260551
C          101.19269277705081      111.09471954821646      108.59747625287194
C          101.87648028149285      109.88886499961824      109.23531502436263
C          103.18828157819891      110.24083905087355      109.93548965604455
C          104.30823221294405      110.63675808976103      108.97717005522830
C          105.63367792333860      110.82781880911742      109.70836815394017
C          106.79882393248789      111.09228218923188      108.75768656139229
C          108.11742285510836      111.20158038459536      109.51641934275111
C          109.34597223739208      111.22289052527159      108.60880661020397
C          110.62365180252969      111.16379982286890      109.44303690850519
C          111.90681702509491      110.99702118742999      108.63223709143418
C          112.35550563765293      112.26116240735156      107.90217496066251
C          113.75480435568952      112.07637410333126      107.32002601663061
C          114.28730124889553      113.31335431776672      106.60373918585265
C          115.74092705979797      113.12122793696932      106.17407325486256
C          116.27973168784811      114.33433346929282      105.42333310436207