3258
 energy: -3427.526284746936 gnorm: 0.000698593517 xtb: 6.6.1 (8d0f1dd)
C           93.77056123931375      118.23952291770956      103.89261659502729
C           93.89427131358178      117.03479914847428      102.96768635645633
C           94.06120106355750      115.73318288737381      103.74800903041094
C           94.30137427963936      114.53703014768608      102.83074557120774
C           94.47180646495379      113.23256390088288      103.60625133652951
C           94.79864498335253      112.06508037152663      102.67843771399910
C           95.07398625702008      110.75595508348297      103.41705937319014
C           93.82644448062645      110.08656105771908      103.98925495304046
C           94.17739459901406      108.74882662291843      104.63552165564781
C           92.96056408148753      108.02329394643034      105.20651799378399
C           93.32794604158576      106.69236942591148      105.86717638241247
C           93.68981294871774      105.60178864076624      104.86020388394522
C           94.37417538333753      104.40870293930428      105.52154439302687
C           94.71142127042631      103.30965703182912      104.51541326937246
C           95.59731158844457      102.22612204993477      105.12614194627952
C           95.82420942375570      101.02110073308081      104.21185990625460
C           96.38108664539072      101.36037349488919      102.82851609608437
C           97.67594739905904      102.16626137877262      102.86605223549732
C           98.22669427675434      102.42968225543629      101.46702254008311
C           99.35107406607905      103.46076450598926      101.48385862917571
C           99.90546016708601      103.70967747779940      100.08572090366495
C          100.94881585123255      104.82392242708940      100.02617592488514
C          100.33646003945769      106.22135149223172      100.08895763317949
C          101.37888486921771      107.30331820287066       99.82647601745647
C          100.77484958221640      108.70390324652595       99.78601496795289
C          101.84158753719170      109.76076162700090       99.51864155613951
C          101.27893357788854      111.17841238751097       99.48341342679976
C          102.39100725201168      112.21827644476289       99.38198959679727
C          101.86608595726597      113.64941112512356       99.42164935847329
C          102.99020617275676      114.67906903466374       99.49503096267082
C          102.45728658919047      116.10209694701305       99.63444843933136
C          103.57692468786161      117.12738384142631       99.79015043829094
C          103.05767005276792      118.56605876912941       99.82897703512988
C          102.52462209403785      118.96831712905873      101.20076451061895
C          101.92417902609395      120.37351897772599      101.21904032544003
C          101.70371050519388      120.84764807875916      102.65225956735011
C          101.13825192302473      122.26199893680050      102.76508060115265
C          101.26564794241706      122.77544688651550      104.19714004322459
C          100.67829448657422      124.17076218679216      104.39350851045337
C          101.00790794956684      124.74934117079788      105.77112820718473
C          100.25322378756472      124.06006956875774      106.90745881873228
C          100.76210555082422      124.44917356125492      108.29626868987907
C          102.15041030738944      123.88554764401501      108.59277163556425
C          102.55577238016579      124.04926250820597      110.05433419960444
C          103.96196439120801      123.51398943650855      110.31349602951707
C          104.32556556747589      123.54705717837257      111.79547095447772
C          105.77388736605513      123.14303960720228      112.07600950180490
C          106.10885135958992      121.74243648707282      111.56803158815882
C          107.41516055674573      121.19845057878238      112.13890248713329
C          107.75316563102551      119.81403717247443      111.58211293372295
C          106.96816869020181      118.66809948378129      112.21499526504334
C          107.14025772040938      117.37849876454740      111.41373120415692
C          106.53179288921504      116.16829536496628      112.11609072713709
C          106.54030337126005      114.92107560564274      111.23625046163902
C          106.03952498653307      113.68853392797573      111.98421589391886
C          106.02591374508189      112.44253214561381      111.10315906848835
C          105.56619637651501      111.19775153473678      111.85953981248237
C          105.62839147131704      109.94748320969785      110.98518324676172
C          105.37881170979479      108.64587348781028      111.74730547472026
C          103.95096676107869      108.50971511626412      112.26788752966890
C          103.61104952391263      107.09533967624530      112.73997969328322
C          104.39851554253714      106.65984203574381      113.97256917476913
C          103.89645649591678      105.34011391084552      114.55381443783861
C          104.56229849828013      105.02207691426261      115.89051352597660
C          104.14074502023331      103.66251934335681      116.44010289137863
C          104.71605081376153      103.38061502012336      117.82592805731018
C          104.40936352883179      101.96132319056736      118.29584833884645
C          104.94878448800736      101.69580454085019      119.69901175580692
C          104.84393195950128      100.23116619263996      120.12423791699327
C          103.40905492892570       99.71832343005950      120.23379267731222
C          103.36303685197171       98.29966746429417      120.79921791409328
C          101.95207159177821       97.71591428939846      120.80330900181050
C          101.91769473422487       96.29490515282227      121.36375498696226
C          100.54115821578540       95.65116298965391      121.20636532541917
C          100.55057887405104       94.16610363715623      121.55974126631781
C           99.15949416206577       93.52589296938781      121.55738530115140
C           98.39576765728482       93.61426911967331      120.23329348557893
C           99.11949360737364       92.96118884485801      119.05782959919416
C           98.26931351640022       92.96931057322644      117.78759994520614
C           99.06144980795973       92.49803960410502      116.56965242310618
C           98.28908919976286       92.66296870888279      115.26179156421036
C           99.19248664295502       92.55381179274048      114.03205368975563
C           98.47840231817518       93.02846360594778      112.76748334282367
C           99.39889451317718       93.21357055064175      111.56025286012375
C           99.88081401637119       91.90508625113155      110.93758476475503
C          100.58766270013049       92.11539162531867      109.59578133502463
C          101.96628705971040       92.75992508268190      109.72553634720347
C          102.60968839979907       93.02040324234846      108.36411549571980
C          104.04863593859251       93.50871403100118      108.50553062760528
C          104.72296721189413       93.87648094089811      107.18276182076346
C          104.25158411489079       95.21586086664797      106.61926295717569
C          105.11872083465107       95.69761555288045      105.45757896540094
C          104.69960668317907       97.08052162317549      104.96473181356575
C          105.67944804626998       97.67404915065391      103.95485655185462
C          105.25343475493595       99.07315005489497      103.51687461602727
C          106.26227484436903       99.74976569409900      102.59405614623502
C          105.86707197506117      101.19229175441900      102.28782666446773
C          106.83075199681420      101.86577794518729      101.31586913099116
C          106.46007638918235      103.32325073238573      101.04501898297069
C          107.41879597663558      103.98482965479941      100.05770353697334
C          107.26050676498288      105.50043801470842       99.97940205555263
C          108.22737075189305      106.10456890715928       98.96515060523636
C          108.19042305420206      107.62977681736562       98.93444276841053
C          109.05366054693876      108.18813140423774       97.80576418501208
C          109.03687766666130      109.71294181895584       97.74862488533491
C          109.75387003524581      110.25084552186534       96.51096664183135
C          109.53799300543483      111.75203722580022       96.32306408355726
C          109.90695293920001      112.21839880488325       94.91592883528608
C          109.43776235513553      113.63956194768325       94.58948938203596
C          107.93050451016650      113.87666414434750       94.73396174288712
C          107.06850633487299      112.88765420127099       93.95273196857228
C          105.56853836447746      113.17437068966851       94.06325721907606
C          105.00972044358772      113.18383297292030       95.48960951044296
C          105.29257179214112      111.93050742421602       96.31711313794698
C          104.58038740078217      110.67517029088202       95.82003742742775
C          104.92506098504869      109.46827927758051       96.69055168827828
C          104.21157730181517      108.19389207549740       96.24720490774720
C          104.58651476246645      106.99976808551065       97.12186116316208
C          103.89076328307534      105.71434532520044       96.68193054977905
C          104.25738433477964      104.53410142047201       97.57280056419323
H          102.80880557493417      105.86427529868882       96.70301550689690
H          104.16686215985034      105.48931980234480       95.64831327391259
H          105.66828654621521      106.85170503874916       97.08460930223507
H          104.31768500270231      107.21709652450873       98.15922776473364
H          103.13012244669046      108.34829002279947       96.28718507819204
H          104.47079963657850      107.97638297222350       95.20728233302484
H          106.00463096141046      109.29980956419335       96.65435971700288
H          104.65974163299840      109.68666008752433       97.72871099270694
H          103.49910230079449      110.83770995442065       95.83173608025568
H          104.87044965970074      110.46629640203368       94.78803249647828
H          106.36590925682619      111.74001931753070       96.34058918070984
H          104.97982414718319      112.12262647863761       97.34716334883622
H          105.41655331894987      114.04852968656422       96.01896473262249
H          103.92822357347104      113.32392359095184       95.42529415096395
H          105.36046197036428      114.15060370483167       93.61535048938173
H          105.03213413205853      112.42862264860376       93.47114737808505
H          107.35013389335423      112.92471486165576       92.89623741169345
H          107.25919507457044      111.87360485475698       94.30329196396072
H          107.66165327095709      113.83405056855094       95.78808686357222
H          107.71130370412615      114.89037399884619       94.38720535123296
H          109.95866737594842      114.34473828582234       95.24321696398253
H          109.73636009111843      113.86571717789099       93.56194191317786
H          110.99267164838267      112.17439968333798       94.79295186442771
H          109.47712153618244      111.52819233176155       94.18648500801073
H          108.48386661980776      111.96473895645471       96.49963882445756
H          110.11404855922393      112.31109469895664       97.06339054924381
H          110.82201710686878      110.02904986432569       96.57117505248604
H          109.36358864824835      109.72895821583248       95.63177392656803
H          107.99726422933729      110.04879121690966       97.72803483267467
H          109.49317025875912      110.12304472920393       98.65222450424386
H          110.08178449432130      107.83853490758766       97.92689825233288
H          108.68972686914603      107.79308227731904       96.85212472528850
H          107.16057720005408      107.96590760393038       98.79718856178856
H          108.53986362822688      108.02352087523526       99.89114976298849
H          109.24216529124840      105.78004731309370       99.20147355334710
H          107.98666897228055      105.71841824216447       97.97010900045075
H          106.23555615511015      105.75063332897237       99.69966511079713
H          107.45017276583859      105.93536027963331      100.96249832063616
H          108.44568145368601      103.75760421072539      100.35507062595583
H          107.26459599469817      103.56019947867392       99.06279044452161
H          105.44181526282485      103.37515976957593      100.65174308570568
H          106.47399001004624      103.87447929224521      101.98804813457561
H          107.84081482883404      101.82433232683940      101.73134777133646
H          106.84195131705162      101.30868518391082      100.37609603604608
H          104.85992197238622      101.20648956446011      101.86560560845453
H          105.84145537297397      101.76067170738860      103.22000452591989
H          107.24831782649234       99.73739585935347      103.06573164634575
H          106.33941325487906       99.18711070852071      101.65937074468383
H          104.28691493242816       99.01678693554760      103.01174091364979
H          105.11775587793080       99.69647066779812      104.40205965452184
H          106.67176094334550       97.73016574149896      104.40917516039215
H          105.75313463147822       97.02013426973123      103.08298632293551
H          103.70571013789440       97.01961803513262      104.51408204301843
H          104.63177743085217       97.75403873526690      105.82126855245858
H          106.16073527249665       95.73769104426675      105.78538011275482
H          105.06234664722527       94.98114753677871      104.63456749829820
H          103.21480489591629       95.13528331637262      106.28765792843106
H          104.28937127110048       95.96223355705831      107.41569199570625
H          105.80123373828060       93.93692372128095      107.35573750809171
H          104.55377194507388       93.08183897733859      106.45183383890860
H          104.06382357267015       94.38105979795917      109.16031208096113
H          104.63251246075910       92.72245177658692      108.99264525213403
H          102.59721072628513       92.09949999303488      107.77551458995092
H          102.01678394846419       93.76297721233401      107.82791595669352
H          101.88130147048473       93.70670433902015      110.26200733591016
H          102.61303927424485       92.10304048395797      110.31361250794787
H          100.70178192932214       91.14707405619136      109.10024734417847
H           99.95738530328074       92.73632814513047      108.95351654667637
H          100.55564786960663       91.39024239435480      111.62498724827755
H           99.01524518766954       91.25603078911574      110.77741919351459
H           98.85334665508778       93.77570673919129      110.79754353438621
H          100.25848308993504       93.81621745270269      111.85998975449812
H           97.67856040936604       92.32789683411379      112.51264028780304
H           98.01435123272006       93.99290278638281      112.98666544809366
H          100.07605496202056       93.17688230674558      114.19006503175582
H           99.53357219815926       91.52341180820176      113.91401252252820
H           97.49044860953063       91.91947333905776      115.20374782179942
H           97.81818242340407       93.64805452940374      115.26116330186170
H           99.97686665977410       93.09050484222041      116.50969986260654
H           99.35599839043824       91.45390281487765      116.70006358214935
H           97.38754981475903       92.33951148793984      117.92726565611464
H           97.91932417964480       93.98810913770387      117.60519591465581
H          100.04694509267351       93.50072798374853      118.85843778753265
H           99.38235319426876       91.93219259060460      119.31654113924473
H           97.42814426844538       93.12319939564463      120.36843142314140
H           98.19356975605199       94.66000012918016      119.99461040413071
H           99.26758332525338       92.47259636195639      121.83027763935232
H           98.55383419204762       94.00346145307597      122.33256751288599
H          101.20165974675658       93.63488210157951      120.86282722643533
H          100.97810645856082       94.04220165181924      122.55874742414622
H           99.82330791904963       96.17171696741305      121.84534190622927
H          100.21824959177775       95.77189656063236      120.17102783928785
H          102.65939605895224       95.68647342821380      120.83958781449711
H          102.19935808757083       96.30904402737340      122.41962704718949
H          101.28987250322361       98.35596011708024      121.39144761573087
H          101.57038228644987       97.70147835739449      119.77908048008779
H          104.01150464736149       97.65547203765396      120.19942027726960
H          103.75849413212221       98.30230076704865      121.81837065143412
H          102.83074049793183      100.38437243938833      120.87977968926491
H          102.94168125692889       99.72284996710854      119.24693425411277
H          105.38982316774434       99.61152845444833      119.40858206368671
H          105.33323099915098      100.11404877385084      121.09542442199476
H          106.00178681714831      101.98979885480729      119.73275688284301
H          104.41343389126929      102.32144195550075      120.41840224051329
H          103.32925369904484      101.80485516820305      118.28318986900545
H          104.85871837017115      101.24895096597378      117.59917568304131
H          105.79937367135705      103.52087532922413      117.80582577515148
H          104.30866924477081      104.09504008565185      118.54538635075029
H          103.04914487821289      103.61803483783696      116.48585745023406
H          104.47275591781808      102.87988223716033      115.75380400667343
H          105.64724679841311      105.03813740147471      115.76148218049366
H          104.30578093426293      105.80235235597554      116.61256538776621
H          102.81382777300874      105.39130129990758      114.69695434279765
H          104.09599451511694      104.53031906879339      113.84657607100638
H          105.45549413020372      106.55698574584686      113.71859069121118
H          104.31593697571449      107.43456330019895      114.73891508914609
H          102.54321408794547      107.05487475609088      112.97369458639554
H          103.79656827289065      106.38983855536783      111.92582571364780
H          103.78358264764724      109.21134938841081      113.08826397209046
H          103.26609114159498      108.77843367539840      111.45947770032345
H          105.58355638937843      107.80925185615712      111.07364594054323
H          106.08000907385896      108.58158302421681      112.58193545256415
H          104.90200531350003      110.03601003901223      110.17290483583538
H          106.62215766148913      109.89422868140909      110.53321867458192
H          106.21001518486857      111.05484081524317      112.73229978125467
H          104.54676635828497      111.34956822133229      112.22197357337453
H          105.36936557059192      112.61105683873234      110.24511646025366
H          107.03367872015552      112.27320612538801      110.71526611973131
H          106.68445529153529      113.50993061175640      112.84929487663634
H          105.03331042522935      113.88131932623723      112.36307312807550
H          105.91184505643460      115.09349843581195      110.35849759010608
H          107.55794762427701      114.73947489185041      110.88167090331687
H          107.09207278155694      115.96814173877274      113.03338294500165
H          105.50177091263033      116.39653538828372      112.40390649407459
H          106.67086575483421      117.50170575086656      110.43393525907548
H          108.20484206075965      117.19744517659788      111.24362365541789
H          107.31484577691921      118.51184470061752      113.23936518820393
H          105.90719728033010      118.91975955669102      112.26072255268012
H          107.55702967108992      119.81823586544479      110.50839780605440
H          108.81854016226890      119.61473444931271      111.71679436141045
H          108.22332895762277      121.89364411645379      111.89319583012025
H          107.34641540566703      121.15231237325753      113.22840440959884
H          105.29587543254134      121.06616046014713      111.83565740685236
H          106.17953852497298      121.75870689988517      110.47820875539463
H          106.45026434834934      123.86768932899875      111.61481777156895
H          105.93991728556006      123.18207446030603      113.15641610001535
H          104.16474093703847      124.55816344260353      112.17818567679888
H          103.65472490864443      122.87838295662314      112.34159365602869
H          104.01876496706100      122.48741264918620      109.94681776944495
H          104.68423541179160      124.10792049630889      109.74834462550305
H          102.51564747333251      125.10681711557412      110.32467027082259
H          101.84215797747676      123.51703193879182      110.68923983981581
H          102.15965110924510      122.82169654289640      108.34088181739725
H          102.89229291014837      124.38443902087418      107.96592863639138
H          100.77847453825467      125.53806909747263      108.38847032209723
H          100.06229875983627      124.06713609203328      109.04447979242865
H           99.19272001993940      124.31422349546098      106.82876821332999
H          100.33874725682115      122.97752069482284      106.80261581012245
H          102.08322158049216      124.65502132397302      105.93444450002349
H          100.76460395684552      125.81554786254071      105.78398768402207
H          101.08831487827456      124.83354219950600      103.62767615411033
H           99.59457123783754      124.13943116084684      104.25645029190905
H          100.77211602918875      122.06711238519786      104.86551085920190
H          102.32408389208368      122.79896338485618      104.47138675044020
H          101.67897965953222      122.93030915650343      102.09052551139594
H          100.08836303917812      122.27269248612041      102.46363684925397
H          101.03957107108666      120.14990674779628      103.16785223519740
H          102.66649174773349      120.82106851452062      103.17023886583027
H          102.60355785792942      121.06634411039155      100.71658480973781
H          100.97843003107198      120.38171156090370      100.67250418888796
H          101.77060114025549      118.25287390276047      101.53376955661068
H          103.35103486563081      118.92972262159746      101.91415349103765
H          103.86713442300650      119.24827307110739       99.55579898113645
H          102.27025225871860      118.68133500108817       99.08018881385630
H          104.13843300640998      116.92011439865928      100.70374914374014
H          104.26596894909245      117.01746733982795       98.95048749541796
H          101.86499287645978      116.34970552240057       98.75083123574741
H          101.79369515818061      116.15227166853032      100.50081468394177
H          103.63067944289737      114.45003003953150      100.34939923809222
H          103.60561054815226      114.60968726931399       98.59421693134325
H          101.25327384090264      113.83694870145322       98.53802950999655
H          101.22170365221898      113.76706682771024      100.29704337893368
H          103.08117079167538      112.07213486054748      100.21672141505084
H          102.95132175228918      112.06059290885236       98.45709336160176
H          100.59335427429258      111.28262626410334       98.63909654835642
H          100.70225538612836      111.35939753778270      100.39417002074210
H          102.60214935579718      109.69834760314889      100.30153475827520
H          102.33450605911160      109.54467557246517       98.56742398552821
H          100.00867504524052      108.74911739846030       99.00791637233156
H          100.28435387718105      108.91732865715694      100.73906467296622
H          102.14749042071334      107.26158376994867      100.60264655828632
H          101.87001958994517      107.10212105738975       98.87059893780972
H           99.54434486949084      106.29961138322720       99.33971224120680
H           99.88065611979019      106.38768233530094      101.06742976268023
H          101.66682990662999      104.69947035554428      100.84061120453106
H          101.50076663148432      104.73401099538496       99.08673479493797
H          100.35225537515123      102.78292712380468       99.71965710385889
H           99.08077906179457      103.96402859219015       99.41633755708673
H           98.96456350775158      104.39387571093705      101.89836301369995
H          100.15402073278786      103.11121213138279      102.13749001352136
H           98.59069162656223      101.49786410959972      101.02762926972281
H           97.42085754554735      102.79556175723502      100.82414823459686
H           97.49285020347617      103.12667440694077      103.34830130058373
H           98.42329890139032      101.63441254841285      103.45973143555861
H           96.55711464445810      100.42607068711514      102.28928783691872
H           95.63074792511934      101.91713763581855      102.26258510748417
H           96.51400146217121      100.33647512014969      104.71248966246105
H           94.87775654042628      100.48942040510865      104.08124309240070
H           96.56062843392941      102.66266670558184      105.39231165438703
H           95.13873265309316      101.86813586172386      106.05162038378624
H           93.78617405622373      102.86380115354960      104.14048767280217
H           95.22181862184004      103.76185849870409      103.66409874998631
H           95.29607537993994      104.75335092299098      105.99822107362816
H           93.72699768740007      104.00871504257761      106.30584136712920
H           92.78530476928054      105.26876103727781      104.34396068235095
H           94.36515202195169      106.01174812728985      104.10723626839585
H           94.17543822680881      106.85494814640175      106.53570821574489
H           92.48877289048261      106.34772080764724      106.47687367751591
H           92.48445282889369      108.66939342804855      105.94889324950488
H           92.23204908520692      107.84604130334341      104.41077282013704
H           94.66427185523283      108.11973023793232      103.88767473181184
H           94.89825496530459      108.92197327549587      105.43717731858236
H           93.36048241374610      110.73670896572774      104.73255507514044
H           93.09948497572563      109.92564445603891      103.18835215622357
H           95.55223319152958      110.05830726641263      102.72452558301481
H           95.78074032638200      110.94397782468056      104.22798354759436
H           93.97615195562452      111.91950032573226      101.97283891393089
H           95.68695270167784      112.32972153112190      102.09954573099044
H           95.28274591930206      113.34818519667250      104.32982602663482
H           93.55723723956173      113.02249232207377      104.16447811726631
H           93.46337208047180      114.43786847992540      102.13569181497989
H           95.20112482461958      114.72068456197012      102.23874517177934
H           94.90730219483891      115.83575670778619      104.43082962145890
H           93.16865599531860      115.55632074547160      104.35389787600496
H           93.00591875699556      116.96754682754155      102.33486399790979
H           94.75707712533611      117.17346071310968      102.31300318722819
H           94.66270576462261      118.33829426141629      104.50757955773700
H           93.64861058549023      119.15457190450923      103.31758968124592
H           92.91131213608254      118.13099309567255      104.55141361629738
H          105.32701188454469      104.34217387372622       97.53162071898127
H          103.98669704026126      104.73884042373865       98.60657548069038
H          103.73601891460444      103.63384560023313       97.25475608146417
C          121.46545797098462      110.15990490502732      115.40727463213204
C          121.03851113148578      108.72109096047816      115.66915444027664
C          121.16504093822499      107.84522106117016      114.42448070017869
C          120.73311365901718      106.40687497001332      114.69640966694533
C          120.80887290308418      105.51720880065275      113.45714383505147
C          120.36915037335514      104.08984067679921      113.77154854233962
C          120.32945851458044      103.17915630273586      112.54600782126747
C          119.89340399622351      101.76882179557583      112.93378038938546
C          119.69933335554796      100.82703334052194      111.74729094687655
C          119.26983125944916       99.44522467503364      112.23363768934360
C          118.92287801931046       98.46272321625221      111.11764762994540
C          118.45739296028501       97.13518516026799      111.71185731886376
C          117.98030821186516       96.11947610508109      110.67771079076330
C          117.41303259967876       94.87670044558287      111.36116491987659
C          116.87612516654954       93.84104357668824      110.37699650891423
C          116.14052409693235       92.71439223693619      111.10145423623054
C          115.69933641549898       91.57824377296171      110.17769132423660
C          114.57616277793267       91.96998770910504      109.22006091135613
C          114.22873586613444       90.83387739049685      108.26052480582911
C          113.22309192663037       91.26161727460874      107.19397703996675
C          113.00321133675732       90.17305408188233      106.14316677001025