3258
 energy: -3427.554502360973 gnorm: 0.000696096247 xtb: 6.6.1 (8d0f1dd)
C           95.29570794863437      103.05585976759889      118.29572674367350
C           96.09900472295629      104.34603795389671      118.40274432158073
C           96.44727692402600      104.68119135398274      119.85152751418865
C           97.33450281518245      105.91880465618047      119.98236872859501
C           96.59270392566746      107.22030636830961      119.68904702950816
C           97.49871402179745      108.45240668879048      119.70197882738039
C           98.65328775897791      108.41103001250984      118.69889089122312
C           98.20169946087250      108.17535589213796      117.26092161857089
C           99.34601245322185      108.25177864244516      116.24961911926468
C          100.29620142657420      107.05746490303163      116.31650143462383
C          101.36595751300172      107.12625005393582      115.23122976706389
C          102.33792540367114      105.94908884446453      115.27232255721823
C          103.38354605562495      106.06074056878265      114.16492554329156
C          104.37357365576449      104.89936068918787      114.14072596675004
C          105.40824281382919      105.06409909176027      113.02853779784391
C          106.38001876835580      103.88730349293304      112.96429242101554
C          107.56491925008457      104.08819578673018      112.01219584468059
C          107.33414760614558      103.64732838989698      110.56538230287879
C          106.29418372083053      104.46965551247222      109.80972707170505
C          106.35302500519964      104.23778776176809      108.30090967734174
C          105.23824530375366      104.98772016540460      107.57806402224755
C          105.32337764685803      104.88176959830267      106.05769599220739
C          104.09559039567435      105.49821271261263      105.39412076628140
C          104.16986021892374      105.51353722676326      103.86976688237239
C          102.84810198461449      105.97777671813444      103.26466938202084
C          102.90520536259513      106.17310488381952      101.75270546278846
C          101.57188782455991      106.68486585404538      101.21580217167653
C          101.58778862113891      106.96063740097655       99.71487385658990
C          100.24253228216976      107.50774469718580       99.24397793759604
C          100.21516734838366      107.80935931006817       97.74784306626371
C           98.82031593262830      108.18247820626776       97.24330866206472
C           98.28133908713187      109.47685235794060       97.84694173384264
C           96.92315076001489      109.89602633677882       97.28182257728324
C           95.83783952329983      108.84076966712152       97.49644735387372
C           94.41357901859674      109.38569319247578       97.37535290448761
C           94.04908951773784      110.33172125624638       98.51905901364691
C           92.54256535412580      110.54304112599966       98.65293718954167
C           92.17444948175213      111.50772021173793       99.78304416087148
C           92.55077787650264      110.97427010315087      101.16319447962145
C           92.17033683647821      111.93367693610706      102.28853939940977
C           92.73169443469585      111.49769724116398      103.64462501463646
C           94.23877521014518      111.71729790758680      103.75149017828890
C           94.81061553472445      111.29998194205623      105.10375154237592
C           96.29003939933799      111.65941773551231      105.20459559719035
C           96.91119074172629      111.28357983440419      106.54645946520999
C           98.35968828286008      111.75854113614498      106.63693166968659
C           99.01551824004346      111.38839730540673      107.96371954452158
C          100.34904240240728      112.09521651154883      108.20888748367410
C          101.41760179301235      111.82812659331402      107.15072655321970
C          102.71147374236654      112.59711244688569      107.42853983885813
C          103.52587778786165      112.01958099822374      108.58296990726329
C          104.75354858104807      112.86737823687028      108.90357472005624
C          105.56911904953914      112.28028438952535      110.05159011307860
C          106.76875172054075      113.14899700836426      110.41499116807147
C          107.57795944437424      112.57164942379916      111.57333976094189
C          108.70988106706091      113.50343432034147      111.99635929692538
C          109.47139820389575      112.99491196111256      113.21869020347998
C          110.46375486096285      114.01545575762486      113.78030160549953
C          111.68147114025561      114.24840636174378      112.89152583746585
C          112.62350310084923      115.29773784109599      113.47637501058094
C          113.85798798094343      115.49112346982821      112.60336410144150
C          114.76916757523406      116.61154460947930      113.09323196787429
C          115.96677002226612      116.79166513000257      112.16535776398027
C          116.82669081726365      117.99754590989883      112.52626899960462
C          117.97156399583326      118.18321650386410      111.53440170909157
C          118.84942619452271      119.39809861252682      111.83732148215850
C          118.15618872673984      120.74742199414847      111.63780703553684
C          117.86343138182725      121.05977226483604      110.17231074549659
C          117.15275754736865      122.39862672014191      109.97069491944403
C          115.69208073973816      122.38995572899745      110.42133282651459
C          115.00209811263956      123.71140992440776      110.09037963595705
C          113.53559016064077      123.77087258631354      110.52129072972208
C          112.65406008145358      122.74843153376997      109.80104964039802
C          111.17580075861797      123.14246980481929      109.76516866030137
C          110.52345081051462      123.34372231808099      111.13354434462728
C          110.45504424777882      122.07553545057760      111.97682074240063
C          109.70997488668269      122.30715906267265      113.28956908283320
C          109.58330152727309      121.04106211513695      114.13677524038192
C          110.91261885078622      120.57842396239677      114.72711183595611
C          110.79039694039187      119.25427658591254      115.47628192730346
C          112.13420015183748      118.80944584901887      116.04504125492578
C          112.05440005172861      117.46307927635611      116.75659654336555
C          113.41922471069779      117.01568982087032      117.26734679244566
C          113.37696281525533      115.64184934468167      117.92933188747739
C          114.77463287172192      115.16517248627261      118.30840154889279
C          114.78867521397042      113.76720829571862      118.91948753704779
C          116.22161884136426      113.29337026255915      119.14527397466915
C          116.35016847277997      111.82970634158097      119.55949225285900
C          115.59667127382029      111.50378049697967      120.84564179854806
C          116.03755519454147      110.18683112113040      121.48176229940825
C          115.96715574439889      108.97172207055627      120.55973326815534
C          114.56733078763563      108.68447492064554      120.02755339487500
C          114.52655203694155      107.37249488369653      119.25253733200154
C          113.14526156904773      107.08016071251930      118.67665747156363
C          113.10693342073421      105.73045684213055      117.97179719198279
C          111.71877211878758      105.36797556486151      117.45293246217489
C          111.75938668326212      104.04962326956628      116.68802390566293
C          110.38003015748217      103.50164075887452      116.33535868509628
C          110.51256471932095      102.15716448446747      115.62873537534378
C          109.17790624508420      101.48110937157838      115.34034674283514
C          109.36007446026696      100.05991701033288      114.80971912758903
C          109.95162117343088      100.01285129603650      113.40371225653311
C          110.09437396900606       98.57809999639022      112.90633575526788
C          110.53665674275089       98.47986138650421      111.44782698841719
C          109.43613560004229       98.88962832265693      110.47367910575956
C          109.81814038624528       98.62381830428438      109.02192853670942
C          108.71953111696421       99.06718424868379      108.06135072319829
C          109.07284864596383       98.78276787449926      106.60568760848670
C          108.00085993585816       99.28988533636617      105.64665823422523
C          108.35212463618267       99.01121211271457      104.18862681364089
C          107.33405295019013       99.61808411757833      103.22857917535002
C          107.69270947996287       99.36952225737555      101.76635316608595
C          106.73188396862430      100.08179190556437      100.81913598380279
C          107.10062440492963       99.88433815834397       99.35137171049261
C          106.18220882417714      100.68219321182568       98.43011738664563
C          106.55733357027763      100.53924286556688       96.95759464204089
C          105.68257455695699      101.41688264900492       96.06668431271953
C          106.03795510933809      101.29133760356973       94.58844783477544
C          105.21104710247781      102.23718983165124       93.72127667524973
C          105.54645273483281      102.09661422227889       92.24217484274280
H          104.14855922943033      102.03341294504158       93.87408973646541
H          105.39711359404330      103.26702730645276       94.03613371255882
H          107.09896096665250      101.51489699207610       94.45179597769251
H          105.87432221334198      100.26133372472748       94.26035136693868
H          104.63223486779798      101.15196374475626       96.21175881836717
H          105.80147985533631      102.45936871314933       96.37275524053560
H          107.60516105767493      100.82022760756911       96.82078224982351
H          106.45831818637870       99.49365032840701       96.65329190051499
H          105.14939702043090      100.35666619502234       98.57459014541887
H          106.23269432479508      101.73714734277635       98.70983467226738
H          108.13525214623479      100.20129457248260       99.19184037567915
H          107.04607194106316       98.82213628390758       99.09661424627367
H          105.71591579246572       99.71915682894280      100.98975192754232
H          106.74137727541790      101.15010439266285      101.04578000324790
H          108.71037586687858       99.72454323412236      101.57980486555938
H          107.68473976169322       98.29492438295915      101.56210179943322
H          106.34488279757599       99.20459693854696      103.43511042000203
H          107.28455263207513      100.69481263283531      103.40288611912392
H          109.33959325883768       99.42898837557418      103.97320211603065
H          108.41519105142829       97.93124182613722      104.02579025909348
H          107.04469390713786       98.82047814574686      105.88618730023327
H          107.88434964754462      100.36679858332626      105.78476002380741
H          110.02421012656021       99.26603647494306      106.36816779229318
H          109.20960152226145       97.70616444467980      106.46667222501132
H          107.78861738327305       98.55523280133555      108.31452255821458
H          108.55080083254413      100.13936629242355      108.18505170063214
H          110.74335838004330       99.15615168120391      108.78776921484430
H          110.01168161162366       97.55552600052189      108.88578409492837
H          108.52410388666611       98.33677407322125      110.71000179589622
H          109.21775274258833       99.95280715355059      110.59006501456700
H          111.41857684449522       99.10431346818966      111.28714777976826
H          110.82598265772585       97.44630463186078      111.23587856920743
H          110.81923447314279       98.05867589262617      113.53873833783011
H          109.13660903080340       98.06576642705194      113.01473063398242
H          109.30368118684366      100.57712819467679      112.72998939679316
H          110.93477959123322      100.48695594334326      113.39556890916749
H          110.00874307885618       99.50413303417682      115.49261958996939
H          108.39023741810090       99.55744809153258      114.79759807458578
H          108.59630243073595      101.44026935471918      116.26452362273044
H          108.61211447178620      102.07238917841120      114.61632716724732
H          111.06489306827061      102.30364921103256      114.69794436863731
H          111.10123017280355      101.48823444409611      116.26146417466460
H          109.79099434672789      103.37835249794499      117.24769347805068
H          109.84881625811576      104.20886451554104      115.69375666480575
H          112.33908910695999      104.18080929258805      115.76968885894780
H          112.28566501829287      103.30961830304011      117.29762749330924
H          111.02542646982587      105.28188396973296      118.29334282220609
H          111.34574477727064      106.16315534616005      116.80312338413619
H          113.81130241198052      105.74144671216624      117.13675180843086
H          113.44176036178190      104.95492948438653      118.66504218121354
H          112.40477559968309      107.08816651506967      119.48085406694744
H          112.87084536869180      107.86852929003092      117.97260674357787
H          115.25339910065283      107.41524777449121      118.43734647222468
H          114.82196803337695      106.55491250585362      119.91505312179308
H          113.86566043385726      108.63215142354993      120.86405628870843
H          114.24105497297212      109.49496908819287      119.37277872075678
H          116.65145434935016      109.10662033273373      119.71950672142674
H          116.31270377975827      108.10012565104851      121.12205147490610
H          117.06787472812458      110.29268745660715      121.83001680135594
H          115.41788507658499      110.00037862276056      122.36033177554739
H          115.76343057589060      112.30473457578391      121.57072841348614
H          114.52538706565225      111.46931805610227      120.64076265159781
H          115.98520066114800      111.19277463747387      118.75071269271184
H          117.41217624555740      111.60451794225717      119.69937079370858
H          116.78745827655824      113.44265454575172      118.22222428079841
H          116.68270024971480      113.92090848475149      119.91134227478956
H          114.24447258119108      113.77921803495671      119.86589123443908
H          114.27600034822771      113.07613756465838      118.24884138916211
H          115.40264251838005      115.16811055636983      117.41360716817553
H          115.21635616576850      115.87261156683036      119.01529775064645
H          112.74574138214473      115.68234124248453      118.82018832333858
H          112.92409478862187      114.92390591744342      117.23980636938809
H          114.11858340615645      116.98734332040608      116.42783167369646
H          113.79814152103359      117.75028093157037      117.98233521532532
H          111.35500402112547      117.53060628124952      117.59340770843824
H          111.66907996169368      116.71248323337227      116.06210979963544
H          112.86125528183159      118.73761362589831      115.23194680769315
H          112.49935252660939      119.56755824848213      116.74203078171011
H          110.06487533222196      119.35416254904763      116.28759429956079
H          110.41431347834006      118.48575420053351      114.79544044137796
H          111.64674070601639      120.45524370294520      113.92836641999621
H          111.29343548832702      121.34640415815738      115.40519771167709
H          108.88033011786597      121.22737683285516      114.95334711284777
H          109.16624154666785      120.24296304024841      113.51870407678102
H          110.22469360749153      123.07828332975990      113.86854596388177
H          108.70863129549791      122.68291268593232      113.06056880596888
H          109.94132998989745      121.29652661351497      111.41026226061010
H          111.46673238964422      121.72765539396393      112.18576024309856
H          111.06517226694643      124.11408719419856      111.68536822493539
H          109.50489362375662      123.70840667584373      110.97439509797447
H          111.08006638834728      124.07404790319053      109.19863110455000
H          110.62410758852899      122.37254333004660      109.21903457839689
H          112.99717962932377      122.65362523945701      108.76678585917826
H          112.76057850994340      121.77009524554529      110.27013042266995
H          113.47280961408198      123.62123520631012      111.60080016354540
H          113.16101590450522      124.77526414986828      110.30350583832603
H          115.54564458582774      124.52433193918485      110.58110535662216
H          115.06271794767127      123.88533360741334      109.01205220845867
H          115.17083738189186      121.57264198351949      109.91950690394309
H          115.63321951465647      122.21666569491516      111.49756348561368
H          117.69510773770041      123.18253053369870      110.50649968769231
H          117.18185606639049      122.65036195438407      108.90653333649982
H          118.80834018362305      121.07543978158708      109.62275003887466
H          117.24545373710860      120.27051134927861      109.74077750426235
H          117.22835577525240      120.76430573435138      112.20944676670214
H          118.80033383896881      121.53566145329449      112.03921810309851
H          119.19595725075470      119.32920599376075      112.87249523968171
H          119.73528494149515      119.35956528239944      111.19697153000638
H          118.59778578952115      117.28780621160664      111.55766151035583
H          117.56453758345262      118.26370738707553      110.52476455478434
H          116.19592633778171      118.88842985609277      112.53339471149940
H          117.23605561033153      117.87222068344262      113.53106859696450
H          116.57959943241228      115.88830359158372      112.18154324659341
H          115.60037664956624      116.91915412759400      111.14501416519718
H          114.19988010478592      117.54423327146506      113.13508043422297
H          115.11506769549280      116.39054108310182      114.10628725042510
H          114.42444869578429      114.55813295493724      112.56520567287977
H          113.53861831164967      115.72012279303929      111.58430624847330
H          112.09332770816928      116.24947847136703      113.56632704944798
H          112.93218149060282      114.99367788588333      114.47871339101729
H          112.22395146254517      113.30816909127174      112.76683614584590
H          111.35950440362933      114.57942156202270      111.90149705838304
H          109.95148701166670      114.96831335331122      113.93646392751278
H          110.80784292533771      113.66855997215498      114.75751141309898
H          108.74810885747021      112.74924751968915      114.00083100770415
H          110.00260076104975      112.07559716848225      112.96275253439512
H          109.39564404168782      113.63237085153580      111.15627488628080
H          108.28452556889954      114.48327836094391      112.22613146698494
H          106.91562453182986      112.39833718578284      112.42614630295921
H          107.99122070157225      111.60551644414051      111.27732574052948
H          107.41523274084417      113.25466365916883      109.54049896895246
H          106.41611522919341      114.14773310108778      110.68701698703840
H          104.92576441032145      112.17274630483242      110.92920319880312
H          105.91431774985216      111.28228216384707      109.77316450385322
H          105.38471994602074      112.94810067355647      108.01413114640594
H          104.43399016045586      113.87867726545213      109.16889080708729
H          102.90278464493473      111.95687739451253      109.47698317594799
H          103.84236634390977      111.00592609615975      108.32673306953227
H          103.33201182071386      112.58994227931679      106.52786596403099
H          102.46603125363647      113.64097047719012      107.64260733222898
H          101.63444358477992      110.75935892098826      107.10162977717022
H          101.03644273243349      112.13247309097758      106.17403442660674
H          100.17027186030188      113.17198691976890      108.26089150570459
H          100.72426325657361      111.77675763554872      109.18403657653148
H           98.33619337528293      111.65296845868041      108.77984961870405
H           99.15718219933372      110.30666999117817      108.00444679045614
H           98.92638407999907      111.31805537031191      105.81418602939976
H           98.38296671132366      112.84311622663412      106.51363930047155
H           96.32858796204562      111.73761664112411      107.35292696567537
H           96.86592126868895      110.19975629104145      106.68215499282162
H           96.83490820874997      111.15560884310514      104.40211959917907
H           96.40325767663153      112.73537160444808      105.04794981553594
H           94.26185859267444      111.80232517226729      105.90367117035365
H           94.68105775252100      110.22319291828528      105.24185554672401
H           94.75001113310658      111.15791820649335      102.96639842268873
H           94.45415799399555      112.77576165678457      103.58642367740821
H           92.23582235076005      112.06885125746398      104.43435818558174
H           92.50065033748901      110.44227547579689      103.81013876517896
H           92.54461893343391      112.93330627201573      102.05327891463573
H           91.08103707287717      111.99862106732247      102.35089710427289
H           92.05586630528499      110.01324559339757      101.32511754320048
H           93.62609920184515      110.80563897869209      101.19543890281004
H           92.67770714336521      112.46415109097806       99.61973456802957
H           91.09774945561372      111.69490871431240       99.75292744039950
H           92.15187617807287      110.93531506179049       97.71005481475088
H           92.05834086416779      109.57975376587817       98.83387300269186
H           94.43516368456535      109.90918498111516       99.44754720752964
H           94.52838564524585      111.30012479013637       98.36541498669486
H           94.29142399399232      109.89393294516729       96.41600025320538
H           93.72019459317102      108.53978326069267       97.38755104428378
H           95.96573492567553      108.04162499171380       96.76344965825042
H           95.95806016038921      108.39957158664036       98.48946201352420
H           96.62877967863088      110.82509772102544       97.77286635058678
H           97.01274530542825      110.10625544142295       96.21380792204826
H           98.18221205371789      109.35781443895443       98.92764957636935
H           98.99874971084000      110.28290755145922       97.66721986789396
H           98.85146841442229      108.28574321413201       96.15439827563137
H           98.13851433299716      107.36467782586433       97.47668434632361
H          100.91579805155790      108.61707552795828       97.52779321748122
H          100.55459919872790      106.92447928542320       97.20151497856662
H           99.46010637367273      106.78105122155748       99.47525970745214
H          100.02303276516582      108.41878308222329       99.80372727530332
H          102.37585404829142      107.68155918576039       99.48317669836015
H          101.81891253647080      106.03922679318896       99.17440371066380
H          100.79119995595816      105.95239856887382      101.43573209224563
H          101.30903613781406      107.60482132732450      101.74306154621563
H          103.69245058523173      106.89035646797147      101.50714096231633
H          103.16288954761127      105.22951376107292      101.26720508862812
H          102.06968824593775      105.24759918490814      103.50190687133086
H          102.55785829991520      106.92032791968387      103.73112426142865
H          104.97156534404915      106.18614947069908      103.55434312588964
H          104.41546342416039      104.51580915528707      103.49978607359063
H          103.20900102856798      104.93630704518837      105.70207681359342
H          103.97069923445605      106.52241740377877      105.75262064611358
H          106.22330499014672      105.39314633191721      105.70873013050291
H          105.40806828160663      103.83272375960048      105.76570698599754
H          104.27330771804606      104.59266167654013      107.91018294095224
H          105.27415736356561      106.04274469107737      107.86093439411344
H          107.32099699803730      104.57060904233657      107.92000934641635
H          106.26696735193750      103.16894230980857      108.09194419203786
H          105.29424371029252      104.21425693949183      110.16666824153958
H          106.46109744839656      105.53138700295521      110.00946303612344
H          108.28774702444289      103.72646234302084      110.03558226689134
H          107.04028247640855      102.59477911976292      110.55161102659186
H          107.86126643640597      105.13928836323041      112.02512725174265
H          108.41419400542905      103.51322361844494      112.39342954525378
H          106.77586189750015      103.73356027053711      113.97252558345843
H          105.84136378744053      102.97926944530079      112.68640462722489
H          104.89016646426364      105.18168833845732      112.07655620391837
H          105.97324279251221      105.98006277763409      113.21130905331785
H          104.88557885176510      104.84360012356798      115.10203013425512
H          103.83243582515284      103.95917931727314      114.00283077516568
H          102.87424127820837      106.11764466727458      113.19810925654099
H          103.93687204593027      106.99410714596490      114.29899501567326
H          102.83495292114301      105.92568405633594      116.24546409822365
H          101.78399889469999      105.01282988973985      115.16206146326800
H          100.88138956654394      107.15782074647706      114.25113186632018
H          101.92850681771506      108.05643983255757      115.34595473771998
H          100.78607288867397      107.03026668432601      117.29075981686938
H           99.72391967913775      106.13224710016330      116.20421714102876
H           98.92100593338930      108.30298020974980      115.24292217827562
H           99.91240157614806      109.17268569471166      116.41232491603603
H           97.73351990717774      107.19262246031811      117.18199183624796
H           97.44810970527746      108.92634449379510      117.00326208275477
H           99.18156864462779      109.36591634047110      118.74847167832120
H           99.35941945323154      107.63395371677461      118.99148808790179
H           96.87900953108918      109.32878672603488      119.49157731413165
H           97.91441108997299      108.57781069859874      120.70575014181983
H           96.09618701410707      107.15478795861931      118.72044522681817
H           95.81162946096066      107.35821013724180      120.44231300082414
H           97.73463262067401      105.96626474368320      120.99766487824769
H           98.17700945081769      105.80786012591109      119.29961735654788
H           95.52583583690964      104.82640008930746      120.42197950266356
H           96.97294174051657      103.82531384934545      120.28353161817121
H           97.02480015115435      104.24237897815892      117.83163227490023
H           95.52344182743613      105.16026129412931      117.95839631850939
H           94.36290138713265      103.13948089770331      118.84994802129209
H           95.05782896723736      102.83577773088749      117.25714103914808
H           95.86040014031548      102.21916666433113      118.70188367365014
H          105.34921845054075      101.08269258164074       91.89942978776951
H          104.94865455091924      102.78274531042211       91.64587069378985
H          106.59715363306783      102.31779992777098       92.06602248150109
C          110.23193380840772      104.96211316176601       94.16631199097772
C          109.04582636251492      104.16233714408222       94.69204492285277
C          109.02242696277222      104.04513867490444       96.21551369054197
C          110.16357421258108      103.20651064702243       96.78665740026703
C          109.99980455138027      102.98766458938871       98.28861884885708
C          111.15261021811676      102.18974146272959       98.89344520962446
C          110.95669549990365      101.96090894251985      100.38971253382488
C          112.10528468318631      101.18300355357478      101.02833914805433
C          111.86808324575910      100.96806369681160      102.52082209289503
C          112.99600964540276      100.20520268294479      103.21189424297015
C          112.68998085578500       99.99553494138006      104.69308116994445
C          113.79463830834496       99.25937302825480      105.44695201277443
C          113.43312605332638       99.07921410554593      106.92016514932374
C          114.50639226052438       98.34012070041634      107.71497831016234
C          114.12004169499161       98.19628619340178      109.18648465387962
C          115.18796134128925       97.46078657133152      109.99305598427011
C          114.75836909494940       97.13505121412858      111.42480718511291
C          114.58251362265302       98.36915884128572      112.30640804849669
C          114.28905452688390       97.99842360761865      113.75814490752037
C          114.18036646022109       99.22502454078506      114.66127829989931
C          113.81219824222973       98.84946944052739      116.09381796552572