3258
 energy: -3427.551390949182 gnorm: 0.000905029045 xtb: 6.6.1 (8d0f1dd)
C           95.29672811861954      103.05565989502335      118.29517457198968
C           96.09927843672612      104.34615363084995      118.40189689902748
C           96.44658852680691      104.68053222481788      119.85119177205605
C           97.33446440329932      105.91785303534854      119.98231461870216
C           96.59209676969827      107.21909369139510      119.68818474913807
C           97.49743031073913      108.45169975785890      119.70177807113565
C           98.65294375039630      108.41089584461417      118.69917002523081
C           98.20104248343472      108.17493343813319      117.26107536306669
C           99.34550820795513      108.25196479074835      116.24970087148066
C          100.29568295355037      107.05714018455940      116.31669984935539
C          101.36556842109923      107.12638187210116      115.23107950942102
C          102.33724348026024      105.94849108717075      115.27253921809881
C          103.38302421793236      106.06077187125000      114.16483251261317
C          104.37315752873600      104.89895787502711      114.14102407266274
C          105.40769135114029      105.06432952167194      113.02821091705839
C          106.37971966452699      103.88719871542104      112.96418468727325
C          107.56483653204292      104.08880016729540      112.01198651035530
C          107.33386797350300      103.64690742554477      110.56522921299131
C          106.29351976616300      104.46971949851549      109.80994887307342
C          106.35282338894646      104.23732547399962      108.30088223509070
C          105.23783209175400      104.98794769021434      107.57834934719384
C          105.32325536747403      104.88117206814552      106.05769556037598
C          104.09512384330603      105.49818445029848      105.39443610317556
C          104.16977267852926      105.51332908318111      103.86973212409544
C          102.84766760438070      105.97800028906116      103.26478518755309
C          102.90517962742936      106.17328353981247      101.75247100989299
C          101.57143760269149      106.68509303408413      101.21566871879783
C          101.58775960422416      106.96092868703909       99.71444986263361
C          100.24214437284679      107.50816255204033       99.24381869112749
C          100.21516255420968      107.80965690205552       97.74737517650036
C           98.81986834821384      108.18261843652134       97.24343203500874
C           98.28104470526344      109.47722534428041       97.84737618976445
C           96.92274557564832      109.89569214101725       97.28140074523400
C           95.83776735005837      108.83977223166492       97.49608615560378
C           94.41384068656529      109.38572991379951       97.37522044285997
C           94.05011487723647      110.33218242927246       98.51897886764566
C           92.54339259265402      110.54278109823008       98.65338665816590
C           92.17563844074544      111.50783129775553       99.78309603872371
C           92.55192885020779      110.97405997710527      101.16321646311305
C           92.17151476061909      111.93415276755535      102.28808577497726
C           92.73176716164473      111.49809193958197      103.64447690458206
C           94.23894586879035      111.71765690837870      103.75158490427717
C           94.81008750664169      111.29938954583497      105.10407371133611
C           96.28967252692792      111.65914910720359      105.20462055284197
C           96.91055087827262      111.28330388477357      106.54690999012026
C           98.35934376767929      111.75855391050861      106.63675298401118
C           99.01499772825196      111.38824707788083      107.96394287674089
C          100.34873369417004      112.09528925275836      108.20938789246723
C          101.41747228246209      111.82763889171939      107.15094736397840
C          102.71131361274986      112.59735145779455      107.42863079053824
C          103.52557260568217      112.01925664485780      108.58337739558171
C          104.75347292048222      112.86768816462096      108.90332109404201
C          105.56901282101339      112.27979423716019      110.05149537230496
C          106.76860463961593      113.14939840264691      110.41470256865475
C          107.57796302317253      112.57124221878580      111.57311860330293
C          108.70974908278083      113.50399808602981      111.99591944975421
C          109.47139402694373      112.99481414139841      113.21838457025372
C          110.46357338647019      114.01592631746536      113.78031516579800
C          111.68145118467055      114.24860597301864      112.89104380730950
C          112.62330972465841      115.29830176315649      113.47653199810091
C          113.85799405637611      115.49153407629588      112.60307086240709
C          114.76855329681506      116.61278921073180      113.09327815180305
C          115.96639843522664      116.79263592610639      112.16509555217949
C          116.82587609159340      117.99912244673138      112.52633666942342
C          117.97116960405337      118.18404527114339      111.53432938718544
C          118.84883762588714      119.39924826205228      111.83763461556713
C          118.15517376930767      120.74847321013463      111.63783783434205
C          117.86298363035984      121.06041432225696      110.17184278241488
C          117.15205331581004      122.39928609990577      109.97090694380236
C          115.69121532360086      122.38952419195050      110.42161052470009
C          115.00150296299744      123.71131313477730      110.09072473811928
C          113.53521707235582      123.77099894076163      110.52221360411582
C          112.65415044143880      122.74808404388553      109.80172455121109
C          111.17584113599032      123.14229896641621      109.76524555540452
C          110.52354936201766      123.34414060913032      111.13360384666802
C          110.45572174127146      122.07546280273296      111.97675957058514
C          109.71060258201339      122.30754454733105      113.28966963399102
C          109.58342925257381      121.04117225345834      114.13681930309428
C          110.91329826117807      120.57867378122099      114.72686076879165
C          110.79024978348329      119.25433213738120      115.47619010264982
C          112.13444837239183      118.80970073964070      116.04502499155842
C          112.05384472252418      117.46297594053013      116.75658828212791
C          113.41918933523750      117.01591431459963      117.26740041925221
C          113.37625064594749      115.64171450742342      117.92942836580508
C          114.77441392791729      115.16519735561755      118.30833666397933
C          114.78765986542474      113.76681557979289      118.91950620040153
C          116.22117022447109      113.29328274485867      119.14515049461515
C          116.34980881493442      111.82917388886314      119.55882098337874
C          115.59569902250961      111.50366467739636      120.84507805825848
C          116.03740246289250      110.18664119764784      121.48120972244233
C          115.96740496135885      108.97171334430752      120.55850548260631
C          114.56687666820164      108.68463372434977      120.02702839877215
C          114.52661319361235      107.37222529740332      119.25198441352022
C          113.14475988015626      107.08041231227733      118.67608987251069
C          113.10695779059813      105.73019457744759      117.97129561274923
C          111.71823895611838      105.36817633559528      117.45234492652880
C          111.75951854605911      104.04941295161994      116.68734891847306
C          110.37959287506327      103.50166729016573      116.33489408216478
C          110.51293196863605      102.15712541934707      115.62770100182257
C          109.17783503302500      101.48095173663614      115.33981200598762
C          109.36049513835434      100.05939890095951      114.80945223608694
C          109.95194526283008      100.01257152138631      113.40308416024082
C          110.09451990290786       98.57723434668506      112.90609412938927
C          110.53716990409438       98.47944151428261      111.44749891477079
C          109.43614466190849       98.88931162871725      110.47348205369303
C          109.81882176285396       98.62316843869586      109.02164517690873
C          108.71971299636793       99.06680175543755      108.06127169665351
C          109.07362667956598       98.78233648003297      106.60546758254534
C          108.00104249122899       99.28954955792010      105.64666109914118
C          108.35276086740019       99.01067488830918      104.18848916756913
C          107.33430833473433       99.61781288829110      103.22856079477573
C          107.69350481341549       99.36904100862637      101.76622582642328
C          106.73234234419596      100.08146337460195      100.81905744189757
C          107.10152175464222       99.88378996127054       99.35117943956027
C          106.18285968461139      100.68187945383627       98.43002432422512
C          106.55825854698199      100.53871768182044       96.95737832096299
C          105.68336823355223      101.41678528667900       96.06674313053647
C          106.03849589283362      101.29090372125984       94.58832740511595
C          105.21137682710818      102.23727011822405       93.72170549383630
C          105.54667148584885      102.09578011855987       92.24275819865116
H          104.14892102412553      102.03392973533519       93.87544714940478
H          105.39798126800686      103.26701752233080       94.03650483240239
H          107.09911240940916      101.51436508753604       94.45199287215554
H          105.87357978816316      100.26128321856110       94.26110525038403
H          104.63293346309361      101.15241845359679       96.21252235333597
H          105.80228364248828      102.45932728350473       96.37316168159001
H          107.60560658235678      100.81986456585830       96.82109206528717
H          106.45783239548321       99.49367972656115       96.65384851258568
H          105.14997423696146      100.35661867731339       98.57477651199915
H          106.23260338226076      101.73701944468277       98.71014940242647
H          108.13556431508248      100.20103459185231       99.19197587538433
H          107.04538582961479       98.82227870293771       99.09718403574927
H          105.71642207980375       99.71882396590864      100.98975193143565
H          106.74068149442657      101.15000526784421      101.04607686257197
H          108.71057859508629       99.72432539608306      101.57994872303084
H          107.68381662456112       98.29522213311172      101.56268970826936
H          106.34533401886331       99.20415779359787      103.43509889492326
H          107.28358506595815      100.69470118730771      103.40331352029023
H          109.33975002587509       99.42853689407504      103.97328640218284
H          108.41383384610417       97.93145664040958      104.02628906203213
H          107.04529434356419       98.81980044781572      105.88626918057774
H          107.88333146097621      100.36651704940338      105.78527234207331
H          110.02443338285983       99.26604861559733      106.36823666676540
H          109.20884377271393       97.70642913497213      106.46702405283382
H          107.78931235267534       98.55446283139851      108.31437005250545
H          108.54997897198328      100.13894605836792      108.18556939059602
H          110.74363403731783       99.15575519234756      108.78787581507054
H          110.01072117758875       97.55543686406841      108.88606147359084
H          108.52464697072880       98.33615021981336      110.70977510692093
H          109.21706842966650       99.95242774665117      110.59005703044177
H          111.41846120798360       99.10437443535243      111.28739489299376
H          110.82526416796539       97.44636852542166      111.23587639338817
H          110.81943909128810       98.05926841752661      113.53861991393967
H          109.13661331779191       98.06585361453592      113.01456000888989
H          109.30396008100693      100.57721027224498      112.72995588933736
H          110.93483911058037      100.48657541187700      113.39559072876717
H          110.00954506783710       99.50495704524826      115.49221518733181
H          108.39069693531593       99.55764202612137      114.79779799661162
H          108.59691421343068      101.44047832623326      116.26415509968714
H          108.61252918398961      102.07238328440233      114.61590564430524
H          111.06414585340856      102.30479290498049      114.69694002292920
H          111.10151221488611      101.48865255459775      116.26035239051767
H          109.79123602774497      103.37803128816877      117.24732633705447
H          109.84847636290939      104.20900225176091      115.69381555348504
H          112.33853112387318      104.18103904832793      115.76921539238165
H          112.28532788466289      103.30995906579734      117.29730898759802
H          111.02497324367948      105.28221623490289      118.29250762494027
H          111.34561655039771      106.16307467770451      116.80253543124172
H          113.81079965087642      105.74153260358915      117.13639819559383
H          113.44108962047115      104.95517791086066      118.66477843508933
H          112.40425903600060      107.08824049240525      119.47983049417923
H          112.87085634477700      107.86832300328203      117.97187271228955
H          115.25261357219077      107.41551039066094      118.43672495774658
H          114.82130310292511      106.55504312948034      119.91453054233101
H          113.86596654644651      108.63178167391291      120.86364374630041
H          114.24036177718796      109.49460332355073      119.37232708651477
H          116.65053730578857      109.10756716117194      119.71804783585095
H          116.31264731423161      108.10039417301090      121.12047580722381
H          117.06747450979650      110.29278689229587      121.82838429882869
H          115.41752488194058      110.00001973791318      122.35921534231447
H          115.76279831510591      112.30440335511929      121.56963556172209
H          114.52481166613801      111.46877899037229      120.63972433280135
H          115.98482662266434      111.19251900454904      118.75025334307661
H          117.41127676146189      111.60467226374118      119.69957675100433
H          116.78674861153173      113.44292734802951      118.22237928262604
H          116.68106164608054      113.92028305086579      119.91173019982597
H          114.24425033883590      113.77931299049020      119.86585255160817
H          114.27478169104351      113.07600652485885      118.24905680145905
H          115.40218380617831      115.16784664635479      117.41379997425982
H          115.21527873555578      115.87190386074575      119.01557880502418
H          112.74593720704601      115.68267310645021      118.82033802138980
H          112.92322156910221      114.92397489845467      117.24019517080971
H          114.11817679165532      116.98739665975016      116.42807695997892
H          113.79697709648278      117.74984857807640      117.98273104927061
H          111.35501385869841      117.53068315914886      117.59336854009027
H          111.66866600432870      116.71233609702311      116.06229026797563
H          112.86119883541701      118.73733730795628      115.23227142142220
H          112.49860305948845      119.56698461759173      116.74252877993409
H          110.06531257874620      119.35438805209543      116.28755567815018
H          110.41414644831373      118.48554449381962      114.79585020880081
H          111.64696908100646      120.45469774289433      113.92829259494337
H          111.29335201676720      121.34587895984340      115.40533213626348
H          108.88115359617606      121.22700847539821      114.95370543328067
H          109.16654043648725      120.24279657581782      113.51902292178747
H          110.22560083654331      123.07742912106528      113.86898056814404
H          108.70933049503934      122.68236539449730      113.06096425578617
H          109.94176663226766      121.29598260146093      111.41107179963201
H          111.46716015065643      121.72761011337685      112.18602723410785
H          111.06577667497262      124.11299371844088      111.68607486972515
H          109.50487865832966      123.70778143898070      110.97556248870288
H          111.08071698899825      124.07398556885366      109.20029570968042
H          110.62400405926194      122.37267874319055      109.21910455592293
H          112.99685994262643      122.65393941825536      108.76776761473138
H          112.76078231408628      121.76947841430321      110.27051032029173
H          113.47201173997274      123.62117747762113      111.60161851735226
H          113.16018388139878      124.77438817566228      110.30339763937886
H          115.54493642787318      124.52331127377091      110.58184491169402
H          115.06136436505176      123.88417968460443      109.01279399030962
H          115.17038909609707      121.57208609104696      109.91946771799162
H          115.63193957655376      122.21537136831462      111.49772380578879
H          117.69390045406941      123.18208911421098      110.50774323891785
H          117.18074648169647      122.65063682180887      108.90721874872344
H          118.80821658332573      121.07635813302977      109.62373733636647
H          117.24550632759254      120.27074382577619      109.74039239857761
H          117.22745388196054      120.76515499529461      112.20952445643248
H          118.79962120786043      121.53592253704404      112.03891005201505
H          119.19500655252541      119.32950254345849      112.87254412575864
H          119.73347703476200      119.35972065959899      111.19656389223519
H          118.59644408877831      117.28830890630323      111.55855039864109
H          117.56367385742927      118.26421527783035      110.52521464554424
H          116.19447549294394      118.88911819150434      112.53251951159766
H          117.23436210408785      117.87332580261013      113.53113485577531
H          116.57867166146440      115.88920495486570      112.18194233308795
H          115.59941610165720      116.91986030729396      111.14528500347495
H          114.19854925217307      117.54456443423381      113.13428966590746
H          115.11383178436738      116.39123494633084      114.10604242123941
H          114.42416546792664      114.55870740556659      112.56575382704465
H          113.53805546915298      115.72007758095572      111.58446400787129
H          112.09285644941544      116.24945080310516      113.56596834575309
H          112.93173911027668      114.99369483197663      114.47842794939672
H          112.22356602719815      113.30851410166551      112.76685639164933
H          111.35901777329370      114.57988440704233      111.90173429592853
H          109.95128794711910      114.96845958081474      113.93574639103872
H          110.80740051251333      113.66885124836246      114.75716694845602
H          108.74841095944322      112.74908195821914      114.00030284820600
H          110.00303096657275      112.07640383318332      112.96170780204574
H          109.39539050383192      113.63264330082802      111.15634493272616
H          108.28404365743363      114.48312308111849      112.22625125050506
H          106.91614155349697      112.39790885959218      112.42578757254800
H          107.99190101468172      111.60597662086471      111.27663239222716
H          107.41499329671932      113.25505603914080      109.54075002233063
H          106.41558939024185      114.14718913512596      110.68778494775766
H          104.92607557707908      112.17265899192707      110.92889311426163
H          105.91465868597977      111.28245632087682      109.77277889213103
H          105.38424460485537      112.94782841794519      108.01423355386848
H          104.43387641150424      113.87821937075681      109.16940624657524
H          102.90277426190021      111.95720051129366      109.47723122740194
H          103.84216468434910      111.00605060127627      108.32702632195880
H          103.33190620425773      112.58995310522343      106.52857553770360
H          102.46549592062867      113.64046385200660      107.64348028746817
H          101.63464677614633      110.75919962055572      107.10239174117096
H          101.03638581960736      112.13197615637095      106.17460380623461
H          100.17060422419634      113.17192019798550      108.26034005052756
H          100.72430750278605      111.77684454991930      109.18412982039101
H           98.33624592443303      111.65351354930573      108.77958413501658
H           99.15731716497658      110.30687893303750      108.00473226730999
H           98.92660022905120      111.31819470071567      105.81441735891836
H           98.38314530977082      112.84301302580806      106.51406464907502
H           96.32908556526472      111.73826029260441      107.35293057629086
H           96.86634352507537      110.19986583199650      106.68290043878072
H           96.83546410901540      111.15574329794381      104.40254496314161
H           96.40336451997703      112.73498636321813      105.04871898371529
H           94.26264192394895      111.80201062896663      105.90411247715299
H           94.68151566293113      110.22277259316293      105.24171943344689
H           94.75097234740419      111.15856240263525      102.96680801250139
H           94.45526910669911      112.77593254661356      103.58750825344789
H           92.23677056556525      112.06938136371106      104.43410984739150
H           92.50177790320876      110.44272325697325      103.80975263189117
H           92.54590856337683      112.93365251210899      102.05302085166142
H           91.08273314356494      111.99834106379031      102.35024742357960
H           92.05627320176973      110.01375395682716      101.32529378545053
H           93.62725420439951      110.80439003785344      101.19577353679377
H           92.67860142213380      112.46426937162852       99.61984487235136
H           91.09924843387154      111.69407438411835       99.75372977243744
H           92.15316705574040      110.93472209479687       97.71072213369987
H           92.06031994950710      109.57942341859449       98.83516528381601
H           94.43724590771036      109.90987095433717       99.44729485667268
H           94.52908384769785      111.30053726725920       98.36479568287483
H           94.29332745328188      109.89356476429357       96.41591683119685
H           93.72085987658636      108.54006843998280       97.38823484099852
H           95.96559177011709      108.04141269340313       96.76260339583658
H           95.95903970269993      108.39820873473067       98.48887204675404
H           96.62849278374816      110.82431793639996       97.77275023707301
H           97.01325863194100      110.10536918850364       96.21384318784602
H           98.18204550658810      109.35765858165506       98.92806747570495
H           98.99901242267063      110.28256514661420       97.66806294891659
H           98.85186866330631      108.28620617574610       96.15520431707677
H           98.13868428241960      107.36463802574617       97.47712494719562
H          100.91577633793190      108.61727847747034       97.52839081802441
H          100.55470831673333      106.92449880030054       97.20219992062742
H           99.46039208673562      106.78118581432628       99.47542964622365
H          100.02336972626009      108.41897599681789       99.80381169312871
H          102.37592711850651      107.68150353991457       99.48345071909556
H          101.81874010080347      106.03921657200455       99.17504093214519
H          100.79157375433074      105.95215239396936      101.43560017669741
H          101.30891017748850      107.60465094816578      101.74341272122849
H          103.69236198674078      106.89034686604097      101.50738620406020
H          103.16266063591988      105.22958225679731      101.26764884038475
H          102.06960315926673      105.24786846538183      103.50177928861380
H          102.55792667666547      106.92054805391831      103.73123347568900
H          104.97122545139472      106.18576649573592      103.55447373961165
H          104.41463987955508      104.51562289688921      103.50007235539840
H          103.20880388183413      104.93632757845229      105.70188364737638
H          103.97086752109121      106.52228600329099      105.75267122660453
H          106.22278751593927      105.39243506883859      105.70870930850761
H          105.40694689641390      103.83230606620401      105.76613886072849
H          104.27318290052926      104.59317438599655      107.91016982404427
H          105.27488747033257      106.04287580055194      107.86037827045772
H          107.32042238740011      104.57044418608544      107.92021116608460
H          106.26592460702753      103.16892586954570      108.09227943117101
H          105.29400050678527      104.21408373381851      110.16667053402900
H          106.46109788013463      105.53110499039948      110.00931726646405
H          108.28704726359071      103.72651491828471      110.03550660349178
H          107.03932763698468      102.59506197742422      110.55215087793430
H          107.85998441108558      105.13993988636189      112.02431616562588
H          108.41414074129953      103.51457947020408      112.39308469856672
H          106.77558561236074      103.73434016991881      113.97211553779987
H          105.84119811932521      102.97974864430790      112.68585136018324
H          104.88949421019829      105.18152186826229      112.07658780057507
H          105.97279354843454      105.97997359220845      113.21111347697389
H          104.88566298482957      104.84393936994134      115.10183452669709
H          103.83230527763800      103.95935045350215      114.00258230287599
H          102.87410389920936      106.11722679880396      113.19825021937281
H          103.93661478304726      106.99373799503972      114.29917865834994
H          102.83453890404982      105.92543306380902      116.24524368134088
H          101.78348633385578      105.01287672643473      115.16146831591564
H          100.88115254257605      107.15749372399208      114.25138414437025
H          101.92855450820747      108.05614093580498      115.34574239674929
H          100.78596624985721      107.02975608348895      117.29060050227787
H           99.72384405096128      106.13249431267781      116.20328050226797
H           98.92102350054283      108.30260576452653      115.24322133090497
H           99.91216521172051      109.17252064520426      116.41267302642581
H           97.73419394513179      107.19208793874378      117.18275852258073
H           97.44855959251237      108.92609631773210      117.00355691898447
H           99.18132597112674      109.36573541619225      118.74856935621919
H           99.35936938414854      107.63400543302090      118.99161260431963
H           96.87845341436716      109.32775368132641      119.49030545409458
H           97.91378895672197      108.57730522920841      120.70507798776555
H           96.09662218004846      107.15360490476027      118.71953417281466
H           95.81221237248877      107.35728245613633      120.44161182313664
H           97.73434953493471      105.96632863413019      120.99757797516874
H           98.17761195711113      105.80705725658869      119.30007964001913
H           95.52557982117537      104.82740058651417      120.42064596693740
H           96.97216083483491      103.82514422361200      120.28352411140577
H           97.02551646926304      104.24390612850245      117.83109213147212
H           95.52315377806312      105.16010304130219      117.95843106668558
H           94.36437700064434      103.14008267637908      118.84944418449658
H           95.05895833064348      102.83634259003192      117.25655943715839
H           95.86153916858652      102.21908410377016      118.70108845284977
H          105.34884952653998      101.08184761591860       91.90092507651120
H          104.94928714908156      102.78207009074480       91.64640339918998
H          106.59740120370178      102.31664353545037       92.06739451628087
C          110.23231426377104      104.96184947939517       94.16769951057782
C          109.04599569941372      104.16187492483063       94.69209111611777
C          109.02236944329667      104.04464670310125       96.21579698243960
C          110.16403939076012      103.20610474112746       96.78654687396347
C          110.00013456351417      102.98752369151102       98.28875308914107
C          111.15311272621493      102.18944418887034       98.89352858280951
C          110.95682836770982      101.96081444511788      100.39000312142250
C          112.10575750631487      101.18291081740196      101.02855542882027
C          111.86812160361900      100.96791045996498      102.52116841116235
C          112.99644290652651      100.20512665230144      103.21215375345139
C          112.68992877338734       99.99525676411328      104.69341245520137
C          113.79509690925335       99.25936134048571      105.44721402230293
C          113.43311018251846       99.07906179168671      106.92047720938763
C          114.50692639732736       98.34033035039721      107.71524009327854
C          114.12012262112837       98.19664215386328      109.18680700609205
C          115.18871204968829       97.46176457293858      109.99336665110799
C          114.75886235910781       97.13531283629217      111.42477259157465
C          114.58275934249144       98.36953862668548      112.30644328403959
C          114.28938008062015       97.99757877700259      113.75813060028280
C          114.18059073166434       99.22450136842970      114.66124740784124
C          113.81226707260851       98.84848035691468      116.09394051450191