      -----------------------------------------------------------      
     |                   =====================                   |     
     |                           x T B                           |     
     |                   =====================                   |     
     |                         S. Grimme                         |     
     |          Mulliken Center for Theoretical Chemistry        |     
     |                    University of Bonn                     |     
      -----------------------------------------------------------      

   * xtb version 6.6.1 (8d0f1dd) compiled by 'stahn@M-Bot' on 2023-08-01

   xtb is free software: you can redistribute it and/or modify it under
   the terms of the GNU Lesser General Public License as published by
   the Free Software Foundation, either version 3 of the License, or
   (at your option) any later version.
   
   xtb is distributed in the hope that it will be useful,
   but WITHOUT ANY WARRANTY; without even the implied warranty of
   MERCHANTABILITY or FITNESS FOR A PARTICULAR PURPOSE.  See the
   GNU Lesser General Public License for more details.
   
   Cite this work as:
   * C. Bannwarth, E. Caldeweyher, S. Ehlert, A. Hansen, P. Pracht,
     J. Seibert, S. Spicher, S. Grimme, WIREs Comput. Mol. Sci., 2020, 11,
     e01493. DOI: 10.1002/wcms.1493
   
   for GFN2-xTB:
   * C. Bannwarth, S. Ehlert and S. Grimme., J. Chem. Theory Comput., 2019,
     15, 1652-1671. DOI: 10.1021/acs.jctc.8b01176
   for GFN1-xTB:
   * S. Grimme, C. Bannwarth, P. Shushkov, J. Chem. Theory Comput., 2017,
     13, 1989-2009. DOI: 10.1021/acs.jctc.7b00118
   for GFN0-xTB:
   * P. Pracht, E. Caldeweyher, S. Ehlert, S. Grimme, ChemRxiv, 2019, preprint.
     DOI: 10.26434/chemrxiv.8326202.v1
   for GFN-FF:
   * S. Spicher and S. Grimme, Angew. Chem. Int. Ed., 2020, 59, 15665-15673.
     DOI: 10.1002/anie.202004239
   
   for ALPB and GBSA implicit solvation:
   * S. Ehlert, M. Stahn, S. Spicher, S. Grimme, J. Chem. Theory Comput.,
     2021, 17, 4250-4261. DOI: 10.1021/acs.jctc.1c00471
   
   for DFT-D4:
   * E. Caldeweyher, C. Bannwarth and S. Grimme, J. Chem. Phys., 2017,
     147, 034112. DOI: 10.1063/1.4993215
   * E. Caldeweyher, S. Ehlert, A. Hansen, H. Neugebauer, S. Spicher,
     C. Bannwarth and S. Grimme, J. Chem. Phys., 2019, 150, 154122.
     DOI: 10.1063/1.5090222
   * E. Caldeweyher, J.-M. Mewes, S. Ehlert and S. Grimme, Phys. Chem. Chem. Phys.
     2020, 22, 8499-8512. DOI: 10.1039/D0CP00502A
   
   for sTDA-xTB:
   * S. Grimme and C. Bannwarth, J. Chem. Phys., 2016, 145, 054103.
     DOI: 10.1063/1.4959605
   
   in the mass-spec context:
   * V. Asgeirsson, C. Bauer and S. Grimme, Chem. Sci., 2017, 8, 4879.
     DOI: 10.1039/c7sc00601b
   * J. Koopman and S. Grimme, ACS Omega 2019, 4, 12, 15120-15133.
     DOI: 10.1021/acsomega.9b02011
   
   for metadynamics refer to:
   * S. Grimme, J. Chem. Theory Comput., 2019, 155, 2847-2862
     DOI: 10.1021/acs.jctc.9b00143
   
   for SPH calculations refer to:
   * S. Spicher and S. Grimme, J. Chem. Theory Comput., 2021, 17, 1701-1714
     DOI: 10.1021/acs.jctc.0c01306
   
   with help from (in alphabetical order)
   P. Atkinson, C. Bannwarth, F. Bohle, G. Brandenburg, E. Caldeweyher
   M. Checinski, S. Dohm, S. Ehlert, S. Ehrlich, I. Gerasimov, C. Hölzer
   A. Katbashev, J. Koopman, C. Lavigne, S. Lehtola, F. März, M. Müller,
   F. Musil, H. Neugebauer, J. Pisarek, C. Plett, P. Pracht, F. Pultar,
   J. Seibert, P. Shushkov, S. Spicher, M. Stahn, M. Steiner, T. Strunk,
   J. Stückrath, T. Rose, and J. Unsleber
   
 * started run on 2024/10/03 at 21:23:06.652     

           -------------------------------------------------
          |                Calculation Setup                |
           -------------------------------------------------

          program call               : /home/abt-grimme/AK-bin/xtb input.xyz --input input.inp --opt
          hostname                   : boar077.thch.uni-bonn.de
          coordinate file            : input.xyz
          omp threads                :                     8

   ID    Z sym.   atoms
    1    6 C      1-120, 363-482, 725-844, 1087-1206, 1449-1568, 1811-1930,
                  2173-2292, 2535-2654, 2897-3016
    2    1 H      121-362, 483-724, 845-1086, 1207-1448, 1569-1810,
                  1931-2172, 2293-2534, 2655-2896, 3017-3258

molecular fragmentation (1/2 indicates fragments):
111111111111111111111111111111111111111111111111111111111111111111111111
111111111111111111111111111111111111111111111111111111111111111111111111
111111111111111111111111111111111111111111111111111111111111111111111111
111111111111111111111111111111111111111111111111111111111111111111111111
111111111111111111111111111111111111111111111111111111111111111111111111
112222222222222222222222222222222222222222222222222222222222222222222222
222222222222222222222222222222222222222222222222222222222222222222222222
222222222222222222222222222222222222222222222222222222222222222222222222
222222222222222222222222222222222222222222222222222222222222222222222222
222222222222222222222222222222222222222222222222222222222222222222222222
222222222222222222222222222222222222222222222222222222222222222222222222
222222222222222222222222222222222222222222222222222222222222222222222222
222222222222222222222222222222222222222222222222222222222222222222222222
222222222222222222222222222222222222222222222222222222222222222222222222
222222222222222222222222222222222222222222222222222222222222222222222222
222222222222222222222222222222222222222222222222222222222222222222222222
222222222222222222222222222222222222222222222222222222222222222222222222
222222222222222222222222222222222222222222222222222222222222222222222222
222222222222222222222222222222222222222222222222222222222222222222222222
222222222222222222222222222222222222222222222222222222222222222222222222
222222222222222222222222222222222222222222222222222222222222222222222222
222222222222222222222222222222222222222222222222222222222222222222222222
222222222222222222222222222222222222222222222222222222222222222222222222
222222222222222222222222222222222222222222222222222222222222222222222222
222222222222222222222222222222222222222222222222222222222222222222222222
222222222222222222222222222222222222222222222222222222222222222222222222
222222222222222222222222222222222222222222222222222222222222222222222222
222222222222222222222222222222222222222222222222222222222222222222222222
222222222222222222222222222222222222222222222222222222222222222222222222
222222222222222222222222222222222222222222222222222222222222222222222222
222222222222222222222222222222222222222222222222222222222222222222222222
222222222222222222222222222222222222222222222222222222222222222222222222
222222222222222222222222222222222222222222222222222222222222222222222222
222222222222222222222222222222222222222222222222222222222222222222222222
222222222222222222222222222222222222222222222222222222222222222222222222
222222222222222222222222222222222222222222222222222222222222222222222222
222222222222222222222222222222222222222222222222222222222222222222222222
222222222222222222222222222222222222222222222222222222222222222222222222
222222222222222222222222222222222222222222222222222222222222222222222222
222222222222222222222222222222222222222222222222222222222222222222222222
222222222222222222222222222222222222222222222222222222222222222222222222
222222222222222222222222222222222222222222222222222222222222222222222222
222222222222222222222222222222222222222222222222222222222222222222222222
222222222222222222222222222222222222222222222222222222222222222222222222
222222222222222222222222222222222222222222222222222222222222222222222222
222222222222222222
# atoms in fragment 1/2:   362  2896
 fragment masses (1/2) :     1685.21    13481.68
CMA distance (Bohr)    :   9.318
constraining FC (au)   :  0.0500

           -------------------------------------------------
          |                 G F N 2 - x T B                 |
           -------------------------------------------------

        Reference                      10.1021/acs.jctc.8b01176
      * Hamiltonian:
        H0-scaling (s, p, d)           1.850000    2.230000    2.230000
        zeta-weighting                 0.500000
      * Dispersion:
        s8                             2.700000
        a1                             0.520000
        a2                             5.000000
        s9                             5.000000
      * Repulsion:
        kExp                           1.500000    1.000000
        rExp                           1.000000
      * Coulomb:
        alpha                          2.000000
        third order                    shell-resolved
        anisotropic                    true
        a3                             3.000000
        a5                             4.000000
        cn-shift                       1.200000
        cn-exp                         4.000000
        max-rad                        5.000000


          ...................................................
          :                      SETUP                      :
          :.................................................:
          :  # basis functions                6498          :
          :  # atomic orbitals                6498          :
          :  # shells                         4338          :
          :  # electrons                      6498          :
          :  max. iterations                   250          :
          :  Hamiltonian                  GFN2-xTB          :
          :  restarted?                      false          :
          :  GBSA solvation                  false          :
          :  PC potential                    false          :
          :  electronic temp.          300.0000000     K    :
          :  accuracy                    1.0000000          :
          :  -> integral cutoff          0.2500000E+02      :
          :  -> integral neglect         0.1000000E-07      :
          :  -> SCF convergence          0.1000000E-05 Eh   :
          :  -> wf. convergence          0.1000000E-03 e    :
          :  Broyden damping             0.4000000          :
          ...................................................

 iter      E             dE          RMSdq      gap      omega  full diag
   1  -3473.5064703 -0.347351E+04  0.245E+00   11.41       0.0  T
   2  -3478.5879142 -0.508144E+01  0.136E+00   11.46       1.0  T
   3  -3478.7930890 -0.205175E+00  0.599E-01   11.36       1.0  T
   4  -3478.8136460 -0.205570E-01  0.756E-02   11.40       1.0  T
   5  -3478.8145851 -0.939030E-03  0.391E-02   11.41       1.0  T
   6  -3478.8147905 -0.205447E-03  0.668E-03   11.40       1.0  T
   7  -3478.8148079 -0.174006E-04  0.126E-03   11.40       1.4  T
   8  -3478.8148090 -0.109615E-05  0.399E-04   11.40       4.4  T
   9  -3478.8148091 -0.704249E-07  0.145E-04   11.40      12.1  T
  10  -3478.8148091 -0.414775E-08  0.436E-05   11.40      40.2  T

   *** convergence criteria satisfied after 10 iterations ***

         #    Occupation            Energy/Eh            Energy/eV
      -------------------------------------------------------------
         1        2.0000           -0.6250787             -17.0093
       ...           ...                  ...                  ...
      3243        2.0000           -0.4024657             -10.9516
      3244        2.0000           -0.4022826             -10.9467
      3245        2.0000           -0.4021904             -10.9442
      3246        2.0000           -0.4021536             -10.9432
      3247        2.0000           -0.4016807             -10.9303
      3248        2.0000           -0.4012271             -10.9179
      3249        2.0000           -0.3996097             -10.8739 (HOMO)
      3250                          0.0193978               0.5278 (LUMO)
      3251                          0.0209123               0.5691
      3252                          0.0218658               0.5950
      3253                          0.0225819               0.6145
      3254                          0.0238523               0.6491
       ...                                ...                  ...
      6498                          0.3837658              10.4428
      -------------------------------------------------------------
                  HL-Gap            0.4190075 Eh           11.4018 eV
             Fermi-level           -0.1901060 Eh           -5.1730 eV

 SCC (total)                   0 d,  0 h, 14 min, 34.169 sec
 SCC setup                      ...        0 min,  0.436 sec (  0.050%)
 Dispersion                     ...        0 min,  3.538 sec (  0.405%)
 classical contributions        ...        0 min,  0.144 sec (  0.016%)
 integral evaluation            ...        0 min,  5.938 sec (  0.679%)
 iterations                     ...       10 min, 23.136 sec ( 71.283%)
 molecular gradient             ...        3 min, 52.398 sec ( 26.585%)
 printout                       ...        0 min,  8.580 sec (  0.981%)

         :::::::::::::::::::::::::::::::::::::::::::::::::::::
         ::                     SUMMARY                     ::
         :::::::::::::::::::::::::::::::::::::::::::::::::::::
         :: total energy           -3427.550986494576 Eh    ::
         :: gradient norm              0.018889040050 Eh/a0 ::
         :: HOMO-LUMO gap             11.401775192199 eV    ::
         ::.................................................::
         :: SCC energy             -3478.814809085130 Eh    ::
         :: -> isotropic ES            0.417688507430 Eh    ::
         :: -> anisotropic ES          1.120493315093 Eh    ::
         :: -> anisotropic XC          1.945832935391 Eh    ::
         :: -> dispersion             -4.063057894026 Eh    ::
         :: repulsion energy          50.608568660442 Eh    ::
         :: add. restraining           0.000000000000 Eh    ::
         :: total charge              -0.000000000011 e     ::
         :::::::::::::::::::::::::::::::::::::::::::::::::::::

      ----------------------------------------------------------- 
     |              Fast Inertial Relaxation Engine              |
      ----------------------------------------------------------- 

          ...................................................
          :                      SETUP                      :
          :.................................................:
          :   energy convergence        0.5000000E-05 Eh    :
          :   grad. convergence         0.1000000E-02 Eh/a0 :
          :   optimization log               true           :
          :   writing optlog all                1     steps :
          :   Hessian reset                    20     steps :
          :   time step scaling                 5     steps :
          :   maximium step len.        1.0000000     a0    :
          :   initial time step         0.2500000     fs    :
          :   maximum time step         1.2500000     fs    :
          :   power reset thr           0.0000000     au    :
          :   alpha parameter           0.1000000           :
          :   BFGS update                   false           :
          :   preconditioning               false           :
          ...................................................

........................................................................
.............................. CYCLE    1 ..............................
........................................................................

 iter      E             dE          RMSdq      gap      omega  full diag
   1  -3478.8184496 -0.347882E+04  0.273E-04   11.40       0.0  T
   2  -3478.8184496 -0.297700E-07  0.156E-04   11.40      11.3  T
   3  -3478.8184496 -0.568889E-09  0.500E-05   11.40      35.0  T
     SCC iter.                  ...        3 min,  4.853 sec
     gradient                   ...        3 min, 53.210 sec
 * total energy  : -3427.5510266 Eh     change    :  -0.4012227E-04 Eh
   gradient norm :     0.0173676 Eh/a0  converged?    E=F G=F D=F
   time step     :     0.2500000 fs     power     :   0.2040219E-08
   step length   :     0.0022138 a0     speed     :   0.2141927E-03

........................................................................
.............................. CYCLE    2 ..............................
........................................................................

 iter      E             dE          RMSdq      gap      omega  full diag
   1  -3478.8237481 -0.347882E+04  0.395E-04   11.40       0.0  T
   2  -3478.8237481 -0.621071E-07  0.225E-04   11.40       7.8  T
   3  -3478.8237481 -0.138471E-08  0.724E-05   11.40      24.2  T
     SCC iter.                  ...        3 min,  0.031 sec
     gradient                   ...        3 min, 55.140 sec
 * total energy  : -3427.5510792 Eh     change    :  -0.5256723E-04 Eh
   gradient norm :     0.0151798 Eh/a0  converged?    E=F G=F D=F
   time step     :     0.2500000 fs     power     :   0.2599794E-08
   step length   :     0.0032313 a0     speed     :   0.3126446E-03

........................................................................
.............................. CYCLE    3 ..............................
........................................................................

 iter      E             dE          RMSdq      gap      omega  full diag
   1  -3478.8304722 -0.347883E+04  0.502E-04   11.40       0.0  T
   2  -3478.8304723 -0.998962E-07  0.286E-04   11.40       6.1  T
   3  -3478.8304723 -0.221280E-08  0.916E-05   11.40      19.1  T
     SCC iter.                  ...        3 min,  0.371 sec
     gradient                   ...        3 min, 54.297 sec
 * total energy  : -3427.5511360 Eh     change    :  -0.5678389E-04 Eh
   gradient norm :     0.0124489 Eh/a0  converged?    E=F G=F D=F
   time step     :     0.2500000 fs     power     :   0.2706754E-08
   step length   :     0.0041196 a0     speed     :   0.3985927E-03

........................................................................
.............................. CYCLE    4 ..............................
........................................................................

 iter      E             dE          RMSdq      gap      omega  full diag
   1  -3478.8383222 -0.347884E+04  0.589E-04   11.40       0.0  T
   2  -3478.8383223 -0.135532E-06  0.336E-04   11.40       5.2  T
   3  -3478.8383223 -0.297860E-08  0.106E-04   11.40      16.5  T
     SCC iter.                  ...        2 min, 56.547 sec
     gradient                   ...        3 min, 52.806 sec
 * total energy  : -3427.5511883 Eh     change    :  -0.5230549E-04 Eh
   gradient norm :     0.0093726 Eh/a0  converged?    E=F G=F D=F
   time step     :     0.2500000 fs     power     :   0.2358238E-08
   step length   :     0.0048442 a0     speed     :   0.4686994E-03

........................................................................
.............................. CYCLE    5 ..............................
........................................................................

 iter      E             dE          RMSdq      gap      omega  full diag
   1  -3478.8469286 -0.347885E+04  0.650E-04   11.40       0.0  T
   2  -3478.8469287 -0.161545E-06  0.371E-04   11.40       4.7  T
   3  -3478.8469287 -0.371620E-08  0.116E-04   11.40      15.1  T
     SCC iter.                  ...        2 min, 57.661 sec
     gradient                   ...        3 min, 52.320 sec
 * total energy  : -3427.5512285 Eh     change    :  -0.4027491E-04 Eh
   gradient norm :     0.0063180 Eh/a0  converged?    E=F G=F D=F
   time step     :     0.2500000 fs     power     :   0.1635794E-08
   step length   :     0.0053755 a0     speed     :   0.5201047E-03

........................................................................
.............................. CYCLE    6 ..............................
........................................................................

 iter      E             dE          RMSdq      gap      omega  full diag
   1  -3478.8567431 -0.347886E+04  0.753E-04   11.40       0.0  T
   2  -3478.8567433 -0.207117E-06  0.430E-04   11.40       4.1  T
   3  -3478.8567433 -0.484624E-08  0.130E-04   11.40      13.5  T
     SCC iter.                  ...        3 min,  1.437 sec
     gradient                   ...        3 min, 52.799 sec
 * total energy  : -3427.5512534 Eh     change    :  -0.2483409E-04 Eh
   gradient norm :     0.0041570 Eh/a0  converged?    E=F G=F D=F
   time step     :     0.2750000 fs     power     :   0.6033064E-09
   step length   :     0.0062800 a0     speed     :   0.5523844E-03

........................................................................
.............................. CYCLE    7 ..............................
........................................................................

 iter      E             dE          RMSdq      gap      omega  full diag
   1  -3478.8667272 -0.347887E+04  0.802E-04   11.40       0.0  T
   2  -3478.8667274 -0.207428E-06  0.460E-04   11.40       3.8  T
   3  -3478.8667274 -0.507089E-08  0.127E-04   11.40      13.8  T
     SCC iter.                  ...        2 min, 58.918 sec
     gradient                   ...        3 min, 58.849 sec
 * total energy  : -3427.5512573 Eh     change    :  -0.3958954E-05 Eh
   gradient norm :     0.0052283 Eh/a0  converged?    E=T G=F D=F
   time step     :     0.3025000 fs     power     :  -0.3946847E-09
   step length   :     0.0067842 a0     speed     :   0.5424876E-03

........................................................................
.............................. CYCLE    8 ..............................
........................................................................
 * reset velocities

 iter      E             dE          RMSdq      gap      omega  full diag
   1  -3478.8666062 -0.347887E+04  0.152E-05   11.40       0.0  T
   2  -3478.8666062 -0.105956E-09  0.827E-06   11.40     211.7  T
   3  -3478.8666062 -0.413820E-10  0.344E-06   11.40     508.8  T
     SCC iter.                  ...        2 min, 57.644 sec
     gradient                   ...        3 min, 53.107 sec
 * total energy  : -3427.5512579 Eh     change    :  -0.5400934E-06 Eh
   gradient norm :     0.0051647 Eh/a0  converged?    E=T G=F D=T
   time step     :     0.1512500 fs     power     :   0.5081016E-10
   step length   :     0.0001121 a0     speed     :   0.1793405E-04

........................................................................
.............................. CYCLE    9 ..............................
........................................................................

 iter      E             dE          RMSdq      gap      omega  full diag
   1  -3478.8663661 -0.347887E+04  0.281E-05   11.40       0.0  T
   2  -3478.8663661 -0.164164E-09  0.164E-05   11.40     106.9  T
   3  -3478.8663661 -0.209184E-10  0.397E-06   11.40     440.9  T
     SCC iter.                  ...        3 min,  0.054 sec
     gradient                   ...        3 min, 53.488 sec
 * total energy  : -3427.5512590 Eh     change    :  -0.1139442E-05 Eh
   gradient norm :     0.0050468 Eh/a0  converged?    E=T G=F D=T
   time step     :     0.1512500 fs     power     :   0.9868437E-10
   step length   :     0.0002229 a0     speed     :   0.3564978E-04

........................................................................
.............................. CYCLE   10 ..............................
........................................................................

 iter      E             dE          RMSdq      gap      omega  full diag
   1  -3478.8660126 -0.347887E+04  0.414E-05   11.40       0.0  T
   2  -3478.8660126 -0.436557E-09  0.241E-05   11.40      72.6  T
   3  -3478.8660126 -0.231921E-10  0.587E-06   11.40     298.3  T
     SCC iter.                  ...        2 min, 59.078 sec
     gradient                   ...        3 min, 51.288 sec
 * total energy  : -3427.5512607 Eh     change    :  -0.1644501E-05 Eh
   gradient norm :     0.0048751 Eh/a0  converged?    E=T G=F D=T
   time step     :     0.1512500 fs     power     :   0.1415565E-09
   step length   :     0.0003311 a0     speed     :   0.5295950E-04

........................................................................
.............................. CYCLE   11 ..............................
........................................................................

 iter      E             dE          RMSdq      gap      omega  full diag
   1  -3478.8655535 -0.347887E+04  0.543E-05   11.40       0.0  T
   2  -3478.8655535 -0.722594E-09  0.317E-05   11.40      55.4  T
   3  -3478.8655535 -0.954969E-11  0.766E-06   11.40     228.8  T
     SCC iter.                  ...        2 min, 58.130 sec
     gradient                   ...        3 min, 51.069 sec
 * total energy  : -3427.5512627 Eh     change    :  -0.2077110E-05 Eh
   gradient norm :     0.0046545 Eh/a0  converged?    E=T G=F D=T
   time step     :     0.1512500 fs     power     :   0.1776467E-09
   step length   :     0.0004357 a0     speed     :   0.6967385E-04

........................................................................
.............................. CYCLE   12 ..............................
........................................................................

 iter      E             dE          RMSdq      gap      omega  full diag
   1  -3478.8649998 -0.347886E+04  0.665E-05   11.40       0.0  T
   2  -3478.8649998 -0.105638E-08  0.388E-05   11.40      45.2  T
   3  -3478.8649998 -0.286491E-10  0.927E-06   11.40     189.1  T
     SCC iter.                  ...        3 min,  0.781 sec
     gradient                   ...        3 min, 52.769 sec
 * total energy  : -3427.5512652 Eh     change    :  -0.2418978E-05 Eh
   gradient norm :     0.0043927 Eh/a0  converged?    E=T G=F D=T
   time step     :     0.1512500 fs     power     :   0.2056307E-09
   step length   :     0.0005353 a0     speed     :   0.8561557E-04

........................................................................
.............................. CYCLE   13 ..............................
........................................................................

 iter      E             dE          RMSdq      gap      omega  full diag
   1  -3478.8643656 -0.347886E+04  0.778E-05   11.40       0.0  T
   2  -3478.8643656 -0.139016E-08  0.454E-05   11.40      38.6  T
   3  -3478.8643656 -0.350155E-10  0.107E-05   11.40     164.1  T
     SCC iter.                  ...        2 min, 59.815 sec
     gradient                   ...        3 min, 51.563 sec
 * total energy  : -3427.5512678 Eh     change    :  -0.2666289E-05 Eh
   gradient norm :     0.0040995 Eh/a0  converged?    E=T G=F D=T
   time step     :     0.1512500 fs     power     :   0.2247499E-09
   step length   :     0.0006292 a0     speed     :   0.1006237E-03

........................................................................
.............................. CYCLE   14 ..............................
........................................................................

 iter      E             dE          RMSdq      gap      omega  full diag
   1  -3478.8635903 -0.347886E+04  0.979E-05   11.40       0.0  T
   2  -3478.8635903 -0.211639E-08  0.572E-05   11.40      30.6  T
   3  -3478.8635903 -0.190994E-10  0.132E-05   11.40     132.8  T
     SCC iter.                  ...        2 min, 58.639 sec
     gradient                   ...        3 min, 51.866 sec
 * total energy  : -3427.5512709 Eh     change    :  -0.3109321E-05 Eh
   gradient norm :     0.0037536 Eh/a0  converged?    E=T G=F D=T
   time step     :     0.1663750 fs     power     :   0.2353267E-09
   step length   :     0.0007976 a0     speed     :   0.1159561E-03

........................................................................
.............................. CYCLE   15 ..............................
........................................................................

 iter      E             dE          RMSdq      gap      omega  full diag
   1  -3478.8626746 -0.347886E+04  0.121E-04   11.40       0.0  T
   2  -3478.8626746 -0.319733E-08  0.708E-05   11.40      24.7  T
   3  -3478.8626746 -0.322871E-10  0.158E-05   11.40     111.0  T
     SCC iter.                  ...        2 min, 58.305 sec
     gradient                   ...        3 min, 50.768 sec
 * total energy  : -3427.5512744 Eh     change    :  -0.3449731E-05 Eh
   gradient norm :     0.0033699 Eh/a0  converged?    E=T G=F D=T
   time step     :     0.1830125 fs     power     :   0.2350615E-09
   step length   :     0.0009928 a0     speed     :   0.1312253E-03

........................................................................
.............................. CYCLE   16 ..............................
........................................................................

 iter      E             dE          RMSdq      gap      omega  full diag
   1  -3478.8616396 -0.347886E+04  0.146E-04   11.40       0.0  T
   2  -3478.8616396 -0.425780E-08  0.854E-05   11.40      20.5  T
   3  -3478.8616396 -0.732143E-10  0.182E-05   11.40      96.2  T
     SCC iter.                  ...        3 min,  6.342 sec
     gradient                   ...        3 min, 51.878 sec
 * total energy  : -3427.5512781 Eh     change    :  -0.3688495E-05 Eh
   gradient norm :     0.0029849 Eh/a0  converged?    E=T G=F D=F
   time step     :     0.2013138 fs     power     :   0.2228717E-09
   step length   :     0.0012143 a0     speed     :   0.1459015E-03

........................................................................
.............................. CYCLE   17 ..............................
........................................................................

 iter      E             dE          RMSdq      gap      omega  full diag
   1  -3478.8605414 -0.347886E+04  0.172E-04   11.40       0.0  T
   2  -3478.8605414 -0.535465E-08  0.101E-04   11.40      17.4  T
   3  -3478.8605414 -0.877662E-10  0.200E-05   11.40      87.5  T
     SCC iter.                  ...        2 min, 59.220 sec
     gradient                   ...        3 min, 51.156 sec
 * total energy  : -3427.5512818 Eh     change    :  -0.3736754E-05 Eh
   gradient norm :     0.0026651 Eh/a0  converged?    E=T G=F D=F
   time step     :     0.2214451 fs     power     :   0.2002346E-09
   step length   :     0.0014582 a0     speed     :   0.1592821E-03

........................................................................
.............................. CYCLE   18 ..............................
........................................................................

 iter      E             dE          RMSdq      gap      omega  full diag
   1  -3478.8594886 -0.347886E+04  0.196E-04   11.40       0.0  T
   2  -3478.8594886 -0.594218E-08  0.116E-04   11.40      15.1  T
   3  -3478.8594886 -0.107320E-09  0.205E-05   11.40      85.4  T
     SCC iter.                  ...        2 min, 58.946 sec
     gradient                   ...        3 min, 51.214 sec
 * total energy  : -3427.5512855 Eh     change    :  -0.3652659E-05 Eh
   gradient norm :     0.0024935 Eh/a0  converged?    E=T G=F D=F
   time step     :     0.2435896 fs     power     :   0.1726257E-09
   step length   :     0.0017169 a0     speed     :   0.1704875E-03

........................................................................
.............................. CYCLE   19 ..............................
........................................................................

 iter      E             dE          RMSdq      gap      omega  full diag
   1  -3478.8586501 -0.347886E+04  0.218E-04   11.40       0.0  T
   2  -3478.8586501 -0.552927E-08  0.129E-04   11.40      13.6  T
   3  -3478.8586501 -0.113687E-09  0.192E-05   11.40      91.3  T
     SCC iter.                  ...        3 min,  8.797 sec
     gradient                   ...        3 min, 52.663 sec
 * total energy  : -3427.5512890 Eh     change    :  -0.3506143E-05 Eh
   gradient norm :     0.0025014 Eh/a0  converged?    E=T G=F D=F
   time step     :     0.2679486 fs     power     :   0.1492777E-09
   step length   :     0.0019800 a0     speed     :   0.1787404E-03

........................................................................
.............................. CYCLE   20 ..............................
........................................................................

 iter      E             dE          RMSdq      gap      omega  full diag
   1  -3478.8582329 -0.347886E+04  0.236E-04   11.40       0.0  T
   2  -3478.8582329 -0.417413E-08  0.139E-04   11.40      12.6  T
   3  -3478.8582329 -0.134605E-09  0.165E-05   11.40     105.9  T
     SCC iter.                  ...        2 min, 55.780 sec
     gradient                   ...        3 min, 53.255 sec
 * total energy  : -3427.5512925 Eh     change    :  -0.3543304E-05 Eh
   gradient norm :     0.0026054 Eh/a0  converged?    E=T G=F D=F
   time step     :     0.2947435 fs     power     :   0.1389278E-09
   step length   :     0.0022453 a0     speed     :   0.1842637E-03
 * RMSD in coord.:     0.0005703 a0     energy gain  -0.3060197E-03 Eh

........................................................................
.............................. CYCLE   21 ..............................
........................................................................

 iter      E             dE          RMSdq      gap      omega  full diag
   1  -3478.8583561 -0.347886E+04  0.192E-04   11.40       0.0  T
   2  -3478.8583561 -0.176442E-08  0.114E-04   11.40      15.4  T
   3  -3478.8583561 -0.636646E-11  0.111E-05   11.40     158.4  T
     SCC iter.                  ...        2 min, 58.311 sec
     gradient                   ...        3 min, 52.721 sec
 * total energy  : -3427.5512955 Eh     change    :  -0.3005165E-05 Eh
   gradient norm :     0.0026448 Eh/a0  converged?    E=T G=F D=F
   time step     :     0.2500000 fs     power     :   0.1461649E-09
   step length   :     0.0019173 a0     speed     :   0.1855066E-03

........................................................................
.............................. CYCLE   22 ..............................
........................................................................

 iter      E             dE          RMSdq      gap      omega  full diag
   1  -3478.8589458 -0.347886E+04  0.188E-04   11.40       0.0  T
   2  -3478.8589458 -0.141517E-08  0.110E-04   11.40      15.9  T
   3  -3478.8589458 -0.695763E-10  0.109E-05   11.40     160.7  T
     SCC iter.                  ...        2 min, 59.970 sec
     gradient                   ...        3 min, 52.353 sec
 * total energy  : -3427.5512987 Eh     change    :  -0.3187132E-05 Eh
   gradient norm :     0.0025661 Eh/a0  converged?    E=T G=F D=F
   time step     :     0.2500000 fs     power     :   0.1583293E-09
   step length   :     0.0019358 a0     speed     :   0.1873037E-03

........................................................................
.............................. CYCLE   23 ..............................
........................................................................

 iter      E             dE          RMSdq      gap      omega  full diag
   1  -3478.8599572 -0.347886E+04  0.187E-04   11.40       0.0  T
   2  -3478.8599572 -0.189220E-08  0.109E-04   11.40      16.1  T
   3  -3478.8599572 -0.136424E-10  0.121E-05   11.40     145.1  T
     SCC iter.                  ...        3 min,  2.162 sec
     gradient                   ...        3 min, 51.564 sec
 * total energy  : -3427.5513021 Eh     change    :  -0.3352053E-05 Eh
   gradient norm :     0.0023552 Eh/a0  converged?    E=T G=F D=F
   time step     :     0.2500000 fs     power     :   0.1665220E-09
   step length   :     0.0019681 a0     speed     :   0.1904258E-03

........................................................................
.............................. CYCLE   24 ..............................
........................................................................

 iter      E             dE          RMSdq      gap      omega  full diag
   1  -3478.8613193 -0.347886E+04  0.189E-04   11.40       0.0  T
   2  -3478.8613193 -0.284172E-08  0.109E-04   11.40      16.0  T
   3  -3478.8613193 -0.823093E-10  0.141E-05   11.40     124.3  T
     SCC iter.                  ...        2 min, 59.724 sec
     gradient                   ...        3 min, 51.152 sec
 * total energy  : -3427.5513054 Eh     change    :  -0.3344941E-05 Eh
   gradient norm :     0.0020355 Eh/a0  converged?    E=T G=F D=F
   time step     :     0.2500000 fs     power     :   0.1640780E-09
   step length   :     0.0020131 a0     speed     :   0.1947751E-03

........................................................................
.............................. CYCLE   25 ..............................
........................................................................

 iter      E             dE          RMSdq      gap      omega  full diag
   1  -3478.8629348 -0.347886E+04  0.192E-04   11.40       0.0  T
   2  -3478.8629348 -0.384580E-08  0.111E-04   11.40      15.8  T
   3  -3478.8629348 -0.171894E-09  0.164E-05   11.40     106.9  T
     SCC iter.                  ...        2 min, 56.716 sec
     gradient                   ...        3 min, 51.375 sec
 * total energy  : -3427.5513085 Eh     change    :  -0.3141095E-05 Eh
   gradient norm :     0.0016691 Eh/a0  converged?    E=T G=F D=F
   time step     :     0.2500000 fs     power     :   0.1484332E-09
   step length   :     0.0020644 a0     speed     :   0.1997387E-03

........................................................................
.............................. CYCLE   26 ..............................
........................................................................

 iter      E             dE          RMSdq      gap      omega  full diag
   1  -3478.8648544 -0.347886E+04  0.212E-04   11.40       0.0  T
   2  -3478.8648544 -0.579803E-08  0.122E-04   11.40      14.4  T
   3  -3478.8648544 -0.203727E-09  0.200E-05   11.40      87.7  T
     SCC iter.                  ...        2 min, 55.905 sec
     gradient                   ...        3 min, 51.975 sec
 * total energy  : -3427.5513114 Eh     change    :  -0.2890059E-05 Eh
   gradient norm :     0.0013538 Eh/a0  converged?    E=T G=F D=F
   time step     :     0.2750000 fs     power     :   0.1189579E-09
   step length   :     0.0023328 a0     speed     :   0.2051935E-03

........................................................................
.............................. CYCLE   27 ..............................
........................................................................

 iter      E             dE          RMSdq      gap      omega  full diag
   1  -3478.8668623 -0.347887E+04  0.226E-04   11.40       0.0  T
   2  -3478.8668623 -0.656610E-08  0.129E-04   11.40      13.6  T
   3  -3478.8668623 -0.206455E-09  0.212E-05   11.40      82.6  T
     SCC iter.                  ...        3 min,  0.154 sec
     gradient                   ...        3 min, 53.877 sec
 * total energy  : -3427.5513139 Eh     change    :  -0.2431310E-05 Eh
   gradient norm :     0.0013198 Eh/a0  converged?    E=T G=F D=F
   time step     :     0.3025000 fs     power     :   0.8455605E-10
   step length   :     0.0026113 a0     speed     :   0.2088083E-03

........................................................................
.............................. CYCLE   28 ..............................
........................................................................

 iter      E             dE          RMSdq      gap      omega  full diag
   1  -3478.8685832 -0.347887E+04  0.223E-04   11.40       0.0  T
   2  -3478.8685832 -0.503996E-08  0.128E-04   11.40      13.7  T
   3  -3478.8685832 -0.202363E-09  0.181E-05   11.40      96.9  T
     SCC iter.                  ...        2 min, 55.792 sec
     gradient                   ...        3 min, 51.343 sec
 * total energy  : -3427.5513159 Eh     change    :  -0.2028907E-05 Eh
   gradient norm :     0.0015567 Eh/a0  converged?    E=T G=F D=F
   time step     :     0.3327500 fs     power     :   0.6287231E-10
   step length   :     0.0028462 a0     speed     :   0.2069025E-03

........................................................................
.............................. CYCLE   29 ..............................
........................................................................

 iter      E             dE          RMSdq      gap      omega  full diag
   1  -3478.8696857 -0.347887E+04  0.209E-04   11.40       0.0  T
   2  -3478.8696857 -0.242017E-08  0.121E-04   11.40      14.5  T
   3  -3478.8696857 -0.146883E-09  0.124E-05   11.40     141.3  T
     SCC iter.                  ...        3 min,  1.569 sec
     gradient                   ...        3 min, 52.511 sec
 * total energy  : -3427.5513179 Eh     change    :  -0.2033260E-05 Eh
   gradient norm :     0.0017729 Eh/a0  converged?    E=T G=F D=F
   time step     :     0.3660250 fs     power     :   0.6257685E-10
   step length   :     0.0030408 a0     speed     :   0.2009491E-03

........................................................................
.............................. CYCLE   30 ..............................
........................................................................

 iter      E             dE          RMSdq      gap      omega  full diag
   1  -3478.8699581 -0.347887E+04  0.197E-04   11.40       0.0  T
   2  -3478.8699581 -0.113641E-08  0.115E-04   11.40      15.2  T
   3  -3478.8699581 -0.120508E-09  0.931E-06   11.40     188.2  T
     SCC iter.                  ...        2 min, 59.523 sec
     gradient                   ...        3 min, 50.566 sec
 * total energy  : -3427.5513205 Eh     change    :  -0.2549156E-05 Eh
   gradient norm :     0.0017774 Eh/a0  converged?    E=T G=F D=F
   time step     :     0.4026275 fs     power     :   0.7561924E-10
   step length   :     0.0032611 a0     speed     :   0.1959168E-03

........................................................................
.............................. CYCLE   31 ..............................
........................................................................

 iter      E             dE          RMSdq      gap      omega  full diag
   1  -3478.8693139 -0.347887E+04  0.198E-04   11.40       0.0  T
   2  -3478.8693139 -0.256159E-08  0.116E-04   11.40      15.1  T
   3  -3478.8693139 -0.128239E-09  0.120E-05   11.40     145.6  T
     SCC iter.                  ...        2 min, 55.207 sec
     gradient                   ...        3 min, 52.002 sec
 * total energy  : -3427.5513236 Eh     change    :  -0.3135553E-05 Eh
   gradient norm :     0.0015414 Eh/a0  converged?    E=T G=F D=F
   time step     :     0.4428903 fs     power     :   0.8498366E-10
   step length   :     0.0035637 a0     speed     :   0.1946332E-03

........................................................................
.............................. CYCLE   32 ..............................
........................................................................

 iter      E             dE          RMSdq      gap      omega  full diag
   1  -3478.8678792 -0.347887E+04  0.208E-04   11.40       0.0  T
   2  -3478.8678792 -0.626187E-08  0.123E-04   11.40      14.2  T
   3  -3478.8678792 -0.209639E-09  0.194E-05   11.40      90.5  T
     SCC iter.                  ...        2 min, 58.360 sec
     gradient                   ...        3 min, 51.680 sec
 * total energy  : -3427.5513270 Eh     change    :  -0.3382105E-05 Eh
   gradient norm :     0.0012703 Eh/a0  converged?    E=T G=F D=F
   time step     :     0.4871793 fs     power     :   0.7789215E-10
   step length   :     0.0039658 a0     speed     :   0.1969066E-03

........................................................................
.............................. CYCLE   33 ..............................
........................................................................

 iter      E             dE          RMSdq      gap      omega  full diag
   1  -3478.8662011 -0.347887E+04  0.208E-04   11.40       0.0  T
   2  -3478.8662011 -0.774480E-08  0.123E-04   11.40      14.3  T
   3  -3478.8662011 -0.235104E-09  0.223E-05   11.40      78.7  T
     SCC iter.                  ...        3 min,  4.323 sec
     gradient                   ...        3 min, 51.331 sec
 * total energy  : -3427.5513302 Eh     change    :  -0.3185776E-05 Eh
   gradient norm :     0.0013554 Eh/a0  converged?    E=T G=F D=F
   time step     :     0.5358972 fs     power     :   0.6309534E-10
   step length   :     0.0044239 a0     speed     :   0.1996831E-03

........................................................................
.............................. CYCLE   34 ..............................
........................................................................

 iter      E             dE          RMSdq      gap      omega  full diag
   1  -3478.8652010 -0.347887E+04  0.188E-04   11.40       0.0  T
   2  -3478.8652010 -0.345608E-08  0.112E-04   11.40      15.7  T
   3  -3478.8652010 -0.126420E-09  0.124E-05   11.40     141.7  T
     SCC iter.                  ...        2 min, 58.778 sec
     gradient                   ...        3 min, 50.747 sec
 * total energy  : -3427.5513335 Eh     change    :  -0.3335806E-05 Eh
   gradient norm :     0.0015829 Eh/a0  converged?    E=T G=F D=F
   time step     :     0.5894869 fs     power     :   0.6555038E-10
   step length   :     0.0048631 a0     speed     :   0.1995493E-03

........................................................................
.............................. CYCLE   35 ..............................
........................................................................

 iter      E             dE          RMSdq      gap      omega  full diag
   1  -3478.8655589 -0.347887E+04  0.201E-04   11.40       0.0  T
   2  -3478.8655589 -0.880846E-09  0.118E-04   11.40      14.9  T
   3  -3478.8655589 -0.130058E-09  0.699E-06   11.40     250.6  T
     SCC iter.                  ...        2 min, 59.367 sec
     gradient                   ...        3 min, 50.650 sec
 * total energy  : -3427.5513379 Eh     change    :  -0.4369979E-05 Eh
   gradient norm :     0.0014865 Eh/a0  converged?    E=T G=F D=F
   time step     :     0.6484356 fs     power     :   0.8258320E-10
   step length   :     0.0053811 a0     speed     :   0.2007337E-03

........................................................................
.............................. CYCLE   36 ..............................
........................................................................

 iter      E             dE          RMSdq      gap      omega  full diag
   1  -3478.8674200 -0.347887E+04  0.263E-04   11.40       0.0  T
   2  -3478.8674200 -0.727459E-08  0.152E-04   11.40      11.5  T
   3  -3478.8674200 -0.288310E-09  0.218E-05   11.40      80.4  T
     SCC iter.                  ...        2 min, 58.383 sec
     gradient                   ...        3 min, 52.964 sec
 * total energy  : -3427.5513431 Eh     change    :  -0.5238006E-05 Eh
   gradient norm :     0.0011288 Eh/a0  converged?    E=F G=F D=F
   time step     :     0.7132792 fs     power     :   0.8412479E-10
   step length   :     0.0061070 a0     speed     :   0.2071004E-03

........................................................................
.............................. CYCLE   37 ..............................
........................................................................

 iter      E             dE          RMSdq      gap      omega  full diag
   1  -3478.8698753 -0.347887E+04  0.297E-04   11.40       0.0  T
   2  -3478.8698753 -0.130058E-07  0.173E-04   11.40      10.1  T
   3  -3478.8698753 -0.406544E-09  0.305E-05   11.40      57.5  T
     SCC iter.                  ...        3 min,  4.588 sec
     gradient                   ...        3 min, 51.700 sec
 * total energy  : -3427.5513481 Eh     change    :  -0.5010577E-05 Eh
   gradient norm :     0.0012345 Eh/a0  converged?    E=F G=F D=F
   time step     :     0.7846071 fs     power     :   0.6792419E-10
   step length   :     0.0070023 a0     speed     :   0.2158754E-03

........................................................................
.............................. CYCLE   38 ..............................
........................................................................

 iter      E             dE          RMSdq      gap      omega  full diag
   1  -3478.8709867 -0.347887E+04  0.264E-04   11.40       0.0  T
   2  -3478.8709867 -0.606315E-08  0.155E-04   11.40      11.3  T
   3  -3478.8709867 -0.290129E-09  0.218E-05   11.40      80.2  T
     SCC iter.                  ...        3 min,  2.597 sec
     gradient                   ...        3 min, 50.472 sec
 * total energy  : -3427.5513535 Eh     change    :  -0.5398063E-05 Eh
   gradient norm :     0.0013503 Eh/a0  converged?    E=F G=F D=F
   time step     :     0.8630678 fs     power     :   0.7346346E-10
   step length   :     0.0078576 a0     speed     :   0.2202209E-03

........................................................................
.............................. CYCLE   39 ..............................
........................................................................

 iter      E             dE          RMSdq      gap      omega  full diag
   1  -3478.8699635 -0.347887E+04  0.289E-04   11.40       0.0  T
   2  -3478.8699635 -0.936279E-08  0.168E-04   11.40      10.4  T
   3  -3478.8699635 -0.278305E-09  0.284E-05   11.40      61.8  T
     SCC iter.                  ...        2 min, 59.519 sec
     gradient                   ...        3 min, 51.262 sec
 * total energy  : -3427.5513600 Eh     change    :  -0.6450793E-05 Eh
   gradient norm :     0.0010534 Eh/a0  converged?    E=F G=F D=F
   time step     :     0.9493746 fs     power     :   0.7776598E-10
   step length   :     0.0089033 a0     speed     :   0.2268455E-03

........................................................................
.............................. CYCLE   40 ..............................
........................................................................

 iter      E             dE          RMSdq      gap      omega  full diag
   1  -3478.8684481 -0.347887E+04  0.312E-04   11.40       0.0  T
   2  -3478.8684481 -0.105574E-07  0.181E-04   11.40       9.7  T
   3  -3478.8684481 -0.357431E-09  0.268E-05   11.40      65.5  T
     SCC iter.                  ...        3 min,  4.244 sec
     gradient                   ...        3 min, 52.099 sec
 * total energy  : -3427.5513665 Eh     change    :  -0.6522555E-05 Eh
   gradient norm :     0.0012871 Eh/a0  converged?    E=F G=F D=F
   time step     :     1.0443120 fs     power     :   0.6788211E-10
   step length   :     0.0102053 a0     speed     :   0.2363792E-03

........................................................................
.............................. CYCLE   41 ..............................
........................................................................

 iter      E             dE          RMSdq      gap      omega  full diag
   1  -3478.8694580 -0.347887E+04  0.311E-04   11.40       0.0  T
   2  -3478.8694580 -0.487307E-08  0.181E-04   11.40       9.7  T
   3  -3478.8694580 -0.316959E-09  0.139E-05   11.40     126.1  T
     SCC iter.                  ...        2 min, 59.044 sec
     gradient                   ...        3 min, 50.999 sec
 * total energy  : -3427.5513745 Eh     change    :  -0.7980642E-05 Eh
   gradient norm :     0.0011592 Eh/a0  converged?    E=F G=F D=F
   time step     :     1.1487432 fs     power     :   0.8413376E-10
   step length   :     0.0115398 a0     speed     :   0.2429902E-03

........................................................................
.............................. CYCLE   42 ..............................
........................................................................

 iter      E             dE          RMSdq      gap      omega  full diag
   1  -3478.8719455 -0.347887E+04  0.382E-04   11.40       0.0  T
   2  -3478.8719455 -0.190689E-07  0.223E-04   11.40       7.9  T
   3  -3478.8719455 -0.623004E-09  0.339E-05   11.40      51.7  T
     SCC iter.                  ...        3 min,  4.863 sec
     gradient                   ...        3 min, 52.303 sec
 * total energy  : -3427.5513833 Eh     change    :  -0.8807188E-05 Eh
   gradient norm :     0.0012111 Eh/a0  converged?    E=F G=F D=F
   time step     :     1.2500000 fs     power     :   0.7867522E-10
   step length   :     0.0132002 a0     speed     :   0.2554386E-03
 * RMSD in coord.:     0.0016952 a0     energy gain  -0.9078012E-04 Eh

........................................................................
.............................. CYCLE   43 ..............................
........................................................................

 iter      E             dE          RMSdq      gap      omega  full diag
   1  -3478.8719970 -0.347887E+04  0.590E-05   11.40       0.0  T
   2  -3478.8719970 -0.111868E-09  0.347E-05   11.40      50.5  T
   3  -3478.8719970 -0.113687E-10  0.216E-06   11.40     811.7  T
     SCC iter.                  ...        3 min,  0.135 sec
     gradient                   ...        3 min, 51.077 sec
 * total energy  : -3427.5513850 Eh     change    :  -0.1724625E-05 Eh
   gradient norm :     0.0012313 Eh/a0  converged?    E=T G=F D=F
   time step     :     0.2500000 fs     power     :   0.8971334E-10
   step length   :     0.0025487 a0     speed     :   0.2465973E-03

........................................................................
.............................. CYCLE   44 ..............................
........................................................................

 iter      E             dE          RMSdq      gap      omega  full diag
   1  -3478.8716446 -0.347887E+04  0.596E-05   11.40       0.0  T
   2  -3478.8716446 -0.240107E-09  0.347E-05   11.40      50.4  T
   3  -3478.8716446  0.181899E-11  0.453E-06   11.40     387.1  T
     SCC iter.                  ...        3 min,  5.753 sec
     gradient                   ...        3 min, 50.887 sec
 * total energy  : -3427.5513869 Eh     change    :  -0.1921074E-05 Eh
   gradient norm :     0.0011455 Eh/a0  converged?    E=T G=F D=F
   time step     :     0.2500000 fs     power     :   0.9877233E-10
   step length   :     0.0024853 a0     speed     :   0.2404616E-03

........................................................................
.............................. CYCLE   45 ..............................
........................................................................

 iter      E             dE          RMSdq      gap      omega  full diag
   1  -3478.8709783 -0.347887E+04  0.709E-05   11.40       0.0  T
   2  -3478.8709783 -0.847649E-09  0.411E-05   11.40      42.6  T
   3  -3478.8709783  0.168257E-10  0.799E-06   11.40     219.2  T
     SCC iter.                  ...        2 min, 58.653 sec
     gradient                   ...        3 min, 51.097 sec
 * total energy  : -3427.5513890 Eh     change    :  -0.2024131E-05 Eh
   gradient norm :     0.0010057 Eh/a0  converged?    E=T G=F D=F
   time step     :     0.2500000 fs     power     :   0.1014648E-09
   step length   :     0.0024547 a0     speed     :   0.2375057E-03

........................................................................
.............................. CYCLE   46 ..............................
........................................................................

 iter      E             dE          RMSdq      gap      omega  full diag
   1  -3478.8701393 -0.347887E+04  0.801E-05   11.40       0.0  T
   2  -3478.8701393 -0.136197E-08  0.465E-05   11.40      37.7  T
   3  -3478.8701393 -0.450200E-10  0.103E-05   11.40     170.4  T
     SCC iter.                  ...        3 min,  0.348 sec
     gradient                   ...        3 min, 52.555 sec
 * total energy  : -3427.5513909 Eh     change    :  -0.1985004E-05 Eh
   gradient norm :     0.0009048 Eh/a0  converged?    E=T G=T D=F
   time step     :     0.2500000 fs     power     :   0.9810805E-10
   step length   :     0.0024525 a0     speed     :   0.2372949E-03

   *** GEOMETRY OPTIMIZATION CONVERGED AFTER 46 CYCLES ***

------------------------------------------------------------------------
 total energy gain   :        -0.0004045 Eh       -0.2538 kcal/mol
 total RMSD          :         0.0020870 a0        0.0011 Å
 total power (kW/mol):        -0.0230847 (step)   -0.0001 (real)
------------------------------------------------------------------------

 FIRE (total)                  0 d,  5 h, 30 min, 25.311 sec
 setup                          ...        0 min,  0.120 sec (  0.001%)
 velocities                     ...        0 min,  0.003 sec (  0.000%)
 propagation                    ...        0 min,  0.005 sec (  0.000%)
 singlepoint calculation        ...      330 min, 24.428 sec ( 99.996%)
 log and printout               ...        0 min,  0.700 sec (  0.004%)
 preconditioner                 ...        0 min,  0.000 sec (  0.000%)
 model hessian                  ...        0 min,  0.000 sec (  0.000%)
 hessian update                 ...        0 min,  0.000 sec (  0.000%)

================
 final structure:
================
3258
 xtb: 6.6.1 (8d0f1dd)
C           95.29672811861954      103.05565989502335      118.29517457198968
C           96.09927843672612      104.34615363084995      118.40189689902748
C           96.44658852680691      104.68053222481788      119.85119177205605
C           97.33446440329932      105.91785303534854      119.98231461870216
C           96.59209676969827      107.21909369139510      119.68818474913807
C           97.49743031073913      108.45169975785890      119.70177807113565
C           98.65294375039630      108.41089584461417      118.69917002523081
C           98.20104248343472      108.17493343813319      117.26107536306669
C           99.34550820795513      108.25196479074835      116.24970087148066
C          100.29568295355037      107.05714018455940      116.31669984935539
C          101.36556842109923      107.12638187210116      115.23107950942102
C          102.33724348026024      105.94849108717075      115.27253921809881
C          103.38302421793236      106.06077187125000      114.16483251261317
C          104.37315752873600      104.89895787502711      114.14102407266274
C          105.40769135114029      105.06432952167194      113.02821091705839
C          106.37971966452699      103.88719871542104      112.96418468727325
C          107.56483653204292      104.08880016729540      112.01198651035530
C          107.33386797350300      103.64690742554477      110.56522921299131
C          106.29351976616300      104.46971949851549      109.80994887307342
C          106.35282338894646      104.23732547399962      108.30088223509070
C          105.23783209175400      104.98794769021434      107.57834934719384
C          105.32325536747403      104.88117206814552      106.05769556037598
C          104.09512384330603      105.49818445029848      105.39443610317556
C          104.16977267852926      105.51332908318111      103.86973212409544
C          102.84766760438070      105.97800028906116      103.26478518755309
C          102.90517962742936      106.17328353981247      101.75247100989299
C          101.57143760269149      106.68509303408413      101.21566871879783
C          101.58775960422416      106.96092868703909       99.71444986263361
C          100.24214437284679      107.50816255204033       99.24381869112749
C          100.21516255420968      107.80965690205552       97.74737517650036
C           98.81986834821384      108.18261843652134       97.24343203500874
C           98.28104470526344      109.47722534428041       97.84737618976445
C           96.92274557564832      109.89569214101725       97.28140074523400
C           95.83776735005837      108.83977223166492       97.49608615560378
C           94.41384068656529      109.38572991379951       97.37522044285997
C           94.05011487723647      110.33218242927246       98.51897886764566
C           92.54339259265402      110.54278109823008       98.65338665816590
C           92.17563844074544      111.50783129775553       99.78309603872371
C           92.55192885020779      110.97405997710527      101.16321646311305
C           92.17151476061909      111.93415276755535      102.28808577497726
C           92.73176716164473      111.49809193958197      103.64447690458206
C           94.23894586879035      111.71765690837870      103.75158490427717
C           94.81008750664169      111.29938954583497      105.10407371133611
C           96.28967252692792      111.65914910720359      105.20462055284197
C           96.91055087827262      111.28330388477357      106.54690999012026
C           98.35934376767929      111.75855391050861      106.63675298401118
C           99.01499772825196      111.38824707788083      107.96394287674089
C          100.34873369417004      112.09528925275836      108.20938789246723
C          101.41747228246209      111.82763889171939      107.15094736397840
C          102.71131361274986      112.59735145779455      107.42863079053824
C          103.52557260568217      112.01925664485780      108.58337739558171
C          104.75347292048222      112.86768816462096      108.90332109404201
C          105.56901282101339      112.27979423716019      110.05149537230496
C          106.76860463961593      113.14939840264691      110.41470256865475
C          107.57796302317253      112.57124221878580      111.57311860330293
C          108.70974908278083      113.50399808602981      111.99591944975421
C          109.47139402694373      112.99481414139841      113.21838457025372
C          110.46357338647019      114.01592631746536      113.78031516579800
C          111.68145118467055      114.24860597301864      112.89104380730950
C          112.62330972465841      115.29830176315649      113.47653199810091
C          113.85799405637611      115.49153407629588      112.60307086240709
C          114.76855329681506      116.61278921073180      113.09327815180305
C          115.96639843522664      116.79263592610639      112.16509555217949
C          116.82587609159340      117.99912244673138      112.52633666942342
C          117.97116960405337      118.18404527114339      111.53432938718544
C          118.84883762588714      119.39924826205228      111.83763461556713
C          118.15517376930767      120.74847321013463      111.63783783434205
C          117.86298363035984      121.06041432225696      110.17184278241488
C          117.15205331581004      122.39928609990577      109.97090694380236
C          115.69121532360086      122.38952419195050      110.42161052470009
C          115.00150296299744      123.71131313477730      110.09072473811928
C          113.53521707235582      123.77099894076163      110.52221360411582
C          112.65415044143880      122.74808404388553      109.80172455121109
C          111.17584113599032      123.14229896641621      109.76524555540452
C          110.52354936201766      123.34414060913032      111.13360384666802
C          110.45572174127146      122.07546280273296      111.97675957058514
C          109.71060258201339      122.30754454733105      113.28966963399102
C          109.58342925257381      121.04117225345834      114.13681930309428
C          110.91329826117807      120.57867378122099      114.72686076879165
C          110.79024978348329      119.25433213738120      115.47619010264982
C          112.13444837239183      118.80970073964070      116.04502499155842
C          112.05384472252418      117.46297594053013      116.75658828212791
C          113.41918933523750      117.01591431459963      117.26740041925221
C          113.37625064594749      115.64171450742342      117.92942836580508
C          114.77441392791729      115.16519735561755      118.30833666397933
C          114.78765986542474      113.76681557979289      118.91950620040153
C          116.22117022447109      113.29328274485867      119.14515049461515
C          116.34980881493442      111.82917388886314      119.55882098337874
C          115.59569902250961      111.50366467739636      120.84507805825848
C          116.03740246289250      110.18664119764784      121.48120972244233
C          115.96740496135885      108.97171334430752      120.55850548260631
C          114.56687666820164      108.68463372434977      120.02702839877215
C          114.52661319361235      107.37222529740332      119.25198441352022
C          113.14475988015626      107.08041231227733      118.67608987251069
C          113.10695779059813      105.73019457744759      117.97129561274923
C          111.71823895611838      105.36817633559528      117.45234492652880
C          111.75951854605911      104.04941295161994      116.68734891847306
C          110.37959287506327      103.50166729016573      116.33489408216478
C          110.51293196863605      102.15712541934707      115.62770100182257
C          109.17783503302500      101.48095173663614      115.33981200598762
C          109.36049513835434      100.05939890095951      114.80945223608694
C          109.95194526283008      100.01257152138631      113.40308416024082
C          110.09451990290786       98.57723434668506      112.90609412938927
C          110.53716990409438       98.47944151428261      111.44749891477079
C          109.43614466190849       98.88931162871725      110.47348205369303
C          109.81882176285396       98.62316843869586      109.02164517690873
C          108.71971299636793       99.06680175543755      108.06127169665351
C          109.07362667956598       98.78233648003297      106.60546758254534
C          108.00104249122899       99.28954955792010      105.64666109914118
C          108.35276086740019       99.01067488830918      104.18848916756913
C          107.33430833473433       99.61781288829110      103.22856079477573
C          107.69350481341549       99.36904100862637      101.76622582642328
C          106.73234234419596      100.08146337460195      100.81905744189757
C          107.10152175464222       99.88378996127054       99.35117943956027
C          106.18285968461139      100.68187945383627       98.43002432422512
C          106.55825854698199      100.53871768182044       96.95737832096299
C          105.68336823355223      101.41678528667900       96.06674313053647
C          106.03849589283362      101.29090372125984       94.58832740511595
C          105.21137682710818      102.23727011822405       93.72170549383630
C          105.54667148584885      102.09578011855987       92.24275819865116
H          104.14892102412553      102.03392973533519       93.87544714940478
H          105.39798126800686      103.26701752233080       94.03650483240239
H          107.09911240940916      101.51436508753604       94.45199287215554
H          105.87357978816316      100.26128321856110       94.26110525038403
H          104.63293346309361      101.15241845359679       96.21252235333597
H          105.80228364248828      102.45932728350473       96.37316168159001
H          107.60560658235678      100.81986456585830       96.82109206528717
H          106.45783239548321       99.49367972656115       96.65384851258568
H          105.14997423696146      100.35661867731339       98.57477651199915
H          106.23260338226076      101.73701944468277       98.71014940242647
H          108.13556431508248      100.20103459185231       99.19197587538433
H          107.04538582961479       98.82227870293771       99.09718403574927
H          105.71642207980375       99.71882396590864      100.98975193143565
H          106.74068149442657      101.15000526784421      101.04607686257197
H          108.71057859508629       99.72432539608306      101.57994872303084
H          107.68381662456112       98.29522213311172      101.56268970826936
H          106.34533401886331       99.20415779359787      103.43509889492326
H          107.28358506595815      100.69470118730771      103.40331352029023
H          109.33975002587509       99.42853689407504      103.97328640218284
H          108.41383384610417       97.93145664040958      104.02628906203213
H          107.04529434356419       98.81980044781572      105.88626918057774
H          107.88333146097621      100.36651704940338      105.78527234207331
H          110.02443338285983       99.26604861559733      106.36823666676540
H          109.20884377271393       97.70642913497213      106.46702405283382
H          107.78931235267534       98.55446283139851      108.31437005250545
H          108.54997897198328      100.13894605836792      108.18556939059602
H          110.74363403731783       99.15575519234756      108.78787581507054
H          110.01072117758875       97.55543686406841      108.88606147359084
H          108.52464697072880       98.33615021981336      110.70977510692093
H          109.21706842966650       99.95242774665117      110.59005703044177
H          111.41846120798360       99.10437443535243      111.28739489299376
H          110.82526416796539       97.44636852542166      111.23587639338817
H          110.81943909128810       98.05926841752661      113.53861991393967
H          109.13661331779191       98.06585361453592      113.01456000888989
H          109.30396008100693      100.57721027224498      112.72995588933736
H          110.93483911058037      100.48657541187700      113.39559072876717
H          110.00954506783710       99.50495704524826      115.49221518733181
H          108.39069693531593       99.55764202612137      114.79779799661162
H          108.59691421343068      101.44047832623326      116.26415509968714
H          108.61252918398961      102.07238328440233      114.61590564430524
H          111.06414585340856      102.30479290498049      114.69694002292920
H          111.10151221488611      101.48865255459775      116.26035239051767
H          109.79123602774497      103.37803128816877      117.24732633705447
H          109.84847636290939      104.20900225176091      115.69381555348504
H          112.33853112387318      104.18103904832793      115.76921539238165
H          112.28532788466289      103.30995906579734      117.29730898759802
H          111.02497324367948      105.28221623490289      118.29250762494027
H          111.34561655039771      106.16307467770451      116.80253543124172
H          113.81079965087642      105.74153260358915      117.13639819559383
H          113.44108962047115      104.95517791086066      118.66477843508933
H          112.40425903600060      107.08824049240525      119.47983049417923
H          112.87085634477700      107.86832300328203      117.97187271228955
H          115.25261357219077      107.41551039066094      118.43672495774658
H          114.82130310292511      106.55504312948034      119.91453054233101
H          113.86596654644651      108.63178167391291      120.86364374630041
H          114.24036177718796      109.49460332355073      119.37232708651477
H          116.65053730578857      109.10756716117194      119.71804783585095
H          116.31264731423161      108.10039417301090      121.12047580722381
H          117.06747450979650      110.29278689229587      121.82838429882869
H          115.41752488194058      110.00001973791318      122.35921534231447
H          115.76279831510591      112.30440335511929      121.56963556172209
H          114.52481166613801      111.46877899037229      120.63972433280135
H          115.98482662266434      111.19251900454904      118.75025334307661
H          117.41127676146189      111.60467226374118      119.69957675100433
H          116.78674861153173      113.44292734802951      118.22237928262604
H          116.68106164608054      113.92028305086579      119.91173019982597
H          114.24425033883590      113.77931299049020      119.86585255160817
H          114.27478169104351      113.07600652485885      118.24905680145905
H          115.40218380617831      115.16784664635479      117.41379997425982
H          115.21527873555578      115.87190386074575      119.01557880502418
H          112.74593720704601      115.68267310645021      118.82033802138980
H          112.92322156910221      114.92397489845467      117.24019517080971
H          114.11817679165532      116.98739665975016      116.42807695997892
H          113.79697709648278      117.74984857807640      117.98273104927061
H          111.35501385869841      117.53068315914886      117.59336854009027
H          111.66866600432870      116.71233609702311      116.06229026797563
H          112.86119883541701      118.73733730795628      115.23227142142220
H          112.49860305948845      119.56698461759173      116.74252877993409
H          110.06531257874620      119.35438805209543      116.28755567815018
H          110.41414644831373      118.48554449381962      114.79585020880081
H          111.64696908100646      120.45469774289433      113.92829259494337
H          111.29335201676720      121.34587895984340      115.40533213626348
H          108.88115359617606      121.22700847539821      114.95370543328067
H          109.16654043648725      120.24279657581782      113.51902292178747
H          110.22560083654331      123.07742912106528      113.86898056814404
H          108.70933049503934      122.68236539449730      113.06096425578617
H          109.94176663226766      121.29598260146093      111.41107179963201
H          111.46716015065643      121.72761011337685      112.18602723410785
H          111.06577667497262      124.11299371844088      111.68607486972515
H          109.50487865832966      123.70778143898070      110.97556248870288
H          111.08071698899825      124.07398556885366      109.20029570968042
H          110.62400405926194      122.37267874319055      109.21910455592293
H          112.99685994262643      122.65393941825536      108.76776761473138
H          112.76078231408628      121.76947841430321      110.27051032029173
H          113.47201173997274      123.62117747762113      111.60161851735226
H          113.16018388139878      124.77438817566228      110.30339763937886
H          115.54493642787318      124.52331127377091      110.58184491169402
H          115.06136436505176      123.88417968460443      109.01279399030962
H          115.17038909609707      121.57208609104696      109.91946771799162
H          115.63193957655376      122.21537136831462      111.49772380578879
H          117.69390045406941      123.18208911421098      110.50774323891785
H          117.18074648169647      122.65063682180887      108.90721874872344
H          118.80821658332573      121.07635813302977      109.62373733636647
H          117.24550632759254      120.27074382577619      109.74039239857761
H          117.22745388196054      120.76515499529461      112.20952445643248
H          118.79962120786043      121.53592253704404      112.03891005201505
H          119.19500655252541      119.32950254345849      112.87254412575864
H          119.73347703476200      119.35972065959899      111.19656389223519
H          118.59644408877831      117.28830890630323      111.55855039864109
H          117.56367385742927      118.26421527783035      110.52521464554424
H          116.19447549294394      118.88911819150434      112.53251951159766
H          117.23436210408785      117.87332580261013      113.53113485577531
H          116.57867166146440      115.88920495486570      112.18194233308795
H          115.59941610165720      116.91986030729396      111.14528500347495
H          114.19854925217307      117.54456443423381      113.13428966590746
H          115.11383178436738      116.39123494633084      114.10604242123941
H          114.42416546792664      114.55870740556659      112.56575382704465
H          113.53805546915298      115.72007758095572      111.58446400787129
H          112.09285644941544      116.24945080310516      113.56596834575309
H          112.93173911027668      114.99369483197663      114.47842794939672
H          112.22356602719815      113.30851410166551      112.76685639164933
H          111.35901777329370      114.57988440704233      111.90173429592853
H          109.95128794711910      114.96845958081474      113.93574639103872
H          110.80740051251333      113.66885124836246      114.75716694845602
H          108.74841095944322      112.74908195821914      114.00030284820600
H          110.00303096657275      112.07640383318332      112.96170780204574
H          109.39539050383192      113.63264330082802      111.15634493272616
H          108.28404365743363      114.48312308111849      112.22625125050506
H          106.91614155349697      112.39790885959218      112.42578757254800
H          107.99190101468172      111.60597662086471      111.27663239222716
H          107.41499329671932      113.25505603914080      109.54075002233063
H          106.41558939024185      114.14718913512596      110.68778494775766
H          104.92607557707908      112.17265899192707      110.92889311426163
H          105.91465868597977      111.28245632087682      109.77277889213103
H          105.38424460485537      112.94782841794519      108.01423355386848
H          104.43387641150424      113.87821937075681      109.16940624657524
H          102.90277426190021      111.95720051129366      109.47723122740194
H          103.84216468434910      111.00605060127627      108.32702632195880
H          103.33190620425773      112.58995310522343      106.52857553770360
H          102.46549592062867      113.64046385200660      107.64348028746817
H          101.63464677614633      110.75919962055572      107.10239174117096
H          101.03638581960736      112.13197615637095      106.17460380623461
H          100.17060422419634      113.17192019798550      108.26034005052756
H          100.72430750278605      111.77684454991930      109.18412982039101
H           98.33624592443303      111.65351354930573      108.77958413501658
H           99.15731716497658      110.30687893303750      108.00473226730999
H           98.92660022905120      111.31819470071567      105.81441735891836
H           98.38314530977082      112.84301302580806      106.51406464907502
H           96.32908556526472      111.73826029260441      107.35293057629086
H           96.86634352507537      110.19986583199650      106.68290043878072
H           96.83546410901540      111.15574329794381      104.40254496314161
H           96.40336451997703      112.73498636321813      105.04871898371529
H           94.26264192394895      111.80201062896663      105.90411247715299
H           94.68151566293113      110.22277259316293      105.24171943344689
H           94.75097234740419      111.15856240263525      102.96680801250139
H           94.45526910669911      112.77593254661356      103.58750825344789
H           92.23677056556525      112.06938136371106      104.43410984739150
H           92.50177790320876      110.44272325697325      103.80975263189117
H           92.54590856337683      112.93365251210899      102.05302085166142
H           91.08273314356494      111.99834106379031      102.35024742357960
H           92.05627320176973      110.01375395682716      101.32529378545053
H           93.62725420439951      110.80439003785344      101.19577353679377
H           92.67860142213380      112.46426937162852       99.61984487235136
H           91.09924843387154      111.69407438411835       99.75372977243744
H           92.15316705574040      110.93472209479687       97.71072213369987
H           92.06031994950710      109.57942341859449       98.83516528381601
H           94.43724590771036      109.90987095433717       99.44729485667268
H           94.52908384769785      111.30053726725920       98.36479568287483
H           94.29332745328188      109.89356476429357       96.41591683119685
[...]
  3011   6 C     3012   6 C                                       1.5265564
  3012   6 C     3013   6 C                                       1.5265386
  3013   6 C     3014   6 C                                       1.5266803
  3014   6 C     3015   6 C                                       1.5264725
  3015   6 C     3016   6 C                                       1.5236084
  3015   6 C     3017   1 H                                       1.0925700
  3015   6 C     3018   1 H                                       1.0925036
  3014   6 C     3019   1 H                                       1.0927509
  3014   6 C     3020   1 H                                       1.0926206
  3013   6 C     3021   1 H                                       1.0926270
  3013   6 C     3022   1 H                                       1.0927949
  3012   6 C     3023   1 H                                       1.0929147
  3012   6 C     3024   1 H                                       1.0927591
  3011   6 C     3025   1 H                                       1.0920672
  3011   6 C     3026   1 H                                       1.0926636
  3010   6 C     3027   1 H                                       1.0929073
  3010   6 C     3028   1 H                                       1.0928449
  3009   6 C     3029   1 H                                       1.0919561
  3009   6 C     3030   1 H                                       1.0926279
  3008   6 C     3031   1 H                                       1.0927648
  3008   6 C     3032   1 H                                       1.0929188
  3007   6 C     3033   1 H                                       1.0920117
  3007   6 C     3034   1 H                                       1.0926031
  3006   6 C     3035   1 H                                       1.0925593
  3006   6 C     3036   1 H                                       1.0929679
  3005   6 C     3037   1 H                                       1.0921233
  3005   6 C     3038   1 H                                       1.0925830
  3004   6 C     3039   1 H                                       1.0923542
  3004   6 C     3040   1 H                                       1.0929715
  3003   6 C     3041   1 H                                       1.0922283
  3003   6 C     3042   1 H                                       1.0925728
  3002   6 C     3043   1 H                                       1.0922259
  3002   6 C     3044   1 H                                       1.0930127
  3001   6 C     3045   1 H                                       1.0923114
  3001   6 C     3046   1 H                                       1.0925362
  3000   6 C     3047   1 H                                       1.0922351
  3000   6 C     3048   1 H                                       1.0931633
  2999   6 C     3049   1 H                                       1.0923956
  2999   6 C     3050   1 H                                       1.0924111
  2998   6 C     3051   1 H                                       1.0921753
  2998   6 C     3052   1 H                                       1.0934432
  2997   6 C     3053   1 H                                       1.0924866
  2997   6 C     3054   1 H                                       1.0921506
  2996   6 C     3055   1 H                                       1.0914919
  2996   6 C     3056   1 H                                       1.0935562
  2995   6 C     3057   1 H                                       1.0927220
  2995   6 C     3058   1 H                                       1.0919503
  2994   6 C     3059   1 H                                       1.0909291
  2994   6 C     3060   1 H                                       1.0926798
  2993   6 C     3061   1 H                                       1.0933168
  2993   6 C     3062   1 H                                       1.0918354
  2992   6 C     3063   1 H                                       1.0918687
  2992   6 C     3064   1 H                                       1.0926529
  2991   6 C     3065   1 H                                       1.0929672
  2991   6 C     3066   1 H                                       1.0910690
  2990   6 C     3067   1 H                                       1.0934085
  2990   6 C     3068   1 H                                       1.0925173
  2989   6 C     3069   1 H                                       1.0924879
  2989   6 C     3070   1 H                                       1.0915170
  2988   6 C     3071   1 H                                       1.0933900
  2988   6 C     3072   1 H                                       1.0918400
  2987   6 C     3073   1 H                                       1.0927148
  2987   6 C     3074   1 H                                       1.0926140
  2986   6 C     3075   1 H                                       1.0928345
  2986   6 C     3076   1 H                                       1.0917154
  2985   6 C     3077   1 H                                       1.0923161
  2985   6 C     3078   1 H                                       1.0927072
  2984   6 C     3079   1 H                                       1.0924479
  2984   6 C     3080   1 H                                       1.0920693
  2983   6 C     3081   1 H                                       1.0928231
  2983   6 C     3082   1 H                                       1.0926350
  2982   6 C     3083   1 H                                       1.0924194
  2982   6 C     3084   1 H                                       1.0924267
  2981   6 C     3085   1 H                                       1.0915536
  2981   6 C     3086   1 H                                       1.0928962
  2980   6 C     3087   1 H                                       1.0917305
  2980   6 C     3088   1 H                                       1.0915139
  2979   6 C     3089   1 H                                       1.0935270
  2979   6 C     3090   1 H                                       1.0931999
  2978   6 C     3091   1 H                                       1.0906409
  2978   6 C     3092   1 H                                       1.0915166
  2977   6 C     3093   1 H                                       1.0939016
  2977   6 C     3094   1 H                                       1.0928817
  2976   6 C     3095   1 H                                       1.0914910
  2976   6 C     3096   1 H                                       1.0933044
  2975   6 C     3097   1 H                                       1.0919845
  2975   6 C     3098   1 H                                       1.0915243
  2974   6 C     3099   1 H                                       1.0929195
  2974   6 C     3100   1 H                                       1.0928566
  2973   6 C     3101   1 H                                       1.0915940
  2973   6 C     3102   1 H                                       1.0918366
  2972   6 C     3103   1 H                                       1.0930100
  2972   6 C     3104   1 H                                       1.0912144
  2971   6 C     3105   1 H                                       1.0922951
  2971   6 C     3106   1 H                                       1.0930108
  2970   6 C     3107   1 H                                       1.0912731
  2970   6 C     3108   1 H                                       1.0913297
  2969   6 C     3109   1 H                                       1.0920469
  2969   6 C     3110   1 H                                       1.0898684
  2968   6 C     3111   1 H                                       1.0934325
  2968   6 C     3112   1 H                                       1.0931288
  2967   6 C     3113   1 H                                       1.0915008
  2967   6 C     3114   1 H                                       1.0923418
  2966   6 C     3115   1 H                                       1.0927364
  2966   6 C     3116   1 H                                       1.0938957
  2965   6 C     3117   1 H                                       1.0915432
  2965   6 C     3118   1 H                                       1.0918914
  2964   6 C     3119   1 H                                       1.0922429
  2964   6 C     3120   1 H                                       1.0933175
  2963   6 C     3121   1 H                                       1.0914045
  2963   6 C     3122   1 H                                       1.0909810
  2962   6 C     3123   1 H                                       1.0924013
  2962   6 C     3124   1 H                                       1.0928346
  2961   6 C     3125   1 H                                       1.0927328
  2961   6 C     3126   1 H                                       1.0922466
  2960   6 C     3127   1 H                                       1.0930907
  2960   6 C     3128   1 H                                       1.0918087
  2959   6 C     3129   1 H                                       1.0926264
  2959   6 C     3130   1 H                                       1.0909765
  2958   6 C     3131   1 H                                       1.0916544
  2958   6 C     3132   1 H                                       1.0918148
  2957   6 C     3133   1 H                                       1.0933119
  2957   6 C     3134   1 H                                       1.0923640
  2956   6 C     3135   1 H                                       1.0927635
  2956   6 C     3136   1 H                                       1.0918825
  2955   6 C     3137   1 H                                       1.0924257
  2955   6 C     3138   1 H                                       1.0915158
  2954   6 C     3139   1 H                                       1.0926228
  2954   6 C     3140   1 H                                       1.0929056
  2953   6 C     3141   1 H                                       1.0919510
  2953   6 C     3142   1 H                                       1.0928479
  2952   6 C     3143   1 H                                       1.0935541
  2952   6 C     3144   1 H                                       1.0902597
  2951   6 C     3145   1 H                                       1.0912780
  2951   6 C     3146   1 H                                       1.0928733
  2950   6 C     3147   1 H                                       1.0927633
  2950   6 C     3148   1 H                                       1.0927013
  2949   6 C     3149   1 H                                       1.0924872
  2949   6 C     3150   1 H                                       1.0933223
  2948   6 C     3151   1 H                                       1.0934018
  2948   6 C     3152   1 H                                       1.0897423
  2947   6 C     3153   1 H                                       1.0897611
  2947   6 C     3154   1 H                                       1.0934664
  2946   6 C     3155   1 H                                       1.0928325
  2946   6 C     3156   1 H                                       1.0925449
  2945   6 C     3157   1 H                                       1.0916753
  2945   6 C     3158   1 H                                       1.0915094
  2944   6 C     3159   1 H                                       1.0929220
  2944   6 C     3160   1 H                                       1.0934783
  2943   6 C     3161   1 H                                       1.0934574
  2943   6 C     3162   1 H                                       1.0924664
  2942   6 C     3163   1 H                                       1.0912189
  2942   6 C     3164   1 H                                       1.0927574
  2941   6 C     3165   1 H                                       1.0928522
  2941   6 C     3166   1 H                                       1.0919190
  2940   6 C     3167   1 H                                       1.0927496
  2940   6 C     3168   1 H                                       1.0926331
  2939   6 C     3169   1 H                                       1.0937076
  2939   6 C     3170   1 H                                       1.0912333
  2938   6 C     3171   1 H                                       1.0922226
  2938   6 C     3172   1 H                                       1.0921474
  2937   6 C     3173   1 H                                       1.0939387
  2937   6 C     3174   1 H                                       1.0907446
  2936   6 C     3175   1 H                                       1.0920350
  2936   6 C     3176   1 H                                       1.0923824
  2935   6 C     3177   1 H                                       1.0935398
  2935   6 C     3178   1 H                                       1.0922769
  2934   6 C     3179   1 H                                       1.0907254
  2934   6 C     3180   1 H                                       1.0914331
  2933   6 C     3181   1 H                                       1.0923706
  2933   6 C     3182   1 H                                       1.0909945
  2932   6 C     3183   1 H                                       1.0926139
  2932   6 C     3184   1 H                                       1.0922152
  2931   6 C     3185   1 H                                       1.0917359
  2931   6 C     3186   1 H                                       1.0920293
  2930   6 C     3187   1 H                                       1.0915548
  2930   6 C     3188   1 H                                       1.0928322
  2929   6 C     3189   1 H                                       1.0911157
  2929   6 C     3190   1 H                                       1.0914402
  2928   6 C     3191   1 H                                       1.0933465
  2928   6 C     3192   1 H                                       1.0918509
  2927   6 C     3193   1 H                                       1.0919765
  2927   6 C     3194   1 H                                       1.0921610
  2926   6 C     3195   1 H                                       1.0913494
  2926   6 C     3196   1 H                                       1.0915067
  2925   6 C     3197   1 H                                       1.0923808
  2925   6 C     3198   1 H                                       1.0928946
  2924   6 C     3199   1 H                                       1.0921836
  2924   6 C     3200   1 H                                       1.0925787
  2923   6 C     3201   1 H                                       1.0929623
  2923   6 C     3202   1 H                                       1.0924396
  2922   6 C     3203   1 H                                       1.0917771
  2922   6 C     3204   1 H                                       1.0934321
  2921   6 C     3205   1 H                                       1.0928675
  2921   6 C     3206   1 H                                       1.0913471
  2920   6 C     3207   1 H                                       1.0935676
  2920   6 C     3208   1 H                                       1.0907795
  2919   6 C     3209   1 H                                       1.0913174
  2919   6 C     3210   1 H                                       1.0917620
  2918   6 C     3211   1 H                                       1.0921983
  2918   6 C     3212   1 H                                       1.0923742
  2917   6 C     3213   1 H                                       1.0920435
  2917   6 C     3214   1 H                                       1.0937139
  2916   6 C     3215   1 H                                       1.0927470
  2916   6 C     3216   1 H                                       1.0902253
  2915   6 C     3217   1 H                                       1.0931881
  2915   6 C     3218   1 H                                       1.0933257
  2914   6 C     3219   1 H                                       1.0926115
  2914   6 C     3220   1 H                                       1.0928732
  2913   6 C     3221   1 H                                       1.0912859
  2913   6 C     3222   1 H                                       1.0907501
  2912   6 C     3223   1 H                                       1.0928368
  2912   6 C     3224   1 H                                       1.0931633
  2911   6 C     3225   1 H                                       1.0929632
  2911   6 C     3226   1 H                                       1.0922678
  2910   6 C     3227   1 H                                       1.0912186
  2910   6 C     3228   1 H                                       1.0927012
  2909   6 C     3229   1 H                                       1.0921856
  2909   6 C     3230   1 H                                       1.0925817
  2908   6 C     3231   1 H                                       1.0939883
  2908   6 C     3232   1 H                                       1.0926166
  2907   6 C     3233   1 H                                       1.0913571
  2907   6 C     3234   1 H                                       1.0925175
  2906   6 C     3235   1 H                                       1.0933386
  2906   6 C     3236   1 H                                       1.0922585
  2905   6 C     3237   1 H                                       1.0923609
  2905   6 C     3238   1 H                                       1.0907970
  2904   6 C     3239   1 H                                       1.0917755
  2904   6 C     3240   1 H                                       1.0923937
  2903   6 C     3241   1 H                                       1.0929094
  2903   6 C     3242   1 H                                       1.0935601
  2902   6 C     3243   1 H                                       1.0936992
  2902   6 C     3244   1 H                                       1.0918742
  2901   6 C     3245   1 H                                       1.0915967
  2901   6 C     3246   1 H                                       1.0924244
  2900   6 C     3247   1 H                                       1.0929032
  2900   6 C     3248   1 H                                       1.0920254
  2899   6 C     3249   1 H                                       1.0935133
  2899   6 C     3250   1 H                                       1.0926668
  2898   6 C     3251   1 H                                       1.0923531
  2898   6 C     3252   1 H                                       1.0927163
  2897   6 C     3253   1 H                                       1.0879566
  2897   6 C     3254   1 H                                       1.0882964
  2897   6 C     3255   1 H                                       1.0878247
  3016   6 C     3256   1 H                                       1.0879491
  3016   6 C     3257   1 H                                       1.0875696
  3016   6 C     3258   1 H                                       1.0879888

 * 2 distinct bonds (by element types)

   Z      Z             #   av. dist./Å        max./Å        min./Å
   1 H    6 C        2178     1.0923029     1.0945248     1.0861493
   6 C    6 C        1071     1.5274520     1.5362436     1.5226319


optimized geometry written to: xtbopt.xyz


           -------------------------------------------------
          | TOTAL ENERGY            -3427.551390949182 Eh   |
          | GRADIENT NORM               0.000905029045 Eh/α |
          | HOMO-LUMO GAP              11.404769567145 eV   |
           -------------------------------------------------

------------------------------------------------------------------------
 * finished run on 2024/10/04 at 03:16:10.863     
------------------------------------------------------------------------
 total:
 * wall-time:     0 d,  5 h, 53 min,  4.197 sec
 *  cpu-time:     1 d,  6 h, 14 min, 20.204 sec
 * ratio c/w:     5.139 speedup
 SCF:
 * wall-time:     0 d,  0 h, 14 min, 34.295 sec
 *  cpu-time:     0 d,  1 h, 32 min, 15.456 sec
 * ratio c/w:     6.331 speedup
 ANC optimizer:
 * wall-time:     0 d,  5 h, 37 min, 47.891 sec
 *  cpu-time:     1 d,  4 h, 41 min,  7.400 sec
 * ratio c/w:     5.095 speedup

