3795
 energy: -5103.079179067799 gnorm: 0.000922292865 xtb: 6.6.1 (8d0f1dd)
C          108.95144493165589      119.40521826644122      125.48528885313692
C          107.59506655338102      119.97039199154879      125.83162356408172
C          109.84391443089021      119.33545205112880      126.72679139939807
C          111.18342618820117      118.64635609523847      126.48226643630369
H          110.03569747711610      120.35074949635339      127.08077205271839
H          109.30258844642529      118.80531533333036      127.51193345241506
C          111.08126601748370      117.12227650003990      126.36741125344722
H          111.64669776276634      119.04498638340900      125.57805194960584
H          111.84135665999209      118.88389029317976      127.32165177825377
C          112.45510423449345      116.49902809713002      126.56190701760043
H          110.40208882522320      116.73055871548993      127.12274931651095
H          110.70464804828769      116.83861910595824      125.38259426113851
N          112.48740907753448      115.43522070430598      127.35528341145753
O          107.08226375899270      119.43773535853578      126.91527991092711
O          107.03558167256793      120.83333741400760      125.18380659210818
H          106.19004612649718      119.84236158215830      127.15045644815469
H          109.40181202446124      120.01536332185067      124.70255197446546
H          108.78562963383725      118.40122102318067      125.08870996375173
C          113.71746739624285      114.79434438079632      127.77721562438835
H          111.61617931171726      115.04286135572926      127.70110809148876
C          113.45996191208351      113.45764032012005      128.45829646748712
H          114.36586469810641      114.66075905035504      126.90632986543876
H          114.23520634630171      115.45458090312320      128.48010533010984
C          112.59342533684406      113.59551618014883      129.71068006294277
H          112.99254962131278      112.77564758130883      127.74695124203221
H          114.43254357708173      113.05612366420941      128.74860237912526
C          112.56976463696974      112.33237192553737      130.57358726322960
H          112.98787209839276      114.41244311923752      130.31756746780121
H          111.57014601528489      113.84160000175432      129.42730265349377
C          112.03394684417479      111.09124632044211      129.84410059722128
H          113.57716539741298      112.13180683209190      130.94326968980283
H          111.94115226617960      112.53694117691957      131.44191960987689
C          113.16280526138210      110.20804584218990      129.33234081651369
H          111.41221212438055      110.49842990423247      130.51762360305057
H          111.40449154940731      111.39948367698337      129.00819593622950
N          112.66970958779578      109.11933421244748      128.51123009811374
H          113.87118335980203      110.79517555076208      128.73921522604559
H          113.72035244850586      109.78154438539087      130.17485891055227
C          113.49769568117385      108.16314339534766      128.09245535166676
H          111.68867919853462      109.11333706549937      128.25188345439116
O          113.46337740966435      116.97632008816637      126.03776219525210
C          112.89958514672031      107.11951416279105      127.17214734059112
C          113.74466836355295      107.00800479407367      125.89826793558004
H          112.90689196172430      106.15816536510684      127.69295947564139
H          111.87116917597997      107.38322247911888      126.93521776958360
C          113.87929468000436      108.33545790240048      125.15262247312897
H          114.74313270166759      106.65662855004585      126.16827914407237
H          113.29093158074328      106.27240884842476      125.23228758241723
C          112.51075053953403      108.90256984141979      124.76715370113365
H          114.41823192336295      109.05485765105057      125.77099940174979
H          114.46540510498512      108.16258244037967      124.24835488240632
C          112.61103614796104      109.93192588912824      123.66200366315793
H          111.87764770483035      108.08696531199740      124.42465979595391
H          112.04469187370876      109.38162636119341      125.63053736542174
N          111.96832411690283      109.58005558017518      122.54429496244883
C          111.81840550805570      110.43711084616100      121.39195359519869
H          111.54198414806822      108.66097320200328      122.49878013549672
O          114.68372761835076      108.13855918660221      128.41404770438680
C          111.67545459960419      109.62872419736516      120.10646267671392
H          110.92389553125803      111.06258077539121      121.52003182321315
H          112.68845797034619      111.09672616074589      121.35223067310287
C          112.98703323503982      109.01709699263226      119.61787008943219
H          110.94347891959634      108.83613429362573      120.27493947877234
H          111.28117304748743      110.29032418435146      119.33239303236688
C          112.78878657602213      108.26711693594424      118.29971229160273
H          113.71352313400097      109.81707164182046      119.47400312578780
H          113.38301296714822      108.34332422391702      120.37913877354218
C          114.09691795565864      107.86435980198831      117.61536346508726
H          112.19030026769791      107.37380439732804      118.48839818049383
H          112.22655950874385      108.90494819654381      117.61387999309591
C          114.76691905661522      109.04631442928554      116.92615353086616
N          116.07453492886501      108.69534290953852      116.40782370216668
H          114.13309435372304      109.41506430334661      116.10938547867951
H          114.91217187160528      109.87235558889371      117.62806955926911
C          116.99561555152819      109.63322685161155      116.16289924970434
H          116.26646608117029      107.71190422250756      116.22836525300443
O          113.20401695138794      111.00132013921984      123.78391476987896
C          118.29750041288524      109.12039834464007      115.57359327923744
C          118.31561722236566      109.41156762465299      114.07029006152939
H          119.13297751936945      109.63585800113412      116.05098531938833
H          118.39126411640160      108.05136456140025      115.75538123963263
C          119.58775034949997      108.90769802462029      113.39260027274955
H          117.44937201087265      108.94167454633539      113.60617012208641
H          118.21929034863354      110.48933966689420      113.92010667202585
C          119.65694983850793      109.32766531553126      111.91971374700387
H          120.46037251229325      109.30455804763162      113.91409628622021
H          119.62688421190651      107.82046393213132      113.45938958053938
C          118.50159587531658      108.75251988113008      111.12345424621890
H          119.61141616606916      110.41472050187724      111.85406291308320
H          120.59102919895227      108.97611533869828      111.47979025035843
N          118.62383382781253      107.45166665871982      110.84336902099079
C          117.69226548935072      106.72616549122273      110.00295766981593
H          119.54850875124907      107.04145147894049      110.92953427530144
H          114.78105141241743      107.43774596455437      118.34798086040024
H          113.89477207769548      107.09529460669785      116.86823167386005
O          116.80156210603481      110.82521490770769      116.37863469291281
O          117.52321764036449      109.42670614944262      110.80209657511259
C          118.38812957536535      106.23978833644144      108.73233391455371
H          117.29097379980581      105.87443468385374      110.56343009573467
H          116.87247053724492      107.40433192398379      109.75119443575331
C          117.40417176289071      105.80186555727303      107.65443103461403
H          119.00339350068494      107.05340113164739      108.34373932464197
H          119.05314765848607      105.41352392454266      108.98600581957004
C          118.12261339299597      105.22708812519484      106.42965302541248
H          116.72808764994102      105.05329488605510      108.06444362896900
H          116.79733738889240      106.65837760646247      107.36106505552503
C          118.42236594876229      103.73605202523538      106.57576224199825
H          117.50502880020142      105.37732758737070      105.54341352427681
H          119.05758020317133      105.76963511625476      106.27362549277116
C          119.22848966919952      103.19501982145906      105.39063681650047
H          118.97262326629806      103.54654349890346      107.49915471134179
H          117.48134624455021      103.18320848439386      106.63315449296111
N          119.21027141336367      101.75003760333826      105.34512427954137
H          118.80085299429111      103.56795372014339      104.45838590918555
H          120.26763647311310      103.53220800397274      105.46590201203558
C          118.45855458595092      101.02786431842443      104.50760012570940
H          119.63294803609537      101.25905248472790      106.13663090701220
C          118.53712604465116       99.52944873318151      104.72004928520609
C          117.19436412518753       98.97059500795311      105.19994676850816
H          118.78449034674040       99.07236782148414      103.75947488991251
H          119.31331739533474       99.29208743424776      105.44475032795187
C          116.82015454379822       99.45545547016262      106.59950720707427
H          116.41526414725764       99.25581500456805      104.48944484233358
H          117.25800494549271       97.88015659322289      105.20473658403719
C          115.61036552239510       98.68300455725861      107.12680849357012
H          117.66502394772209       99.32205472398893      107.27652459970969
H          116.58824565955818      100.52237093092440      106.57002376805036
C          115.25264857140517       99.02531022917088      108.55683902612346
H          114.74435279030372       98.83961481751540      106.48399717057411
H          115.84732173078626       97.61483444513864      107.11976909602885
N          113.93698608351175       99.17113587397438      108.78041860033416
C          113.36584411403329       99.28053780178061      110.10456494871254
H          113.30052836012945       99.09597047743308      107.99251599641667
O          117.77785009725926      101.50826783289979      103.60479895530820
C          112.29564451978032      100.36405547247826      110.21148670856927
H          112.92603618327705       98.31416904064366      110.38666472047538
H          114.18434403479682       99.49389332596562      110.79567746149131
C          111.74625593792490      100.42409664985003      111.63678175210343
H          112.71500432426301      101.32761497857466      109.92320938995181
H          111.48592599546900      100.12799944723434      109.52003624971313
C          110.49203775988168      101.28392396957479      111.78457180476124
H          111.49664961278971       99.40550096534425      111.94657386883108
H          112.52289774116538      100.78899338486440      112.31264104746799
C          110.72365068261684      102.79590627941545      111.70450848458208
H          109.76967290819356      100.99160398298565      111.02381589549948
H          110.03701571772910      101.06914929998125      112.75110325471609
C          109.60219496524411      103.50895638676083      112.45178992514687
H          111.68322708794922      103.05195439626033      112.15275248582419
H          110.73979097079304      103.13514060897636      110.66732916657901
N          109.51535528159022      104.92020048382970      112.13414637954307
H          108.64377145236217      103.02734207565500      112.22218103644592
H          109.74420160814275      103.41156572820898      113.53259125441787
O          116.09110859427734       99.13607624241057      109.44618370700005
C          108.72590935522726      105.72493781831871      112.84642485208848
H          109.93464369658786      105.25447682560282      111.26963474645906
C          108.61810152724645      107.15191043147796      112.34913401358473
C          109.75872933640933      108.02080550717859      112.88754133667827
H          108.64281832074586      107.15517308887165      111.25991295670738
H          107.66147846717598      107.55356658879947      112.68855389191408
C          109.75348260523810      108.09850478319576      114.41214591126477
H          110.70680994537828      107.61099359194282      112.53788997026190
H          109.65657694985097      109.02988890955288      112.48073693296939
C          110.72728898850106      109.15570524708325      114.93431741793371
H          108.74973881849535      108.36138970366153      114.75321966227767
H          110.00360922950415      107.12325509204855      114.83229054594237
C          110.19630900124984      110.55694900683956      114.68274366285605
H          110.81462401928377      109.04309693761783      116.01764223223934
H          111.71660510841285      109.03896015211578      114.49741495956468
N          111.07388285239732      111.42288483295742      114.17152203675514
O          108.11994916233466      105.33981624849156      113.84392953536808
C          110.77655434926290      112.82496179571972      113.97253785210445
H          112.01850337542659      111.11920306562271      113.94340916314843
C          110.91536601961337      113.27936580692980      112.52184093383032
H          109.75109974412277      112.97609467410203      114.31211629028789
H          111.45177876390298      113.42105365337886      114.59421124916682
C          110.04695211735236      112.45482185186417      111.57735827564071
H          110.62757028217186      114.32863808047577      112.47561880534059
H          111.95699026658374      113.22840290512936      112.20894970161855
C          109.89888364169455      113.08824136982473      110.19291509321739
H          110.49490700035427      111.46450759925540      111.46104205604099
H          109.06798569468548      112.30666359326024      112.03217365707920
C          109.07667186835766      114.37925289117348      110.14579518630178
H          110.89491743052835      113.31475195318875      109.80757138305022
H          109.43247188489339      112.36491690939965      109.51935167982455
C          107.68331082884303      114.24433396337201      110.74647873206732
H          109.61486876553143      115.17941516519110      110.65491438087376
H          108.96122069746868      114.65562577384894      109.09614513722605
N          106.86200314070258      115.39681038048658      110.43666376111010
H          107.17250877435211      113.36888786554164      110.33681568646196
H          107.75325370567833      114.13386884875631      111.83504148459539
C          105.53144248335306      115.32073986286038      110.36679092000048
H          107.32392351352610      116.29977739125644      110.36019401812690
O          109.03856950397535      110.85160140482716      114.97069261791874
C          104.84209577506265      116.62948826801269      110.03061544050718
C          104.63201521497274      117.46590186697739      111.29493321598434
H          105.45784982580140      117.19243614595163      109.33088390551521
H          103.88011930803216      116.41085434303314      109.56511100269837
C          103.96903774365715      118.80484926607160      110.98328206719860
H          104.01127265734300      116.91465667853326      112.00107764553105
H          105.59851992238325      117.64631344226630      111.76638890860546
C          103.97088048798406      119.72474182517064      112.20595255490507
H          104.50574227306099      119.29615487859164      110.16838105194223
H          102.93899751194479      118.64193021003008      110.66092749354191
C          103.12677376596285      119.14274869106380      113.32707904514669
H          104.99199539580579      119.88415505348914      112.55059514946765
H          103.53502692761708      120.68763800653385      111.92667256396335
N          103.77334864490092      118.93663036980516      114.47811038471380
C          103.11191999397737      118.42228503252505      115.65538787269129
H          104.74492150838863      119.23420426085546      114.58652250906341
O          104.90795241178624      114.28095044349358      110.56589811973798
C          103.78145182343569      117.15976039422418      116.19462638117602
H          103.11022070328978      119.19133264810338      116.43736630089364
H          102.07544230599480      118.21350394440424      115.37845531186017
C          103.10228570483963      116.70414026188124      117.48252494972354
H          103.71869216779724      116.36292225574147      115.45251571527771
H          104.83725382432431      117.36276199417803      116.38385714682407
C          103.66420387145743      115.37841699145119      117.99079730762941
H          103.22539077346508      117.48104078891683      118.23886555883917
H          102.03204116326498      116.58860332111813      117.29577970868385
C          102.97049438587059      114.90091349456267      119.26603326098524
H          103.53127556097509      114.62612137746140      117.21064628215774
H          104.73476565769657      115.48295752356861      118.17798449258601
C          103.28888376621687      115.77656045899668      120.47714719451685
H          101.88990639088478      114.88766377800091      119.11121176406814
H          103.29055897754587      113.88312549538843      119.49229757242892
N          102.59287281344140      115.31038822174574      121.65443235402364
H          104.36782701105342      115.76450454692907      120.65588784931167
H          102.96932361518923      116.80705942260693      120.31142941090457
C          101.73658062667214      116.07521185810097      122.34411834727436
H          102.75627617344873      114.34310887596818      121.93202683445726
O          101.93859099623107      118.88141684203580      113.17162826370355
C          101.02293893240723      115.34770280457599      123.46687388829514
C          100.01608635056579      114.33090700908657      122.92142068918170
H          101.75992381820959      114.82776926913438      124.07995681727027
H          100.50872621801491      116.08329070381517      124.08633194508096
C           98.88825079070486      115.00813123045964      122.14616413352095
H          100.53118120923664      113.61657302805179      122.27633826406257
H           99.59119199676562      113.77415131410616      123.75771434963082
C           97.88176243886086      113.99364578443823      121.59608063371090
H           98.36136494845741      115.69680215828201      122.81028975910860
H           99.31259225532249      115.60642790345260      121.33657990703750
C           98.48853321157381      113.02272840613516      120.59742360804591
H           97.46756156135079      113.40638737904735      122.41687289796052
H           97.06036897785083      114.52035874991593      121.10375345168275
N           99.00535816330583      113.59706320308167      119.50092984664744
O          101.55670363083017      117.26357130030333      122.09687956353407
C           99.63649801012949      112.83335619144630      118.44502230033338
H           99.02646253577359      114.60110294085084      119.42494906781670
C           99.67389494920945      113.59401081301941      117.12757877783667
H          100.66142897595917      112.57774070386728      118.73737098344679
H           99.08531831508340      111.89722363338507      118.34650473273358
C           98.30127634330890      113.91858419305220      116.53405138951084
H          100.21247253987512      114.53425310111881      117.27862086635135
H          100.25718090717187      113.00133816574758      116.42438965271870
C           97.38458858854796      112.71395940128772      116.29014582191988
H           97.77054489565651      114.60903595863149      117.19528949427978
H           98.46496394015607      114.44666140869651      115.59245368471416
C           98.04847341887945      111.51389867329819      115.61315894288127
H           96.98541907830948      112.37290814801712      117.24760638768751
H           96.53679806192531      113.05079966693070      115.68868337039969
C           98.65921426752391      111.80933019100482      114.24213085511072
H           98.83875776595555      111.14542938936336      116.26275719956590
H           97.30671753324850      110.71966614916835      115.52139075094522
N           99.97096605224927      111.20211302169250      114.13134339308088
H           98.03957893808104      111.41988712460675      113.42959283169338
H           98.75589748066275      112.88976187904439      114.09066020012772
C          100.55743377483576      110.93952291890987      112.97028092053752
H          100.46832362496053      111.02694174940504      114.99790904085485
O           98.48257485495165      111.81238130781585      120.76075053124333
C          101.95065314692920      110.35426652093491      113.04994607872381
C          101.98076701435834      108.85107415583325      112.72882572592765
H          102.58962159219698      110.89618620895067      112.35191019823982
H          102.33569456899015      110.50596301274734      114.05788382632326
C          101.37816429097767      108.43993131999970      111.38309311752079
H          103.01969984015585      108.51521821514392      112.78002872972918
H          101.43400945903653      108.33392485643870      113.51885466438476
C          102.29045722237605      108.51144652529746      110.15931407501333
H          101.07927790759733      107.39394368831510      111.46089713878391
H          100.46662061939607      109.00080351205432      111.19296844210866
C          102.62488905302416      109.84848276866464      109.54328839306380
H          103.23669014274519      108.00118085342137      110.35984132273609
H          101.79198290817678      107.93841667250767      109.37065862281568
N          101.97099018334852      110.92356549495298      109.95829036151622
C          102.27197537078878      112.24255155433796      109.45077336968419
H          101.21813180533564      110.87437996506198      110.65063632263282
O          100.00345753864553      111.16411342073489      111.88888531105134
C          101.05479627664560      113.15175361115628      109.49036527665746
H          103.08331443657080      112.68947824522839      110.03904747978883
H          102.62278976032182      112.13885286233743      108.42204048486346
C          101.43567878883498      114.53830443453356      108.98398841372963
H          100.25805608363679      112.72585817143170      108.87882102016906
H          100.68184357621836      113.21298143876351      110.51321818959016
C          100.23336881221802      115.47157669128515      108.89925433058286
H          102.18270683435310      114.95502960934888      109.66264620697298
H          101.89738333399613      114.45103823425312      107.99963012420305
C          100.63628812023073      116.93754201478400      108.75730606991475
H           99.61545210059280      115.17906483303561      108.05118739939655
H           99.62445520041507      115.36541497330245      109.79798386834057
C          101.10537570455671      117.29747055964219      107.34742712915813
H           99.77750892558673      117.55932097967859      109.01910418015072
H          101.43638960667171      117.16554450493200      109.46525413668142
N           99.97894011114489      117.35270688991478      106.44507520694854
H          101.56588346998585      118.29008708995333      107.34083924461815
H          101.84265421915775      116.57281587629249      106.99415299977761
C           99.71355347601067      118.38034315863858      105.63557429065116
H           99.25958647038804      116.64784355329016      106.55894491828623
O          103.46805887880676      109.91475256229569      108.63177907157988
C           98.29916232740673      118.38398897509234      105.09698602311131
C           97.43994604802865      119.29705258707462      105.98643077323420
H           98.29545673295419      118.78293840727379      104.08184563965207
H           97.89202254551360      117.37529425414969      105.09753513511045
C           97.46326504207980      118.97831601533622      107.48622276569844
H           97.80705652880192      120.31950796585340      105.86307200911172
H           96.40940530084696      119.26874756546505      105.62641487073373
C           96.56582548613727      117.83396842560136      107.97858807185727
H           98.48847988439823      118.80622054910305      107.81000548252045
H           97.11459070644827      119.87723037075160      108.00305776469442
C           97.00780176426912      116.39102256370330      107.77362736161658
H           96.40809817618637      117.97205759914898      109.04927050886087
H           95.59266972213042      117.91723284770268      107.48427828222246
N           96.78989602040146      115.61340497113275      108.84032050066288
O          100.52086270469155      119.27481806407748      105.39596210986784
C           96.85891305704195      114.16484640939008      108.78464666671266
H           96.65045788387279      116.03834446436578      109.74869395778674
C           96.95655113174728      113.55392365308418      110.17909317938602
H           95.94844415504011      113.79902710113699      108.29096022307512
H           97.70707214704505      113.87672258756601      108.15912144693998
C           96.50737640089430      112.09193500878114      110.21419200583215
H           97.98080721541231      113.62481770092516      110.54624691865145
H           96.31624625119983      114.13325032959906      110.84912585769979
C           97.50170366270764      111.14232879688178      109.54696661275759
H           96.37636203582160      111.79886704931769      111.25676701463203
H           95.53670801594089      111.99960254418477      109.72127344607685
C           96.91135033951642      109.75360909029195      109.29207733493465
H           97.79965077651386      111.56129464037515      108.58431257297985
H           98.39546973099002      111.06800008301344      110.16792436712495
C           96.59131825793172      108.95528232942824      110.56646191258646
H           95.99241285656167      109.85702916315626      108.70984496856966
H           97.62749090764245      109.17240673838303      108.70335886775226
N           97.73651954230846      108.49785897628853      111.33276772047003
H           95.96374349736892      109.55398001862447      111.23111655774342
H           96.01124894050632      108.07110413139166      110.28223623472644
H           98.27516597849082      109.29862707818450      111.64697212866740
H           98.35228563460279      107.93943429371332      110.74538904361981
O           97.44133070063782      115.93840626493049      106.71668824750581
C          118.10283036805689      112.98110213068044      131.59746294597613
C          117.18986993952457      114.17808691954384      131.73832427481824
C          119.58137005385035      113.32941092041182      131.75004427985073
C          120.10092850652413      114.14980933342119      130.57082136468196
H          119.71392901703271      113.89448305446403      132.67344850908350
H          120.15670021079531      112.40503035389511      131.83105733276406
C          121.58086521960237      114.50253282737550      130.71139946518122
H          119.98119444078947      113.57104096033106      129.65151345080977
H          119.50938260574036      115.05940460794018      130.46817191478934
C          121.93773493221852      115.25475430631911      131.97950770478460
H          122.18935268589223      113.59603080784760      130.69513389791848
H          121.87841092717321      115.11548736149301      129.85811955980230
N          121.07018738498726      116.19015942806337      132.37770153297049
O          115.97516187753713      113.92786270938808      131.27747249966475
O          117.50969461031580      115.23414618886737      132.22662627842564
H          115.37504331471881      114.70532955251896      131.38868960233521
H          117.90072286436784      112.51531991838955      130.63280865873571
H          117.80479326642573      112.26711988123522      132.36944610254344
C          121.26408669921952      116.93228095434617      133.60614219738744
H          120.27759396322962      116.43068178514014      131.79829298669554
C          120.33388746795367      118.13538997887076      133.68880585659170
H          121.08830637287443      116.26481028493102      134.45898577710452
H          122.31211485560335      117.25112452017947      133.65791389469044
C          118.87092379201329      117.72422918069618      133.84730076595702
H          120.63802012494105      118.74676708210384      134.54155077508935
H          120.44860666650683      118.73820838109248      132.78591450503430
C          117.95935743221497      118.93718342628904      134.02164179412949
H          118.55783976971135      117.15431640115702      132.97596007190978
H          118.77046267207562      117.07343335719247      134.71796996745309
C          116.47366899932045      118.57864647215843      133.97996472067689
H          118.18031243374365      119.41879596747971      134.97752875122183
H          118.16834501438646      119.66373487209628      133.23341607408696
C          116.03397739240950      118.12307159475486      132.58867280272113
H          116.26159266055215      117.79403234939853      134.70717646678708
H          115.89254620880638      119.46319005926401      134.26028409746581
N          114.59079471810023      118.12655546942896      132.46574196516914
H          116.45839994259779      118.80673102693461      131.84253786751319
H          116.38501284181638      117.11257363210136      132.37570690537495