3258
 energy: -3427.531948820356 gnorm: 0.000983709299 xtb: 6.6.1 (8d0f1dd)
C          103.95479377553153      122.42101526209927      116.71186125347269
C          104.21716249774042      121.84573253467370      118.09735146893331
C          105.35840660570386      122.56595534156359      118.81160265647794
C          105.66107192556956      121.94535680282939      120.17282744788997
C          106.76577910350341      122.69435622551589      120.91525069447776
C          107.09893329222179      122.08059639685527      122.27708912270712
C          107.85902800860129      120.76138777051088      122.16710734885550
C          108.18685310792780      120.15430336105233      123.52893984873137
C          108.99962621139143      118.87104973114705      123.37865514804005
C          109.21734497027541      118.14223802076818      124.70140526555004
C          109.90957043369175      116.79865051846080      124.48663313302903
C          110.04671396417162      115.99816238891002      125.77946710641153
C          110.56998076180454      114.57999400429195      125.54806920627641
C          112.04215936463933      114.54014476078960      125.14455096740770
C          112.58184071970994      113.11894817281248      124.97573297841959
C          111.96245720109091      112.32833291491986      123.82208789094592
C          112.23831890014630      112.92600468955970      122.44310814222631
C          111.67084456093082      112.03797063520676      121.33758777508436
C          111.89330664816059      112.57505223750987      119.92422598796645
C          113.34494302746623      112.46738201368208      119.46526616794438
C          113.54065722764321      112.94839683346119      118.02876231426985
C          114.96360228521777      112.69696900927927      117.53664698462320
C          115.17677005878576      113.12155019070195      116.08677260572277
C          116.59485917183341      112.80657677434202      115.61254697192230
C          116.83849240174509      113.14519440800002      114.14101316514865
C          116.09934745445040      112.21646652123994      113.18113816139666
C          116.40800253274259      112.51924903637156      111.71660006591057
C          115.58831070947122      111.63756491900749      110.77795521752812
C          115.81615764863419      111.96037205784984      109.30333133072850
C          114.97668466342525      111.06362960174714      108.39618921257083
C          115.11241725340636      111.41913221111824      106.91756684120617
C          114.22436564953509      110.54031864453333      106.03887475968021
C          114.21456253364190      110.98422464075820      104.57762157942656
C          113.24026938350430      110.16357850430437      103.73488078568487
C          113.15989568711844      110.65305941810229      102.29115432529059
C          112.12101268168217      109.88413019217795      101.47753129845931
C          112.04333053372459      110.37202108588274      100.03223684211119
C          110.89794268755972      109.71245165562145       99.26620958757630
C          110.90504522366982      110.02228819219457       97.76891520671377
C          110.80943338071374      111.51127646660299       97.44837197143613
C          110.66703096283128      111.77254732402585       95.94986570798287
C          110.74528194189932      113.26545015448153       95.64074499500859
C          110.58710736207695      113.57298089900706       94.15431808774078
C          110.76855588977422      115.05472820321937       93.81755066974304
C          109.59665760761050      115.92230413378557       94.27230226550920
C          109.81765353810208      117.40220116514519       93.96088964344560
C          108.55840749975806      118.25646024579517       94.12789002963829
C          107.90764487282021      118.12929857382700       95.50475308298292
C          106.76019286859955      119.12590062856412       95.70145253792241
C          107.20554565314752      120.49701007686291       96.21646249659427
C          107.49232784446639      120.49129719123549       97.71725810798587
C          107.85853325106609      121.87524376902618       98.24927128137935
C          108.14936769680104      121.84423136627831       99.74828701576034
C          108.47362956183416      123.22395145747919      100.31872725703886
C          108.77572990773449      123.15140266129350      101.81399720469445
C          108.93444535983912      124.52130256375112      102.46812562479271
C          109.11687097038897      124.40044016730846      103.98012647036165
C          109.19886355058198      125.76113767715735      104.66911233311335
C          109.20142272445409      125.61841099429103      106.18929686745143
C          109.36526553415257      126.93915751514268      106.94328235036964
C          108.29391005989380      127.99603760912957      106.66332823930991
C          106.86873384031990      127.59328098609353      107.04964075940755
C          106.62391449152875      127.60240322470518      108.55802550124081
C          105.19452326217316      127.20232697508136      108.93426199967263
C          104.93573789830944      125.70773053362257      108.76063658301671
C          103.50615298376592      125.30014662926585      109.10759287800494
C          103.31460521979729      123.79155011392886      108.96436702407088
C          101.87190185268442      123.35018735397647      109.19388177075538
C          101.70145547578279      121.84098260190019      109.03202299389557
C          100.25023309181036      121.40371633130803      109.21333470454749
C          100.06341915305896      119.89870465337742      109.03430135500497
C           98.59880463939243      119.48863673436456      109.16971708719502
C           98.37712360103403      117.99191011129471      108.96009346313623
C           96.89415529791441      117.62884758211507      109.01355030857536
C           96.64082731781301      116.14181478259442      108.77532800434010
C           95.15062200017464      115.80465545790105      108.80159231880280
C           94.88617230130137      114.31528898485359      108.58787315133610
C           93.39525531930197      113.98330200414344      108.64438784465213
C           93.09518578282878      112.48390585182317      108.56452629206437
C           93.30424761533855      111.89285453927280      107.17160384760258
C           93.07968318772632      110.38145565027590      107.14917160974919
C           93.27990422653355      109.78557499466466      105.75479757264029
C           93.36502129216201      108.26078401989818      105.78482066561521
C           93.63992193197015      107.65729056867336      104.40741128947474
C           93.97096673394412      106.16864235521938      104.50179255891685
C           94.38300384217438      105.56295222306846      103.16155357018413
C           94.84462754328864      104.11354043368486      103.31282817795048
C           95.46087097628059      103.55923131566847      102.03063706498848
C           95.94474351751607      102.11803117613691      102.18999013594440
C           96.72711388803491      101.64404490747438      100.96666284302594
C           97.16126623474453      100.18286203916574      101.06740853924474
C           97.99801594231513       99.77082376934740       99.85676435073182
C           98.27443617651987       98.26902994760630       99.77962737179274
C           99.20158746047696       97.75035734007585      100.87736788711304
C           99.54059189740431       96.27669112233271      100.65473945096302
C          100.33096716969118       95.64396182182368      101.80048215658212
C          101.77172052887832       96.13969198209122      101.90088753025449
C          102.52796294016782       95.44277219370532      103.02966985257946
C          103.97932369743086       95.90499148730460      103.12740844235154
C          104.70022511935795       95.27756002264211      104.31696566541790
C          106.15805617155441       95.71901547706860      104.41239039047436
C          106.83060442722136       95.18139815295601      105.67202695230871
C          108.29933470691569       95.58736473014416      105.76036595032674
C          108.92429205644818       95.30323461319459      107.12641477559760
C          108.88300787287498       93.82704779973479      107.51352010593794
C          109.79114580389408       93.52593773002626      108.70393470992890
C          109.55951092636667       92.13510091708307      109.30019895435079
C          109.62676235498517       90.99006313867341      108.28816861492518
C          110.99518852034710       90.85720425475255      107.62530946906612
C          111.04913437631143       89.75688062343050      106.56429132400690
C          110.20448878683564       90.02991271870776      105.31730083567170
C          110.67830655754166       91.24203727288184      104.51626100321828
C          109.98275963886360       91.37145405040992      103.16056583342009
C          108.51063889791097       91.77016270943483      103.25844361609634
C          107.85316334292237       91.80955414483481      101.88077649998506
C          106.39185831565236       92.24851741873204      101.93211843527681
C          105.75784582811050       92.24931914389306      100.54276526850576
C          104.27858497943130       92.62395420787556      100.57442469949937
C          103.64497482817607       92.56739603829647       99.18664735772083
C          102.16316875041294       92.92064205095643       99.22170240900870
H          104.17007638230356       93.26033904620081       98.52537104056231
H          103.76790018897893       91.56261238274182       98.77524465103099
H          103.74824912057485       91.93878433336400      101.24046363857116
H          104.16688294938426       93.63128600081355      100.98040543602048
H          106.29520582010289       92.95180212253825       99.90012259340737
H          105.86530646887765       91.25562279971265      100.10065803361091
H          105.83209230679545       91.57279697036184      102.58355608830644
H          106.32696582055391       93.25049508339194      102.36148892489939
H          108.40875095534865       92.49338649466446      101.23632138684869
H          107.91195127584028       90.81521340853151      101.43113917024299
H          107.97410818615569       91.05637827214059      103.88592396943244
H          108.43073649852742       92.75347334635818      103.72882958797263
H          110.50856566129160       92.12463217790011      102.56770739625378
H          110.06196818510735       90.42152197121372      102.62627580311228
H          110.51259505366225       92.15858016163880      105.08506443613983
H          111.75405909391988       91.14753936013520      104.34732488476105
H          110.25673961559971       89.14812721823039      104.67325516081964
H          109.16110686254282       90.15902907924273      105.60559735691632
H          112.08945524754147       89.62149591176797      106.25573302753786
H          110.71526571728607       88.81746538818093      107.01257969975980
H          111.28050282035362       91.80463651111538      107.17026505853659
H          111.73283009726681       90.63049840195148      108.39955656697701
H          109.39371159409814       90.05515264429846      108.80483167372493
H          108.85826808903634       91.14172923679104      107.53083278341502
H          110.30086165046416       91.96360232903518      110.08502346927236
H          108.57234470916869       92.11814217761696      109.76992461918283
H          110.83398784649353       93.63213329040499      108.39899602309208
H          109.60806949421587       94.26681370603835      109.48646763071636
H          107.86033399266096       93.54425111875589      107.76880599052460
H          109.19159968684976       93.22868878782458      106.65494113559085
H          109.96650998521874       95.63444256058148      107.11034922854255
H          108.40743729457269       95.88857433064804      107.88961079527411
H          108.86682632472605       95.06290163086496      104.98724934024166
H          108.38287488604819       96.65761251411502      105.55494080006054
H          106.29942906125748       95.56147118117983      106.54747415478016
H          106.74938179380025       94.09334134898216      105.67485261808382
H          106.70174081972299       95.37377340304693      103.52950815655601
H          106.20566373513411       96.81090311333300      104.41818888112269
H          104.18303788053608       95.55886083686957      105.23730173191008
H          104.65825107290775       94.18905354922454      104.23402989695478
H          104.50759521285852       95.64511262362836      102.20674603313968
H          104.00582233986452       96.99265230959161      103.22254740876453
H          102.02303367714990       95.64497173807263      103.97734129693147
H          102.50177374369233       94.36203179617485      102.86936252412021
H          102.28414143447988       95.95302868518104      100.95364299129923
H          101.78094634555865       97.21671667143933      102.07633000214524
H           99.81412746188911       95.84070929384914      102.74305395281472
H          100.34652351989533       94.56044619716749      101.65731722771537
H           98.60587609615226       95.72320405137766      100.53365591111626
H          100.10527713493457       96.17158827098775       99.72495898503922
H          100.11648974947285       98.34577511704784      100.88314049892452
H           98.72166729760991       97.86450107233557      101.85086218384677
H           97.32613000604239       97.72759599521112       99.82436483992434
H           98.73076040810184       98.04668559794376       98.81148702484310
H           97.46163737393964      100.07075900913142       98.95257037017232
H           98.94624812038138      100.31388724940767       99.86974206482549
H           97.73549658428261      100.03633810390937      101.98456983850247
H           96.27501215782240       99.54670133077900      101.12797270971964
H           96.10957057508297      101.77044389120228      100.07523009706055
H           97.61315159211696      102.27152045570527      100.84253301539988
H           96.58314715608384      102.04719814456982      103.07484565598267
H           95.08625177040054      101.46225876692355      102.35230532408545
H           94.73065312228935      103.61079152474500      101.22006305894085
H           96.30959989090003      104.18783134454443      101.74937819757776
H           95.59136458854542      104.06226990079669      104.10959750749208
H           93.99920406604723      103.49089229271412      103.61371520464522
H           93.54932897290003      105.61296143846964      102.45811178525324
H           95.19852903837599      106.15665743355790      102.74131846827240
H           94.79466075438138      106.03970110841418      105.20796010217421
H           93.10893917125544      105.62651154008661      104.89733463134489
H           92.77436180986498      107.80559348261421      103.75848923286193
H           94.48345070636393      108.18056574079814      103.95025861386536
H           94.17533926933345      107.97152057194151      106.45968656055555
H           92.43857677177758      107.84708486253386      106.18919988083711
H           92.46149289913629      110.09664943387848      105.10193850502023
H           94.20507505344027      110.17910582368303      105.32761945966607
H           93.78108828233206      109.91142719380724      107.84334385396140
H           92.07155883857770      110.15366814632677      107.50256907562122
H           92.61986805020088      112.37342083971741      106.46862023684528
H           94.32131500422607      112.10094352184726      106.83843776961237
H           93.72778898517434      111.95395911570535      109.28029689617024
H           92.05705532281763      112.31723096052289      108.86249359776974
H           92.99340415681229      114.36711932858353      109.58568637267939
H           92.87669699370109      114.49902262838476      107.83256911921136
H           95.29926544681520      114.01508995044402      107.62375961081977
H           95.40620607204244      113.75006603647984      109.36501995367654
H           94.73160276272209      116.10967631882394      109.76380990201829
H           94.63645164959547      116.37732445018008      108.02540773729069
H           97.05773441270354      115.85353969929140      107.80777569906843
H           97.15761092735467      115.56180783657381      109.54285003475169
H           96.49094703658794      117.90975705963041      109.98953650123349
H           96.35623108595561      118.20853891583174      108.25893232614889
H           98.78317776237687      117.70117474409605      107.98820571053635
H           98.91557663112000      117.43062506989827      109.72790026924142
H           98.23641573080741      119.77044615658703      110.16101425223482
H           98.00661018164658      120.04094747570787      108.43571271223863
H          100.43065689630302      119.60494571693249      108.04819644574535
H          100.66051354191498      119.36838445502455      109.78023289936704
H           99.90884475788357      121.69320476710681      110.20968674605503
H           99.62586729692842      121.92928993535782      108.48682684327633
H          102.04443582096974      121.54626641499532      108.03698180809268
H          102.32945618820466      121.32509894419148      109.76230415597591
H          101.55652684386713      123.64532703228419      110.19682534987034
H          101.22248725177835      123.86259658157960      108.48060571069149
H          103.62722257613964      123.48802394041878      107.96241396857113
H          103.96576965834166      123.28003132427469      109.67830856491780
H          103.27541236477082      125.60283154326203      110.13108242368304
H          102.81086273984312      125.81994406823189      108.44460751801277
H          105.13426915943634      125.41949932283462      107.72687998177744
H          105.62781639412145      125.15271606975918      109.39679692585410
H          105.01560819221356      127.46956747405994      109.97854746959810
H          104.48781043874462      127.76961402916386      108.32361878717073
H          107.32173916200341      126.92590265987702      109.05456984346995
H          106.82184333695443      128.60915830871076      108.93395497007799
H          106.17349374450612      128.29854761548998      106.58657437190089
H          106.64896392505258      126.60715404033732      106.64151577987192
H          108.56100142648563      128.90369499832497      107.21126301222243
H          108.31403971108904      128.24463473360214      105.60058943941534
H          109.37963865683712      126.72173116326262      108.01298711989236
H          110.33701658146144      127.36865788733986      106.68576208072324
H          108.27832499627519      125.12759452796756      106.50179008827477
H          110.02743302105009      124.96197703362056      106.47772335764468
H          110.10430899940293      126.28109216948187      104.34717655981073
H          108.34146079329624      126.36135815040529      104.35992531293192
H          108.27050516560902      123.84454556192972      104.39266481625691
H          110.02258072796847      123.82779863985506      104.19367210614115
H          109.79184279562614      125.04137686672532      102.03425876362535
H          108.04552460676136      125.12281507439232      102.26251297470213
H          107.96418235492382      122.61618490342615      102.31341582346558
H          109.69275061827943      122.57779155070476      101.96470079052217
H          109.33100450134631      123.64899107131360       99.79097291972333
H          107.62467116260852      123.89170398894960      100.15126750117247
H          107.27825094943769      121.44148857634630      100.27112025238935
H          108.98686009068692      121.16918811458130       99.93788094395299
H          108.73380149429961      122.25072647866315       97.71358586811959
H          107.03523656778006      122.56758603396075       98.05456802929969
H          106.60587250289977      120.13308825557355       98.24746792752862
H          108.30651522234707      119.79864314795523       97.93512025827079
H          108.09530763639171      120.82405707807206       95.67477402374703
H          106.41484499867428      121.22460726837697       96.01635553743158
H          106.23765566834764      119.24761195108866       94.74965872912637
H          106.04094056401476      118.71362689363575       96.41394194226007
H          107.51533497366833      117.11765088570185       95.61103557364879
H          108.65980006010135      118.27470739236878       96.28172068835843
H          108.82192755824619      119.30120019653192       93.94620045513794
H          107.82809188529447      117.96707491253723       93.36716533451592
H          110.60750166514521      117.79072712056708       94.60851671225956
H          110.16561328196815      117.50190353867211       92.92893045025586
H          108.68684981933944      115.57902360024305       93.77460269830637
H          109.45693496313010      115.80232307957874       95.34642104450904
H          111.69019253246005      115.41801381890934       94.27787843553506
H          110.87956833897002      115.15580773075970       92.73451665991550
H          111.33286818443759      112.99682627867668       93.60070453445952
H          109.59998256441231      113.24777999778243       93.81770599941424
H          109.97661549578439      113.78606354350879       96.21414419836438
H          111.71714477291857      113.63531763460725       95.97497607762277
H          111.46250978160082      111.25043113487492       95.41271476407550
H          109.71710683648223      111.36681738496452       95.59364350876287
H          109.95390328687660      111.94372958416966       97.97179260692975
H          111.70833134853694      112.01659337094145       97.80560224313807
H          111.82056237007525      109.62619946776596       97.32460327081668
H          110.06189118529049      109.50362362016136       97.30502634570425
H          110.96140161562616      108.62925936730497       99.39608009497468
H          109.94656107314053      110.03626060613139       99.69647914916447
H          111.90746092007474      111.45488225301311      100.03117289471324
H          112.98786395031935      110.16051810146280       99.52470195538962
H          112.36533120799311      108.81965146176265      101.48646151707844
H          111.14213362596105      109.99930797016803      101.94888446011335
H          112.90393940322309      111.71477216429302      102.28853914509297
H          114.13959151459852      110.55453929918505      101.81671621974387
H          113.54690901842405      109.11535520867645      103.74448098986331
H          112.24535706493947      110.21888506331656      104.18464109048315
H          113.93614573889697      112.03964193187277      104.52248944171494
H          115.22080276520956      110.89542152703346      104.16097215177983
H          114.56661365213959      109.50506987787388      106.10046131589999
H          113.20250624179442      110.57271465576324      106.42415454744420
H          114.84044784956816      112.46641732247602      106.77389443509462
H          116.15531153595346      111.30918891318753      106.61018440105990
H          115.27417894157783      110.02382333531639      108.54627144114897
H          113.92603630359729      111.15029568092964      108.68737362918353
H          115.56021858746564      113.00612208221445      109.11810890907289
H          116.87396629866731      111.83796397528094      109.05958123247355
H          115.84295517970430      110.59134971586720      110.95887161351531
H          114.52768530740465      111.76572812380735      111.00697309358107
H          116.18999803384391      113.56866981594123      111.51052943550221
H          117.47219046814170      112.36390653941316      111.52860134233516
H          116.37549312895595      111.18385172249647      113.40419217178828
H          115.02292897649305      112.31126029461238      113.33629761549005
H          116.53603984344785      114.17851287087444      113.95376057758233
H          117.90912341055633      113.07541375185481      113.93747718220268
H          117.30179266424493      113.37254548120828      116.22490751758680
H          116.79928913643302      111.74495052229742      115.77235276868045
H          114.45230031022908      112.60116057110440      115.45994792122788
H          114.98943683444681      114.19301645216480      115.98821191026464
H          115.66838737141144      113.23053726537657      118.17613287524914
H          115.18326214905187      111.63014061064757      117.62428346338965
H          112.83856662531258      112.42481725020448      117.37647015625092
H          113.31481968708364      114.01553945234460      117.96395447350956
H          113.98346611939151      113.05354636515565      120.12900774926733
H          113.66157456977085      111.42333306401096      119.53814742487577
H          111.26613720745233      112.00558898694054      119.23303985829827
H          111.57227063928963      113.61620397979758      119.88106024035839
H          112.12293434071977      111.04699970567381      121.41034815108534
H          110.59542942752780      111.92422678499076      121.50229830779341
H          111.78482534923764      113.91588701743667      122.36837780492944
H          113.31639457761348      113.03964803017618      122.31409452404075
H          112.37060091829454      111.31422259485143      123.85002752296904
H          110.88428224459750      112.24485564230065      123.97113520823203
H          113.66288210718771      113.17193335943054      124.82222122376247
H          112.41006812996244      112.56590945093330      125.90318629459830
H          112.18918384292364      115.09277516613572      124.21710726790748
H          112.63023909098885      115.04078504222453      125.91808878074433
H          110.44536120259873      114.00457493636182      126.46778332967372
H          109.95986703862268      114.10742193589306      124.77656650792804
H          110.70876829556929      116.52541176345240      126.47034903893579
H          109.06383940173633      115.93337631480642      126.25433894902849
H          109.32912477174166      116.21440665332837      123.76835450966364
H          110.89454083216530      116.97535140955583      124.05155470051318
H          109.81529525832181      118.76292381608943      125.37250750365797
H          108.25027151799367      117.97679238023234      125.18323775663173
H          108.47606829379062      118.20091014622543      122.69346257505688
H          109.96835355931701      119.10819283918374      122.93222327769710
H          108.74655834876698      120.87551822163620      124.12904290583211
H          107.25738444880410      119.93479167024263      124.05986908859647
H          107.26842255156585      120.04155577737522      121.59761451739550
H          108.79046475335559      120.93158589594381      121.62185126962174
H          107.70891875622989      122.78824346252945      122.84415380887495
H          106.17434513245584      121.92216478921256      122.83752496448690
H          107.66729799163296      122.71385973691443      120.29829005653038
H          106.44610660575174      123.72880905812276      121.06297313486790
H          104.75345151403519      121.94954364646878      120.78179030894609
H          105.95606893096837      120.90546827202684      120.02343129882411
H          106.25701786379346      122.52153666769883      118.19189471804557
H          105.09670020717085      123.61888486553471      118.94112363846055
H          103.30940048201089      121.92166783702233      118.70049730228671
H          104.46523415979189      120.78639202231312      118.00440024738033
H          104.84121209997080      122.32379324196783      116.08832098263315
H          103.13492488574086      121.89544485617735      116.22775223753595
H          103.69779105847553      123.47613711617113      116.77534963228821
H          101.62034016807493       92.22325767730544       99.85643183865211
H          102.01803996780961       93.92344399385000       99.61632477533303
H          101.73351135939754       92.87792196332249       98.22310082909706
C          101.90945653413831      124.95604903816152      105.30857264685282
C          101.87316175994111      123.44458544630587      105.12401832779908
C          100.45932130100432      122.88247004155673      105.24898014079628
C          100.43698781869502      121.36820155287941      105.06485279032638
C           99.03425978462667      120.77612610440590      105.17392819973072
C           99.05346277789977      119.26448478331700      104.96512494287515
C           97.66326293987328      118.63564150549995      104.99866245631974
C           97.73248642608648      117.12785998571130      104.77020931725349
C           96.35625154182127      116.47587149883071      104.67537890184410
C           96.46226155176127      114.97349498350523      104.42316301370384
C           95.09788281751744      114.32666859584666      104.20501734431082
C           95.16849866443840      112.80895510671695      104.03760297348154
C           95.84475095989042      112.35017657096139      102.74660624393530
C           95.70301947863831      110.84106852922196      102.55989280924631
C           96.44203349812791      110.32036604643572      101.32929555040094
C           96.16687822489540      108.83515194626064      101.10196814406358
C           97.04181877113611      108.23463667289137      100.00472550121401
C           96.67414094326963      106.78000887285532       99.71583759735873
C           97.72080865700428      106.08247008373768       98.85053627659842
C           97.28114640138907      104.68125492397333       98.42845277980558
C           98.42865600944506      103.83431990920063       97.87683135525340