3795
 energy: -5103.669398466127 gnorm: 0.000922054105 xtb: 6.6.1 (8d0f1dd)
C          128.40964109218942      106.88877166840602      121.24045366293606
C          129.72436275535287      106.25943093274323      120.85369280829050
C          127.90037631484778      107.91191924835783      120.21754013199211
C          126.70634263465938      108.67647256196884      120.78682936003881
H          128.69854849943823      108.61377294983524      119.97602915562628
H          127.61123950204014      107.40080756562098      119.29782394308566
C          125.95216518043898      109.48264046778878      119.73043308846223
H          126.00323935582502      107.97190826455072      121.23573911490557
H          127.05089948383895      109.35903142305672      121.56635291715453
C          126.75303589851437      110.65862211099507      119.20711804543039
H          125.68399631758834      108.83933381472310      118.89660223703667
H          125.04554798411567      109.88056797294675      120.19042669079984
N          127.10121320628166      110.55962930218573      117.91954674598669
O          130.70403136697956      107.12765546558067      120.78077310489857
O          129.86618312599708      105.06666655733237      120.66878464703866
H          131.57862168633244      106.71230794401626      120.50286251068694
H          128.56852797148062      107.40125216596063      122.19262534112568
H          127.67636673942289      106.09278213539919      121.37561482505211
C          127.77415133855922      111.63272103689960      117.21904007408476
H          126.79712636360587      109.75895145550163      117.38319728371690
C          128.48094854540602      111.14244518313538      115.96108078997068
H          127.04860925909551      112.41522482092056      116.96914363032438
H          128.49785352386525      112.07620985486182      117.91068799514622
C          127.56156079553827      110.46742454640396      114.94008370432796
H          128.96196649834792      112.00115672173349      115.49589415475117
H          129.25977381833172      110.43364153342505      116.24551224603778
C          126.30879999894340      111.26865426322823      114.58132652592779
H          128.14443143367043      110.27378694565355      114.03875288340426
H          127.23739004675882      109.50201454749831      115.33137459933826
C          126.56678985665795      112.68054243049066      114.05302004307708
H          125.75911254468369      110.71230336337459      113.81946804247481
H          125.67142231136570      111.33170044952463      115.46341769787944
C          127.38757197083777      112.67261507542003      112.75819374919506
H          125.60398517501217      113.15442593457699      113.84907273044253
H          127.06828317687160      113.28810118524135      114.80551935234622
N          127.04930082807792      113.80013019176710      111.92125958020627
H          128.45842334192253      112.68606242153518      112.97806253757015
H          127.16413259889814      111.77695697577717      112.17698563337768
C          126.63870327596666      113.68481674803510      110.66085354063802
H          127.19914822937997      114.72902020082857      112.29980439919554
O          127.04926618159632      111.62761909089258      119.89985200029632
C          126.17707820897685      114.97982612319595      110.03155697998240
C          124.79531038872331      115.36659169667216      110.57228220947989
H          126.89800489928844      115.76092017666414      110.26418997589273
H          126.12568144662814      114.85066428694603      108.94963633386578
C          124.23257628280618      116.62423576470958      109.91220306533531
H          124.10684205706706      114.53833770257776      110.38761356025337
H          124.85648760557748      115.51303265721370      111.65221572814137
C          125.01106751329095      117.89274988886800      110.25358800801081
H          124.23766587186921      116.49780995951305      108.82867772481359
H          123.19571632118053      116.75603447422951      110.22795065248755
C          124.45221156881809      119.11231170877019      109.54600254636992
H          125.01790156520781      118.06101376865624      111.32968966929336
H          126.04977302070745      117.79196232966041      109.92902375149347
N          124.84172247881213      120.28783028364248      110.04790441131659
C          124.55095093576483      121.56245929354989      109.42009636715265
H          125.34387891233447      120.33428233576633      110.92510635373509
O          126.59315666526979      112.60242196602923      110.06902203073606
C          123.10417325413370      122.01514340398268      109.62989886285052
H          125.23679143076068      122.29412910526335      109.84904108657511
H          124.75787229504965      121.48991960805431      108.34896662855850
C          122.88210307866949      123.40565333369204      109.04144634697043
H          122.43627375619334      121.29588644264868      109.15481111461574
H          122.89486263045048      122.02706560646752      110.70026688020215
C          121.42470523334153      123.85686288487055      109.14797187199848
H          123.52186407992016      124.11840327202809      109.56575929800492
H          123.20066772096115      123.38875470542584      107.99933646085205
C          121.21443342926850      125.30827306457068      108.71166348982283
H          120.79061510301128      123.20666106141057      108.54377539130985
H          121.10022557599564      123.76229441991150      110.18462821722983
C          121.50474065950847      125.51319909651893      107.22826073903086
N          121.36661773383845      126.89951671245780      106.84152527981080
H          122.52225811677411      125.17879837052831      106.99718881432868
H          120.80023184296249      124.93942388853119      106.62455447725053
C          120.70218017566259      127.29529545795678      105.75337427314889
H          121.90279317475142      127.57997713611225      107.37306305129054
O          123.71718570358989      119.02394284450834      108.56467982913679
C          120.75646924028497      128.79023667513752      105.49860746627854
C          121.85122362609070      129.13373187409258      104.48035506702421
H          119.79067303092691      129.10404001525430      105.09966174965456
H          120.95108329209967      129.31194799182086      106.43511857326855
C          123.25046314534252      128.81768626410312      105.00543484845129
H          121.66711269197194      128.57941252307396      103.55869375384022
H          121.78611912696215      130.19877754520445      104.24860196208651
C          124.33591164427152      129.21901227179214      103.99870320611882
H          123.40713481877174      129.33735300271596      105.95246821587912
H          123.33903144793868      127.74915544799410      105.20462201949850
C          125.70600534782139      128.98155504937444      104.59942266775482
H          124.24018919094523      128.61071869933880      103.09858646012296
H          124.22277074121503      130.26850725595139      103.72555913634532
N          126.17757599539041      130.00320246897664      105.32562115495992
C          127.41852859577493      129.96193417230336      106.06826223045881
H          125.62628098698313      130.84286318095187      105.41349782297132
H          120.17999125891339      125.59801035911994      108.90670851165453
H          121.86341690362758      125.97061219981161      109.28888032859540
O          120.10089928404305      126.51945001007249      105.00959183710560
O          126.32841731393532      127.93375906983081      104.45367073745170
C          127.20806035507880      130.40547404384245      107.51402562461244
H          127.78240638459808      128.93274871127380      106.02429505775875
H          128.15861772129463      130.60839228223995      105.58389628854590
C          128.49017441476150      130.27250998705208      108.33187892609837
H          126.88071997617342      131.44744161472661      107.52280831420754
H          126.42126099014246      129.79946434175838      107.96778314658212
C          128.31201283794181      130.83053984097674      109.74232898672456
H          128.77416977668159      129.22108204713965      108.38285475732103
H          129.29657007620915      130.81239601556479      107.83129422991935
C          129.56257010305112      130.67450925809990      110.60796135480261
H          128.06512989078550      131.89166999340091      109.67037354285851
H          127.47661488640377      130.32351136896222      110.23015795986970
C          129.78213624813242      129.22904508859702      111.04711641323406
H          130.44281019852326      131.02671210273820      110.06652173009535
H          129.46373307993417      131.29102282875724      111.50311451379676
N          130.81715060057198      129.14919475169032      112.05269644985404
H          128.87253114424809      128.82114489793250      111.49397195387044
H          130.05175151327811      128.60644024064464      110.18680849634569
C          130.72507848592335      128.36743733417811      113.13218237924056
H          131.68521182986117      129.63677134803297      111.84964786794616
C          131.91569328714928      128.44523890107271      114.07116542220811
C          133.14372298707985      127.73707624203290      113.48084919697530
H          132.15755858832708      129.49229499541588      114.25410124158681
H          131.62111116082988      127.99788313206830      115.02090954827918
C          132.79608806068251      126.41738911559582      112.79246590157679
H          133.60106300525973      128.39768037312297      112.74533053765384
H          133.87090749027462      127.56118210594798      114.27500039088450
C          132.20403659383538      125.38200077903483      113.75666696588240
H          132.07449198556066      126.61769917794688      111.99693338285866
H          133.68810283280828      126.00361324744492      112.31842043035557
C          131.34841779905932      124.39272714651055      112.99168635752396
H          133.00036503192032      124.84378790599671      114.27081005089299
H          131.57625832316896      125.87791914425578      114.49348082483603
N          130.07365685516442      124.76243021085341      112.85185700143316
C          129.06924609502616      123.94571081062846      112.19888315432927
H          129.79338208604770      125.68883247665632      113.16088159428013
O          129.76203167919465      127.63544155105185      113.35159956909571
C          127.94945923898052      124.79343078962262      111.60809245900437
H          129.56248665174908      123.35525572035333      111.42005406206863
H          128.65186976804932      123.24650863996821      112.93520040456950
C          128.37881981490744      125.52969007967823      110.34205391882584
H          127.10871595161352      124.13544458456388      111.39112929120833
H          127.63333438875931      125.52756581010145      112.35125939077136
C          127.35798650083974      126.57495663202241      109.89223712586620
H          129.32792980153110      126.03412913325141      110.53948704562676
H          128.55105883739361      124.80708251772755      109.54103808780988
C          125.99092592151469      125.98222510254209      109.54829773043662
H          127.24547620149650      127.31563184907449      110.68567266843669
H          127.75463205792495      127.08397148562625      109.01117793517381
C          125.10456173403753      126.97782859284366      108.81063461585184
H          126.12259979626100      125.10901359633580      108.90683118603165
H          125.48782279368881      125.66681158891730      110.46242104188423
N          124.71089827038479      128.08429902357466      109.66362467274062
H          125.62944362668642      127.36311384325427      107.92669972769936
H          124.19473318051878      126.48579215815988      108.45323987174346
O          131.79926997187093      123.34315155950601      112.53766366354400
C          123.70615012855187      128.90559753867709      109.34951844835446
H          125.22931756357852      128.22746102855066      110.52031665073824
C          123.44242964208105      130.02239708951993      110.33559699115150
C          123.81679399959657      131.37374975842260      109.71862834051994
H          122.37714002505447      130.01402134996462      110.56713790460003
H          124.00782925421801      129.86065698265853      111.25243902062053
C          123.60406658452987      132.55350698577683      110.66841113264262
H          124.87315969938155      131.34595232354206      109.44161141454425
H          123.23320769849089      131.52169048052068      108.80706844365075
C          122.13376082609082      132.86377854084392      110.95519895689317
H          124.10359947155128      132.34303290901826      111.61337848556047
H          124.06554658386921      133.43862224983914      110.22727581418681
C          121.50618429461073      131.86768921275871      111.91317331561832
H          122.05413290410640      133.84922709352162      111.42269078149739
H          121.56325531082383      132.89136843162331      110.02631022191804
N          120.21214494644096      131.61395640487399      111.67890955423647
O          123.03804756317928      128.77524520960867      108.32351789871991
C          119.44422823935470      130.62591022496954      112.40610568948611
H          119.70240282124675      132.20999578213696      111.04603176291540
C          118.41266638167434      129.97253715100459      111.49062357527329
H          120.15904574724941      129.89037630607771      112.78281090436985
H          118.93957150797745      131.08904602937486      113.26236516723394
C          119.03969317083450      129.37120270675635      110.22948330572230
H          117.89907247889238      129.19793739650032      112.05893766398722
H          117.67523154635916      130.72725308123921      111.21183107105506
C          118.10086575044653      128.42981493624666      109.47098915224745
H          119.35269520528239      130.17678519306440      109.56244488523089
H          119.93510887679335      128.81122030807907      110.50650252876659
C          116.74060486842275      129.05390514446935      109.16661704261399
H          118.58039909478400      128.13373849017205      108.53530025797903
H          117.93673881876792      127.52506061558969      110.05624160455145
C          115.82203302882934      128.08453766874487      108.42550572062387
H          116.25567328483770      129.30783256259110      110.10894537146646
H          116.86376751095641      129.97280233134438      108.59049653757658
N          114.43559190283233      128.44884010779600      108.64441175923925
H          116.01041628843093      128.09414176233670      107.34855644404341
H          116.00762709167442      127.06904038555814      108.79210997527517
C          113.41419456362534      128.13170239734390      107.85036192246716
H          114.22974768799756      128.89758996973262      109.52923072704090
O          122.13042184193876      131.32810404293338      112.82040302738105
C          112.08062458399127      128.69454912924996      108.31697792598611
C          111.49224657093295      127.94240980305069      109.51605720315129
H          112.23438882977359      129.73824150128200      108.59636824484548
H          111.38048307307413      128.65683998928009      107.48102633201576
C          110.31913861534615      128.71985748468811      110.11815638678108
H          111.15736977440243      126.95545951095632      109.19280925330982
H          112.26120183928228      127.80610131019515      110.27742285577126
C          109.41905687389631      127.87075893303522      111.02314519060567
H          110.70815140322938      129.56559037094718      110.68759916863917
H          109.69756203616035      129.11614915257428      109.31240967173393
C          110.19091057930429      127.19075735489713      112.13487530041971
H          108.65808157079663      128.51653178334712      111.46451012939536
H          108.92081003006430      127.10535724446532      110.42604447415185
N          110.53694761493597      127.98683090059376      113.14971347888896
C          111.25984890827479      127.49729416059188      114.30743788779931
H          110.13540948457353      128.92062497608691      113.19884399972889
O          113.53555021497654      127.47808034437983      106.81363771732646
C          112.03051874403124      128.62029099007427      114.99167212897885
H          110.55614831069259      127.04167584310349      115.01602862117521
H          111.93649020289583      126.71149641993131      113.96071918534737
C          112.57106684333793      128.19886384378535      116.35601921777605
H          112.85331609628449      128.92981020591469      114.34859729576586
H          111.35867952698813      129.46980718929169      115.12416908077533
C          113.40150569220647      129.29514325899450      117.02679808182066
H          111.72978222431149      127.94981781840283      117.00562707930314
H          113.18460205980354      127.30354891985162      116.23850083720092
C          114.74748621376912      129.51553756523910      116.33685023346017
H          112.83232579632987      130.22591586997905      117.04834899909021
H          113.58304513837422      129.00877966486701      118.06512317709117
C          115.71404554317768      130.34835312893560      117.17777881127202
H          115.21234816542784      128.55063912704543      116.13631230027156
H          114.61206429296990      130.01641764923676      115.38012523328598
N          115.38097756537762      131.75603544570447      117.12108951045879
H          115.69800354911892      130.00942248682870      118.21799997004257
H          116.73005253416586      130.25280770883433      116.79056277052511
C          116.26016120025895      132.69256754991454      116.75940452969989
H          114.48878068560938      132.03118568821415      117.52061645282609
O          110.47836498572947      125.99511120691655      112.10630383206195
C          115.69117616248191      134.10100849091353      116.73011959115135
C          116.45088370076557      135.09354994075537      115.84535714661703
H          114.64392456335844      134.05508724902811      116.43020779110665
H          115.71781618702293      134.46389414440100      117.76160700560141
C          116.17923673039935      134.94871879987431      114.34462614387789
H          116.13879150740779      136.09851762096497      116.13750992068074
H          117.52037610744264      135.01597020502959      116.04002673069387
C          116.91018924630303      133.79740668493019      113.63776526868790
H          115.10551329680379      134.81973958484028      114.19194252070734
H          116.47293714245174      135.87802740659171      113.84928888216018
C          118.40535894390067      134.06191523730428      113.56455249512250
H          116.71973132367927      132.85163072082960      114.14143538351097
H          116.54277612618644      133.74021144776680      112.61153053492194
N          119.08497995915806      133.66983808503971      114.64095869088744
O          117.43283950707021      132.42972415924228      116.49408832603268
C          120.50168241696215      133.90738540581188      114.81438838525278
H          118.58400941421785      133.19166134745655      115.39171629560006
C          120.98785971967500      133.36660160238506      116.15108882519775
H          121.04700771768344      133.42080999633836      113.99749391879470
H          120.69589006706772      134.98478707175195      114.73680173697407
C          120.38661984542593      134.08558830701941      117.35801595917823
H          120.74227511616991      132.30609779102076      116.20834198607334
H          122.07327485219447      133.46149390628926      116.17108650772188
C          121.08890274303464      133.69002707962545      118.65908273102541
H          120.46104854521226      135.16632958388962      117.21998411979310
H          119.33068239574020      133.82481733726743      117.43457826622465
C          122.44020805641301      134.38159779197878      118.83492770516322
H          120.45149178390523      133.95524093260494      119.50478620612949
H          121.23243735461982      132.60846116089567      118.66798943552261
C          123.21381671054527      133.85786684906921      120.03918252193789
H          123.05664208952645      134.23383931224248      117.94688777915393
H          122.28484605239578      135.45418005617387      118.95896962498824
N          123.68665579089308      132.50945123762639      119.79606048581131
H          124.07055707601596      134.51320226345467      120.24398718444098
H          122.58727197263276      133.84502603223513      120.93603831376075
C          124.17753008394381      131.72485184005225      120.75531944492315
H          123.86732842000818      132.25294271756948      118.82782573332219
O          118.93077047952123      134.60533493437688      112.59097188328695
C          124.80878485497200      130.44449431543148      120.24715865602884
C          126.21268614308569      130.76099491835728      119.72344251938729
H          124.86897777538007      129.71920032402079      121.05942469107151
H          124.20737189727424      130.03818216082976      119.43442341412968
C          126.87408922409088      129.54728043878214      119.07744545687646
H          126.13687530000604      131.55303378264830      118.97651694960243
H          126.83397605597162      131.12257101495436      120.54570333595572
C          128.27264391070685      129.90887392076246      118.56841682056786
H          126.94911621377605      128.73498089374030      119.80199026512926
H          126.25840143654311      129.21495060183676      118.23869112329616
C          128.84208086174144      128.83323352202635      117.66700416923378
H          128.22155689295536      130.83158217786058      117.98753251462000
H          128.94165997324535      130.06044289749715      119.41644054403400
N          129.17010484414720      127.69371001123025      118.28047144424244
C          129.77948644175098      126.57337686160893      117.59413260109982
H          128.98172913096792      127.58842258339754      119.27420495911929
O          124.13334293865789      132.01422885479337      121.95228497076329
C          130.86320099842487      125.93520404820603      118.45793065683827
H          129.01340192866240      125.83132818535685      117.34737313867019
H          130.19281197978384      126.95619641212197      116.65652213995317
C          131.71013761845236      124.90299106114807      117.71061402018631
H          131.52419112535881      126.72392055682060      118.82380565796358
H          130.39231656952779      125.47208632121222      119.32586120748657
C          130.92582476977762      123.76701165940995      117.05316491767056
H          132.28475258923592      125.41343243893573      116.93520816590083
H          132.42275729710514      124.47245721542124      118.41623452564433
C          130.06304206615201      122.96720338882555      118.02584410218221
H          130.29997449534767      124.16376204089427      116.25156429414211
H          131.64328405573082      123.08092207147642      116.59788087093015
C          129.42915904428327      121.78067215075475      117.31330952965179
H          130.68948237008979      122.60521024095632      118.84228652094576
H          129.27842677696060      123.59288990946875      118.45161301374145
N          128.42715101314189      121.13608187336312      118.13888405463450
H          128.95525799635567      122.10965562251299      116.37985601120542
H          130.20679630841732      121.05823636574233      117.04101718809413
C          127.68040654659546      120.12152249392341      117.69622542296021
H          128.27248659572496      121.51480707432491      119.06546416025431
O          128.97596378345139      129.00240434180796      116.45530914540187
C          126.59102310647754      119.66638880125032      118.64379548267712
C          125.38074214550646      120.60675671862883      118.51283739392755
H          126.28733303982104      118.65348713304287      118.37565039256610
H          126.96285541199774      119.66492902323328      119.66651344089851
C          124.05772966392149      119.89368447779734      118.78191791035400
H          125.49509108354437      121.45119839120269      119.19531921871358
H          125.35555299515897      121.00472230073271      117.49649581688884
C          123.81231367039815      119.62436463939601      120.26913999086737
H          123.23420590758063      120.49150498860701      118.38552065015865
H          124.06549945864128      118.93661057287784      118.25908604104478
C          122.59211154354706      118.73774766649332      120.39603560943100
H          124.67460860842851      119.12596184212151      120.70895883563541
H          123.63376500624500      120.56705357947308      120.78813137338345
N          122.85274317254407      117.48463376444481      120.77314945216109
O          127.83886777331840      119.62565171230473      116.57955491461209
C          121.82477029925543      116.47744474120840      120.90431254858258
H          123.80529393581126      117.20623244255276      120.97082703267819
C          122.17044903588642      115.47700538005570      122.00276512378805
H          120.89162238043387      117.00244136882529      121.12039297596087
H          121.70404645865037      115.94631019637390      119.95130087655521
C          123.10467058258885      114.38706043349117      121.48594999621429
H          122.64552266900493      116.00031516089419      122.83436654627974
H          121.25451548925280      115.02635774141548      122.38796187984656
C          123.51453269679649      113.41205773729421      122.58283417695375
H          122.60501238333599      113.83587937282458      120.68788782935385
H          123.99816331542073      114.84680210530331      121.06302714721710
C          124.29660315977340      112.22780215885865      122.02483100481729
H          124.12834109656754      113.93723625079366      123.31841274495815
H          122.61749442055105      113.05235125825152      123.09165856724920
C          124.85423332509984      111.31663227778870      123.12331949592397
H          123.64589425166695      111.63777638635386      121.37338537690819
H          125.13699261400630      112.58642521980484      121.42934673694521
N          123.87111248702813      110.55831084519441      123.88101850781749
H          125.53490785777163      110.59823876858815      122.66310839077397
H          125.43740426319785      111.91890179544330      123.82752902695620
H          123.23151556495780      111.19062493402463      124.34883206509943
H          123.31935506005354      109.98771814267609      123.24465639127462
O          121.45293659030516      119.13295544800371      120.14816116853973
C          125.52388863320743      127.76498021366170      123.87288109462791
C          125.08070704919265      126.63763650034080      124.78158524658463
C          125.30307929765729      129.13994506706368      124.52167101308324
C          123.84606445951142      129.58180382475129      124.43904835583311
H          125.63208538358650      129.10583251892484      125.56338559431921
H          125.92343899758572      129.87139234722011      124.00052623795098
C          123.59472409389519      130.94106243809557      125.10186114262595
H          123.57198660387786      129.65858000457260      123.38532025033997
H          123.20683397270058      128.82817986624903      124.90068201025541
C          122.14157405675302      131.29599633924485      124.85858233159453
H          123.78926336426966      130.88662077540988      126.17356294245432
H          124.24295561586017      131.69107646475379      124.65040633568213
N          121.92041748354806      131.92425342761524      123.70364548953853
O          123.77923689239010      126.54996329076781      124.91329520161919
O          125.86416144981530      125.90730277470664      125.35555425152049
H          123.48823892100687      125.83544297619970      125.58575214764612
H          124.95737440658898      127.69966855054788      122.94441503564420
H          126.58037713549102      127.61770216594033      123.64655047934225
C          120.60529280406287      132.08692011030863      123.11911530111075
H          122.71641860532496      132.08340086160430      123.08859620713091
C          120.51474634035749      131.32535059881513      121.78879609401781
H          119.88976247880949      131.68689274177370      123.84195539450856
H          120.40181845991938      133.15233532966161      122.98119587673148
C          119.14500523841681      130.69890352104574      121.54003976698033
H          120.77357328791025      131.98705398190603      120.96350541291476
H          121.26098337012702      130.53044684792468      121.81393207896714
C          118.07264896952546      131.72580998554949      121.18785794344463
H          119.22490686658870      129.97713859127634      120.72592087243072
H          118.83940301594276      130.14815462338277      122.43221469440864
C          116.71330526412015      131.05208071512604      121.03051802151916
H          118.01576363133917      132.48257659918332      121.97263160270057
H          118.34211164094083      132.22646404530937      120.25580708055394
C          115.61397051141796      132.04961499274680      120.67777686720079
H          116.78401364900269      130.28270218329550      120.26071046208288
H          116.44110095537945      130.56177845591361      121.96695134954498
N          114.30896854770445      131.45347472098490      120.86397065503328
H          115.70155916925465      132.92795164378364      121.33093675743785
H          115.69903497818058      132.38728629203200      119.64336337417714