3795
 energy: -5103.039958495576 gnorm: 0.000977509739 xtb: 6.6.1 (8d0f1dd)
C          128.38610680486607      106.91982812456635      121.23481969947962
C          129.69690208707448      106.28713878611222      120.83567263624583
C          127.86689986628191      107.94152996703325      120.21587620147267
C          126.70201316924138      108.73016103981887      120.81143830091725
H          128.67021030125193      108.62770598348371      119.94634470525989
H          127.54633523862064      107.42622622241322      119.30863813808666
C          125.93368263128701      109.54977511284203      119.77626209921641
H          125.99862997555995      108.03934129054046      121.28123231374006
H          127.08414505073206      109.40656198229124      121.57856842690362
C          126.74780365877568      110.70296497079396      119.22684387901317
H          125.62014672173584      108.91366683933182      118.95220114823177
H          125.05333684694520      109.97048873792242      120.26455228694880
N          127.04759176562743      110.59473764907379      117.92426816600867
O          130.67689955087653      107.15251915204128      120.76722042079146
O          129.82984360588407      105.09642982005349      120.63952112737017
H          131.55366431803932      106.73655697316526      120.48469861365218
H          128.55647518444289      107.43536967441986      122.18370865822520
H          127.65247364058968      106.12591125799797      121.38312310316714
C          127.72974362054670      111.65076270712626      117.21147954932802
H          126.64135487437390      109.84034346090223      117.38856726539373
C          128.45938188576042      111.13220943571218      115.97788960901883
H          127.01328376856507      112.43084682834625      116.92801106017966
H          128.44238366206187      112.10581479988940      117.90700125157223
C          127.55209816799272      110.45381604048978      114.94882619941782
H          128.96393627539524      111.97622495501412      115.50910473393945
H          129.22529302831578      110.41978690079580      116.29081591898499
C          126.31510416465510      111.26416862582806      114.55670667684301
H          128.14931541711604      110.24022531388023      114.06023532278221
H          127.20606555927364      109.49827422716702      115.34710351355929
C          126.59375853632463      112.67706091983599      114.04319976921082
H          125.78492365309559      110.71210067031606      113.77709604047266
H          125.65091945001367      111.32273363169571      115.41982043213774
C          127.45343415121802      112.67600185023737      112.77326854827260
H          125.63790142631011      113.15422274310906      113.81440597613717
H          127.07296025437549      113.28027868121274      114.81435367572365
N          127.13073949062836      113.79658789220935      111.92502253110084
H          128.51678670413014      112.69679236715164      113.02721298640814
H          127.25472882744040      111.77697812167405      112.18777787588982
C          126.68173663110865      113.65667133248000      110.67827125804634
H          127.28354972123358      114.73128125540539      112.29260903261671
O          127.10566984840088      111.65556027227863      119.90537579409884
C          126.21586402676553      114.94192910826143      110.03541288701810
C          124.84901044550867      115.34416716512149      110.60060320543830
H          126.94182092958508      115.72551488903224      110.23954520295989
H          126.13753100403243      114.79358176070379      108.95738276510427
C          124.28607574571414      116.59892736419063      109.93621811573088
H          124.14708042876801      114.52091978707504      110.44256465770667
H          124.93269715735079      115.50489534671657      111.67706662991115
C          125.09879047459037      117.85745949498387      110.22904074744437
H          124.25127169519699      116.45260558808504      108.85531412869638
H          123.25997372927922      116.75372294467594      110.28050465224712
C          124.52246275475540      119.07727768232830      109.53674621514521
H          125.15624935564304      118.03187604826687      111.30280336958607
H          126.11862822175942      117.73563249383264      109.85591539593140
N          124.97759346637031      120.24929987344832      109.98873952935023
C          124.65957596105584      121.52517470719977      109.37892507321924
H          125.48503010004413      120.29895253262703      110.86284210996881
O          126.61192697762962      112.56402047225882      110.11496083266316
C          123.21301833119620      121.96045552081593      109.62459663597201
H          125.34351999254058      122.26010419607438      109.80325474181048
H          124.84035719421821      121.46778777118246      108.30335417846818
C          122.96677749991458      123.35775086407016      109.06352952462930
H          122.54090479148243      121.24289167484966      109.15164844047840
H          123.02022716690169      121.94728406799722      110.69990111644101
C          121.50263574465048      123.78339245768831      109.17583558885416
H          123.59245555282814      124.07217884279947      109.60282416970401
H          123.28680800573923      123.36421271439823      108.02262310116087
C          121.26446322311085      125.23084451516250      108.74166052801213
H          120.87655881987432      123.12123506126262      108.57534141403885
H          121.18018268543416      123.67878146228037      110.21423599825251
C          121.53950320401438      125.44350817115084      107.25628180998504
N          121.36555307582766      126.82604308984440      106.87607393212109
H          122.56217604021444      125.13007132118909      107.02007206473066
H          120.84101907555906      124.85616421256914      106.65883045328621
C          120.66204945887559      127.19980781711395      105.80203069096140
H          121.89510300496632      127.51809209198861      107.40056052024926
O          123.72908835353300      118.98745086372901      108.60218947165430
C          120.67145829400235      128.69595442380867      105.54501793643180
C          121.76103832665056      129.06950795337656      104.53202883282881
H          119.69863112932121      128.97939554645663      105.14012790174340
H          120.84426235661704      129.22644585626315      106.48141035358579
C          123.16575974419526      128.78609300874047      105.06046649895961
H          121.59387892919383      128.51268371407903      103.60855798311970
H          121.67072210511108      130.13376114903002      104.30026081277063
C          124.24565728760234      129.19464842389539      104.05191398740415
H          123.31284779788687      129.31599553026007      106.00362974313339
H          123.27386458799636      127.72147432970405      105.26826819841160
C          125.61781452145719      128.95039067727694      104.64695235472841
H          124.14737633553487      128.59162078450845      103.14848746432190
H          124.13263850116509      130.24679561828421      103.78387098039245
N          126.08907017016300      129.97357821838349      105.38136383508852
C          127.33783200544991      129.92889195420094      106.10781954056971
H          125.53257706210168      130.80727090253694      105.48301941536215
H          120.22730656313654      125.50257902242923      108.94871806668597
H          121.90680214338224      125.90290928388127      109.31585444074659
O          120.06973035322149      126.40725611007939      105.07662237760299
O          126.23898822512504      127.91200414013318      104.49678445639991
C          127.14912936400593      130.37877840357157      107.55386671013912
H          127.69205790525089      128.89651754364911      106.06139642507827
H          128.07766158714080      130.56895801438682      105.61197298206527
C          128.44137394160677      130.25692596234339      108.35660141909284
H          126.81474684129337      131.42007161291167      107.56163131836877
H          126.37001348850255      129.77351963916672      108.02187402293531
C          128.27111007081783      130.80721470515857      109.77081983407729
H          128.73538401123088      129.20802334518854      108.40080950940984
H          129.23722643660008      130.80593326802750      107.84802661093876
C          129.52597640919231      130.64710074105426      110.62875389662682
H          128.01850855770149      131.86847561266140      109.70458461567981
H          127.43714123206200      130.29522645001944      110.25595027656981
C          129.75027611182057      129.19963499683655      111.06091954155090
H          130.40148387305234      131.00522309130761      110.08357168547093
H          129.43012287183046      131.25995044061540      111.52657756098112
N          130.77391110623958      129.12611347122234      112.07541228427841
H          128.83919238817899      128.78377084623884      111.49701414855006
H          130.02864638730071      128.58513227492071      110.19732859331575
C          130.67341947392362      128.32500840108375      113.14177037879068
H          131.64647989133761      129.61247171240746      111.87795998653127
C          131.83827037946395      128.42081914099083      114.10953306219201
C          133.09979100559795      127.75702778891645      113.53872753511999
H          132.04551626618164      129.47159881657427      114.31351705997369
H          131.53409646539808      127.95199656421765      115.04539290683427
C          132.80487001404174      126.43548666722064      112.82910884322625
H          133.55354817064594      128.43962961557671      112.82179904879517
H          133.81571290870843      127.59323880433378      114.34697571782314
C          132.22691567175255      125.37426611697919      113.77423928562636
H          132.09306683540922      126.62424262423013      112.02302399345950
H          133.71799386065675      126.05421169949874      112.36826233890817
C          131.37947171071471      124.38421000974337      113.00258316679766
H          133.03121650490175      124.83654625519006      114.27727289729872
H          131.59620443450177      125.84980902318983      114.52183089425515
N          130.10657166238258      124.75622147141206      112.83993490809172
C          129.12448089172909      123.91915969357422      112.18052845514183
H          129.81461315510035      125.68435105755802      113.13859144924793
O          129.72404322532776      127.57044013655756      113.32456080779461
C          127.99219282195087      124.74433593122262      111.58136622415402
H          129.63365318845933      123.33865913540377      111.40482594775943
H          128.71175047265359      123.21277330975151      112.91339801969319
C          128.42093920053404      125.50208759266671      110.32796119717372
H          127.16727230496986      124.07043849771424      111.34869353957828
H          127.64865885165158      125.46541895296831      112.32464609524601
C          127.39310924914727      126.54695957108177      109.89413928529922
H          129.36279357105710      126.01257690449950      110.53851305016254
H          128.59965266708832      124.79486252397942      109.51569905129098
C          126.02667042296753      125.95280272010348      109.54983793911606
H          127.27533429039509      127.27809229076983      110.69498307163470
H          127.78093033232751      127.06968526033495      109.01652509306793
C          125.13708413054566      126.94948175647946      108.81765113085221
H          126.15419556115775      125.08018734116189      108.90715823915225
H          125.52408015152798      125.63417909617185      110.46410946546941
N          124.72464520738447      128.04320850985951      109.67817827166132
H          125.66490819039446      127.34986992713816      107.94215775250908
H          124.23434397994697      126.45386857322644      108.44625897935641
O          131.82826318264833      123.33049603897962      112.56660989779493
C          123.68616201554094      128.82674322701331      109.37404620528612
H          125.22959017564646      128.18770779490134      110.54506257871908
C          123.38532550071871      129.92475315955159      110.36966026514732
C          123.72393600959315      131.29498101109328      109.77351438278669
H          122.31957041645512      129.88253069361667      110.59434633455116
H          123.94965389551973      129.76677802603680      111.28766596729595
C          123.54627277003128      132.44787309718450      110.76344442597021
H          124.76923706709296      131.28314413801641      109.45364839196284
H          123.10536234164977      131.46243732965112      108.88838672916533
C          122.09172843367828      132.76362486825155      111.11328770456069
H          124.07730956673362      132.20455360951368      111.68169418594347
H          123.99930061424931      133.34384025772374      110.33300569627514
C          121.46799382518137      131.72525186451395      112.02857937199896
H          122.04367661091098      133.72509360674107      111.63159694785229
H          121.49162180483235      132.85033525143828      110.20653036587636
N          120.14666215269870      131.57610405617078      111.85695353808265
O          123.02148120710075      128.67906513840506      108.34996239114822
C          119.37146831373114      130.55431324720902      112.52091500615185
H          119.63155993800206      132.31068247455801      111.39259659639299
C          118.34833955516888      129.95325287915387      111.55875136080419
H          120.08145116049066      129.79554496582543      112.85930688180856
H          118.85587147622401      130.96401662258376      113.39751122856255
C          118.99054219957483      129.43184480394777      110.26960393093802
H          117.83324890537116      129.14405946971931      112.07511656376629
H          117.61174199949339      130.72163513498231      111.31844359935087
C          118.08648858168701      128.48626740476180      109.47476967114638
H          119.26917294423745      130.27957898288204      109.64050729683424
H          119.90901823129609      128.89538846645146      110.51872693875087
C          116.70299401731815      129.06932156612982      109.19553101080223
H          118.57634214346920      128.24339633977024      108.52924114758763
H          117.95945658090025      127.55397992553297      110.02597427713098
C          115.80623293105337      128.07894699178709      108.45565682742760
H          116.22501697874344      129.29845110259811      110.14776160910179
H          116.79007548671188      129.99875008584476      108.62936459779178
N          114.41262153089976      128.41317802757456      108.67299346129781
H          115.99445792832675      128.09376787356408      107.37903082275747
H          116.01720291150646      127.06855908542016      108.82287842732265
C          113.40273565825537      128.03776149313461      107.88380879070520
H          114.19134157881489      128.85862192681793      109.55485714246815
O          122.11007895862159      131.06346507670466      112.83419255688396
C          112.05031854173490      128.57116306419189      108.33326532563811
C          111.48698599408348      127.84125635887770      109.55761042008601
H          112.16769835493557      129.62944148011417      108.57482226642357
H          111.35230580605855      128.48032061379760      107.49949072066389
C          110.27940987702384      128.58985303342607      110.12847758275720
H          111.19513139651264      126.83035436619669      109.26860298170490
H          112.25568759977408      127.76466938903887      110.32716473402186
C          109.39311939970808      127.72367703104587      111.03170644028809
H          110.63140620949996      129.45690497852965      110.68966082974485
H          109.65649324209106      128.95162245088082      109.30769138808073
C          110.16829208115912      127.06729627139643      112.15225350113786
H          108.61293154418844      128.35270173711260      111.46276801997934
H          108.91967961215498      126.94382080303805      110.43403211380581
N          110.53035848767617      127.88699954077235      113.14590408961239
C          111.25423213059810      127.40677609039344      114.30407807266980
H          110.12319984775826      128.81946254727623      113.19316888786251
O          113.55106901501264      127.36447479820342      106.87076910194710
C          112.02645177851610      128.53432418756859      114.97894230931965
H          110.55576964898387      126.95413510109587      115.02174150190217
H          111.93213841970113      126.61879866167001      113.96397534118503
C          112.56730768782236      128.12410029517176      116.34590276040615
H          112.85044777147523      128.83635881299196      114.33427581885988
H          111.35654114560191      129.38615954424023      115.10750567201693
C          113.39198302804765      129.22754915102780      117.01196259193368
H          111.72640887004816      127.87285975806248      116.99775159590273
H          113.18377597553338      127.22881397972820      116.23588077185033
C          114.73206910374535      129.46325733244370      116.31478115856801
H          112.81257956340869      130.15206297860044      117.03857676235960
H          113.57981278151607      128.94286272386810      118.05051028521046
C          115.69443279010484      130.30105725417917      117.15530131750752
H          115.20350350282435      128.50370065205067      116.10246927490903
H          114.58340601153365      129.97074226484611      115.36362211290026
N          115.34111413248087      131.70289903676280      117.10402699386738
H          115.69010180322846      129.95063806556826      118.19250170364128
H          116.71017089042893      130.21962585342169      116.76227558677769
C          116.23765420106142      132.65511961279768      116.82451791157196
H          114.43431591191599      131.95699698341986      117.48745869374362
O          110.44893660770256      125.87120844881792      112.15552737854561
C          115.66054931101820      134.05850891510019      116.75376433639256
C          116.41193797637983      135.00819372323971      115.81530567537656
H          114.60836437317070      133.99994174790504      116.47189389372257
H          115.70534425867638      134.46435323986057      117.76882013070170
C          116.15233657036717      134.76962587672290      114.32458888375902
H          116.08446388500802      136.02492639971845      116.04626172153020
H          117.48021565593147      134.95544419300373      116.02234163743030
C          116.85954244729129      133.56043366341709      113.69506581143038
H          115.07551224016142      134.65630658866527      114.17254356224504
H          116.46835241309280      135.66047754709692      113.77598503694394
C          118.36015031964352      133.78711667821548      113.57070453878201
H          116.65712022882019      132.65382382991115      114.26286481319305
H          116.47508871437452      133.43548493833975      112.68123063764904
N          119.04052544308266      133.56952147019874      114.69956249525707
O          117.42643837728544      132.40974433106845      116.64755655087129
C          120.45773532258056      133.82644701770778      114.83250430421730
H          118.55516702626690      133.16019606249444      115.49594243288882
C          120.98414632094652      133.30763228584280      116.16322722852951
H          120.98685777674689      133.33800578619545      114.00718495823581
H          120.63725036014110      134.90587686467109      114.74457702616839
C          120.38715457209976      134.02085723352701      117.37616946316095
H          120.76525366329520      132.24192013851513      116.23550216047931
H          122.06716288663202      133.42841151757082      116.16509248750151
C          121.09811459640147      133.62609404000057      118.67258926244325
H          120.45465445491415      135.10284618259925      117.24059216379868
H          119.33330885715624      133.75427180323001      117.46199634043262
C          122.44723283069683      134.32104241418574      118.84839287910130
H          120.46147048790068      133.88349772204248      119.52256345734392
H          121.24647553619953      132.54478810314342      118.67805566840495
C          123.22410054419471      133.78942435133797      120.04752362323065
H          123.06016860955741      134.17783428526869      117.95737150113659
H          122.28840824612898      135.39334177288418      118.97709925881406
N          123.69223951835973      132.44363159124271      119.79531070144587
H          124.08131194287716      134.44541831000518      120.25070655771607
H          122.59962319486381      133.77486783947506      120.94638247379957
C          124.14001558311361      131.63626218821886      120.76108907507788
H          123.89597295527484      132.20064990533521      118.82841834805507
O          118.88111728241650      134.14596959472306      112.52254589224070
C          124.78668934028686      130.36402502230806      120.25232831814128
C          126.17512061133199      130.68849262998555      119.69241067397061
H          124.87222725881563      129.65023478305861      121.07229058570069
H          124.17177368095213      129.93737058709155      119.45867926797749
C          126.83579259094381      129.47028967481316      119.05321875650385
H          126.07382410968550      131.46623256693110      118.93402382959067
H          126.80872967498185      131.07032688009377      120.49523162005232
C          128.19985305171073      129.84809508564649      118.46875009581913
H          126.96336462048929      128.68323025499120      119.79743387271708
H          126.18993835910489      129.09829287318513      118.25403469611092
C          128.75713921373426      128.76548502946605      117.56735945729503
H          128.10025504979663      130.75331825689807      117.86708934086531
H          128.90344512341804      130.03843980794457      119.28046007570556
N          129.11529463025343      127.63627629939707      118.18666089810654
C          129.74351986097076      126.53423447118359      117.48920862588787
H          128.95076672470393      127.53319153493733      119.18583782609193
O          124.04072185393721      131.90009261768006      121.95556884213272
C          130.80300111696670      125.87656695816349      118.36792582606326
H          128.98878253626833      125.79539893287905      117.19768682784016
H          130.18130774764305      126.94011855427597      116.57274543925112
C          131.65463978101727      124.84024300245508      117.63166463414191
H          131.46388563735943      126.65617023146481      118.75424732857168
H          130.31160896469251      125.41156022853603      119.22352529928219
C          130.87731239299202      123.69960906623221      116.97320370514717
H          132.23896862071703      125.34715519069232      116.86130921696783
H          132.35964457273741      124.40975486851387      118.34536862676342
C          130.01316738837158      122.90746193733813      117.95098600866072
H          130.25506815310140      124.08837671894256      116.16476448720840
H          131.60170438986478      123.01253336100018      116.53295458332238
C          129.38721991002382      121.70344668864495      117.26056921051828
H          130.63920223716539      122.56192121625452      118.77449114791986
H          129.22227633640202      123.53460840966603      118.36338809377496
N          128.38563701377583      121.07931006062790      118.10429319021357
H          128.90949731767913      122.00703137020378      116.32107578796455
H          130.16681153160297      120.97616407414536      117.01094610612272
C          127.59671940713838      120.09345813942207      117.67178583458119
H          128.26628593166760      121.45211184280959      119.03859200420807
O          128.86019282532891      128.91891575558745      116.35484345019449
C          126.51946318734778      119.66070799755097      118.64423752280223
C          125.31026610598684      120.60452791637289      118.51319847569589
H          126.20562636402555      118.64516241125905      118.39857091975360
H          126.90615976264486      119.67614047988857      119.66159793877598
C          123.98521789611915      119.89094178750122      118.77531672633164
H          125.42177986494636      121.44831864678180      119.19677943846403
H          125.28551230146387      121.00415341122806      117.49765476840798
C          123.73866510144688      119.62332517219737      120.26382714335291
H          123.16290034998386      120.48824452470312      118.37581290615823
H          123.99587012383634      118.93311755918918      118.25450716870252
C          122.54432948648497      118.70743633131029      120.40091536645137
H          124.61299202437364      119.14974354796094      120.70703704319203
H          123.53403690987960      120.56437877255739      120.77440747722929
N          122.84193586256886      117.46431774949443      120.78345603598238
O          127.70875619199872      119.60523382330805      116.54768382503279
C          121.83732216074945      116.43895486087085      120.93614028815080
H          123.80325645911826      117.20988299264253      120.98447374131487
C          122.21878889162716      115.44939532283875      122.03213877102338
H          120.89602435315403      116.94392596163998      121.16688132326533
H          121.70659283918832      115.90101425093040      119.98724290106182
C          123.14000906772664      114.35726787353805      121.49799640678393
H          122.71765325091320      115.98172908618307      122.84302898325004
H          121.31536272212922      115.00239898764943      122.44964485771989
C          123.55199746985656      113.37475273036483      122.58657447863925
H          122.62884392109659      113.81421074695359      120.70067731626845
H          124.02977409227380      114.81506332216149      121.06848654573525
C          124.33480952018162      112.19402238915060      122.02397319877782
H          124.16315024129648      113.89570982698996      123.32587674029605
H          122.65435544710894      113.00872899577443      123.08967453906223
C          124.86781683730631      111.26905607530155      123.12352025291742
H          123.68692188902074      111.61794512569496      121.35656551281730
H          125.18615337679556      112.55343117462556      121.44591436596288
N          123.86869019566055      110.51064111334931      123.85932517841090
H          125.54837230377341      110.54901856598755      122.66783901198387
H          125.44424490718922      111.86198647661460      123.83925475668046
H          123.23685783769834      111.13906294339829      124.34355411499546
H          123.30919665914504      109.96057705807671      123.21064941283282
O          121.39071729666703      119.06898968008228      120.16058600994232
C          125.59264309046239      127.79434906411470      123.88785810343235
C          125.17026861600257      126.67594799269739      124.81677913735811
C          125.31822884481869      129.17342262427337      124.50911452090028
C          123.84313107352372      129.55222986604645      124.42410001345672
H          125.65185376235020      129.17556377400535      125.55002113252485
H          125.90383299846346      129.92060913855585      123.97064485817235
C          123.53016315427126      130.89522744790369      125.09491011169980
H          123.57136051324881      129.62654959344903      123.37004155855229
H          123.23462214430531      128.76952791839375      124.87813452017743
C          122.07149308157746      131.20739560140245      124.83390932803675
H          123.70934204006569      130.83889296992430      126.16951914851170
H          124.15872871373927      131.67174922145256      124.66065998245836
N          121.85018005097146      131.83059360732605      123.67333949152676
O          123.86540674150497      126.52841201973939      124.88750591409507
O          125.95696320218731      126.01063073949517      125.45326360266985
H          123.57956107470275      125.82714401388704      125.55440129675775
H          125.04296633898018      127.69666007821341      122.95211004319394
H          126.65732939017484      127.68247970373397      123.68360262075336
C          120.53422851329398      131.97972259770691      123.09395666319065
H          122.64814068490514      132.00114144522985      123.06153221666924
C          120.44166461053928      131.22178111623134      121.76149107172556
H          119.82446249100437      131.57007201040111      123.81777022766542
H          120.31439892891804      133.04346418683602      122.95754567753811
C          119.06872168444141      130.60458029959315      121.50642667223130
H          120.70708170712741      131.88321288771365      120.93754792107480
H          121.17992063565001      130.42032074930196      121.78540783028546
C          118.00277215678496      131.63754724005159      121.15046023985347
H          119.14495380143045      129.88246531242788      120.69167392129584
H          118.75465124061509      130.05605056663350      122.39731739892483
C          116.63850428670661      130.97248671162450      120.99688464728044
H          117.95035822301237      132.39862768465025      121.93201229826605
H          118.27379872543764      132.13270426905223      120.21556847733483
C          115.54294390230352      131.97148120963982      120.63356460620045
H          116.70600868764940      130.19638323195386      120.23311761845849
H          116.36166654765167      130.49007997642676      121.93639919812661
N          114.23578748610213      131.38241446870435      120.82432426066480
H          115.63175153955663      132.85399944374259      121.28168031898157
H          115.63116561238563      132.30120722480621      119.59745269284427