      -----------------------------------------------------------      
     |                   =====================                   |     
     |                           x T B                           |     
     |                   =====================                   |     
     |                         S. Grimme                         |     
     |          Mulliken Center for Theoretical Chemistry        |     
     |                    University of Bonn                     |     
      -----------------------------------------------------------      

   * xtb version 6.6.1 (8d0f1dd) compiled by 'stahn@M-Bot' on 2023-08-01

   xtb is free software: you can redistribute it and/or modify it under
   the terms of the GNU Lesser General Public License as published by
   the Free Software Foundation, either version 3 of the License, or
   (at your option) any later version.
   
   xtb is distributed in the hope that it will be useful,
   but WITHOUT ANY WARRANTY; without even the implied warranty of
   MERCHANTABILITY or FITNESS FOR A PARTICULAR PURPOSE.  See the
   GNU Lesser General Public License for more details.
   
   Cite this work as:
   * C. Bannwarth, E. Caldeweyher, S. Ehlert, A. Hansen, P. Pracht,
     J. Seibert, S. Spicher, S. Grimme, WIREs Comput. Mol. Sci., 2020, 11,
     e01493. DOI: 10.1002/wcms.1493
   
   for GFN2-xTB:
   * C. Bannwarth, S. Ehlert and S. Grimme., J. Chem. Theory Comput., 2019,
     15, 1652-1671. DOI: 10.1021/acs.jctc.8b01176
   for GFN1-xTB:
   * S. Grimme, C. Bannwarth, P. Shushkov, J. Chem. Theory Comput., 2017,
     13, 1989-2009. DOI: 10.1021/acs.jctc.7b00118
   for GFN0-xTB:
   * P. Pracht, E. Caldeweyher, S. Ehlert, S. Grimme, ChemRxiv, 2019, preprint.
     DOI: 10.26434/chemrxiv.8326202.v1
   for GFN-FF:
   * S. Spicher and S. Grimme, Angew. Chem. Int. Ed., 2020, 59, 15665-15673.
     DOI: 10.1002/anie.202004239
   
   for ALPB and GBSA implicit solvation:
   * S. Ehlert, M. Stahn, S. Spicher, S. Grimme, J. Chem. Theory Comput.,
     2021, 17, 4250-4261. DOI: 10.1021/acs.jctc.1c00471
   
   for DFT-D4:
   * E. Caldeweyher, C. Bannwarth and S. Grimme, J. Chem. Phys., 2017,
     147, 034112. DOI: 10.1063/1.4993215
   * E. Caldeweyher, S. Ehlert, A. Hansen, H. Neugebauer, S. Spicher,
     C. Bannwarth and S. Grimme, J. Chem. Phys., 2019, 150, 154122.
     DOI: 10.1063/1.5090222
   * E. Caldeweyher, J.-M. Mewes, S. Ehlert and S. Grimme, Phys. Chem. Chem. Phys.
     2020, 22, 8499-8512. DOI: 10.1039/D0CP00502A
   
   for sTDA-xTB:
   * S. Grimme and C. Bannwarth, J. Chem. Phys., 2016, 145, 054103.
     DOI: 10.1063/1.4959605
   
   in the mass-spec context:
   * V. Asgeirsson, C. Bauer and S. Grimme, Chem. Sci., 2017, 8, 4879.
     DOI: 10.1039/c7sc00601b
   * J. Koopman and S. Grimme, ACS Omega 2019, 4, 12, 15120-15133.
     DOI: 10.1021/acsomega.9b02011
   
   for metadynamics refer to:
   * S. Grimme, J. Chem. Theory Comput., 2019, 155, 2847-2862
     DOI: 10.1021/acs.jctc.9b00143
   
   for SPH calculations refer to:
   * S. Spicher and S. Grimme, J. Chem. Theory Comput., 2021, 17, 1701-1714
     DOI: 10.1021/acs.jctc.0c01306
   
   with help from (in alphabetical order)
   P. Atkinson, C. Bannwarth, F. Bohle, G. Brandenburg, E. Caldeweyher
   M. Checinski, S. Dohm, S. Ehlert, S. Ehrlich, I. Gerasimov, C. Hölzer
   A. Katbashev, J. Koopman, C. Lavigne, S. Lehtola, F. März, M. Müller,
   F. Musil, H. Neugebauer, J. Pisarek, C. Plett, P. Pracht, F. Pultar,
   J. Seibert, P. Shushkov, S. Spicher, M. Stahn, M. Steiner, T. Strunk,
   J. Stückrath, T. Rose, and J. Unsleber
   
 * started run on 2024/06/26 at 01:41:58.349     

           -------------------------------------------------
          |                Calculation Setup                |
           -------------------------------------------------

          program call               : /home/abt-grimme/AK-bin/xtb input.xyz --input input.inp --opt --gbsa water
          hostname                   : boar052.thch.uni-bonn.de
          coordinate file            : input.xyz
          omp threads                :                     8

   ID    Z sym.   atoms
    1    6 C      1-4, 7, 10, 19, 21, 24, 27, 30, 33, 39, 42, 43, 46, 49, 52,
                  56, 59, 62, 65, 68, 71, 75, 78, 79, 82, 85, 88, 92, 98,
                  101, 104, 107, 110, 116, 118, 119, 122, 125, 128, 132, 135,
                  138, 141, 144, 147, 154, 156, 157, 160, 163, 166, 171, 173,
                  176, 179, 182, 185, 191, 194, 195, 198, 201, 204, 208, 211,
                  214, 217, 220, 223, 229, 232, 233, 236, 239, 242, 247, 249,
                  252, 255, 258, 261, 267, 270, 271, 274, 277, 280, 284, 287,
                  290, 293, 296, 299, 305, 308, 309, 312, 315, 318, 323, 325,
                  328, 331, 334, 337, 346-349, 352, 355, 364, 366, 369, 372,
                  375, 378, 384, 387, 388, 391, 394, 397, 401, 404, 407, 410,
                  413, 416, 420, 423, 424, 427, 430, 433, 437, 443, 446, 449,
                  452, 455, 461, 463, 464, 467, 470, 473, 477, 480, 483, 486,
                  489, 492, 499, 501, 502, 505, 508, 511, 516, 518, 521, 524,
                  527, 530, 536, 539, 540, 543, 546, 549, 553, 556, 559, 562,
                  565, 568, 574, 577, 578, 581, 584, 587, 592, 594, 597, 600,
                  603, 606, 612, 615, 616, 619, 622, 625, 629, 632, 635, 638,
                  641, 644, 650, 653, 654, 657, 660, 663, 668, 670, 673, 676,
                  679, 682, 691-694, 697, 700, 709, 711, 714, 717, 720, 723,
                  729, 732, 733, 736, 739, 742, 746, 749, 752, 755, 758, 761,
                  765, 768, 769, 772, 775, 778, 782, 788, 791, 794, 797, 800,
                  806, 808, 809, 812, 815, 818, 822, 825, 828, 831, 834, 837,
                  844, 846, 847, 850, 853, 856, 861, 863, 866, 869, 872, 875,
                  881, 884, 885, 888, 891, 894, 898, 901, 904, 907, 910, 913,
                  919, 922, 923, 926, 929, 932, 937, 939, 942, 945, 948, 951,
                  957, 960, 961, 964, 967, 970, 974, 977, 980, 983, 986, 989,
                  995, 998, 999, 1002, 1005, 1008, 1013, 1015, 1018, 1021,
                  1024, 1027, 1036-1039, 1042, 1045, 1054, 1056, 1059, 1062,
                  1065, 1068, 1074, 1077, 1078, 1081, 1084, 1087, 1091, 1094,
                  1097, 1100, 1103, 1106, 1110, 1113, 1114, 1117, 1120, 1123,
                  1127, 1133, 1136, 1139, 1142, 1145, 1151, 1153, 1154, 1157,
                  1160, 1163, 1167, 1170, 1173, 1176, 1179, 1182, 1189, 1191,
                  1192, 1195, 1198, 1201, 1206, 1208, 1211, 1214, 1217, 1220,
                  1226, 1229, 1230, 1233, 1236, 1239, 1243, 1246, 1249, 1252,
                  1255, 1258, 1264, 1267, 1268, 1271, 1274, 1277, 1282, 1284,
                  1287, 1290, 1293, 1296, 1302, 1305, 1306, 1309, 1312, 1315,
                  1319, 1322, 1325, 1328, 1331, 1334, 1340, 1343, 1344, 1347,
                  1350, 1353, 1358, 1360, 1363, 1366, 1369, 1372, 1381-1384,
                  1387, 1390, 1399, 1401, 1404, 1407, 1410, 1413, 1419, 1422,
                  1423, 1426, 1429, 1432, 1436, 1439, 1442, 1445, 1448, 1451,
                  1455, 1458, 1459, 1462, 1465, 1468, 1472, 1478, 1481, 1484,
                  1487, 1490, 1496, 1498, 1499, 1502, 1505, 1508, 1512, 1515,
                  1518, 1521, 1524, 1527, 1534, 1536, 1537, 1540, 1543, 1546,
                  1551, 1553, 1556, 1559, 1562, 1565, 1571, 1574, 1575, 1578,
                  1581, 1584, 1588, 1591, 1594, 1597, 1600, 1603, 1609, 1612,
                  1613, 1616, 1619, 1622, 1627, 1629, 1632, 1635, 1638, 1641,
                  1647, 1650, 1651, 1654, 1657, 1660, 1664, 1667, 1670, 1673,
                  1676, 1679, 1685, 1688, 1689, 1692, 1695, 1698, 1703, 1705,
                  1708, 1711, 1714, 1717, 1726-1729, 1732, 1735, 1744, 1746,
                  1749, 1752, 1755, 1758, 1764, 1767, 1768, 1771, 1774, 1777,
                  1781, 1784, 1787, 1790, 1793, 1796, 1800, 1803, 1804, 1807,
                  1810, 1813, 1817, 1823, 1826, 1829, 1832, 1835, 1841, 1843,
                  1844, 1847, 1850, 1853, 1857, 1860, 1863, 1866, 1869, 1872,
                  1879, 1881, 1882, 1885, 1888, 1891, 1896, 1898, 1901, 1904,
                  1907, 1910, 1916, 1919, 1920, 1923, 1926, 1929, 1933, 1936,
                  1939, 1942, 1945, 1948, 1954, 1957, 1958, 1961, 1964, 1967,
                  1972, 1974, 1977, 1980, 1983, 1986, 1992, 1995, 1996, 1999,
                  2002, 2005, 2009, 2012, 2015, 2018, 2021, 2024, 2030, 2033,
                  2034, 2037, 2040, 2043, 2048, 2050, 2053, 2056, 2059, 2062,
                  2071-2074, 2077, 2080, 2089, 2091, 2094, 2097, 2100, 2103,
                  2109, 2112, 2113, 2116, 2119, 2122, 2126, 2129, 2132, 2135,
                  2138, 2141, 2145, 2148, 2149, 2152, 2155, 2158, 2162, 2168,
                  2171, 2174, 2177, 2180, 2186, 2188, 2189, 2192, 2195, 2198,
                  2202, 2205, 2208, 2211, 2214, 2217, 2224, 2226, 2227, 2230,
                  2233, 2236, 2241, 2243, 2246, 2249, 2252, 2255, 2261, 2264,
                  2265, 2268, 2271, 2274, 2278, 2281, 2284, 2287, 2290, 2293,
                  2299, 2302, 2303, 2306, 2309, 2312, 2317, 2319, 2322, 2325,
                  2328, 2331, 2337, 2340, 2341, 2344, 2347, 2350, 2354, 2357,
                  2360, 2363, 2366, 2369, 2375, 2378, 2379, 2382, 2385, 2388,
                  2393, 2395, 2398, 2401, 2404, 2407, 2416-2419, 2422, 2425,
                  2434, 2436, 2439, 2442, 2445, 2448, 2454, 2457, 2458, 2461,
                  2464, 2467, 2471, 2474, 2477, 2480, 2483, 2486, 2490, 2493,
                  2494, 2497, 2500, 2503, 2507, 2513, 2516, 2519, 2522, 2525,
                  2531, 2533, 2534, 2537, 2540, 2543, 2547, 2550, 2553, 2556,
                  2559, 2562, 2569, 2571, 2572, 2575, 2578, 2581, 2586, 2588,
                  2591, 2594, 2597, 2600, 2606, 2609, 2610, 2613, 2616, 2619,
                  2623, 2626, 2629, 2632, 2635, 2638, 2644, 2647, 2648, 2651,
                  2654, 2657, 2662, 2664, 2667, 2670, 2673, 2676, 2682, 2685,
                  2686, 2689, 2692, 2695, 2699, 2702, 2705, 2708, 2711, 2714,
                  2720, 2723, 2724, 2727, 2730, 2733, 2738, 2740, 2743, 2746,
                  2749, 2752, 2761-2764, 2767, 2770, 2779, 2781, 2784, 2787,
                  2790, 2793, 2799, 2802, 2803, 2806, 2809, 2812, 2816, 2819,
                  2822, 2825, 2828, 2831, 2835, 2838, 2839, 2842, 2845, 2848,
                  2852, 2858, 2861, 2864, 2867, 2870, 2876, 2878, 2879, 2882,
                  2885, 2888, 2892, 2895, 2898, 2901, 2904, 2907, 2914, 2916,
                  2917, 2920, 2923, 2926, 2931, 2933, 2936, 2939, 2942, 2945,
                  2951, 2954, 2955, 2958, 2961, 2964, 2968, 2971, 2974, 2977,
                  2980, 2983, 2989, 2992, 2993, 2996, 2999, 3002, 3007, 3009,
                  3012, 3015, 3018, 3021, 3027, 3030, 3031, 3034, 3037, 3040,
                  3044, 3047, 3050, 3053, 3056, 3059, 3065, 3068, 3069, 3072,
                  3075, 3078, 3083, 3085, 3088, 3091, 3094, 3097, 3106-3109,
                  3112, 3115, 3124, 3126, 3129, 3132, 3135, 3138, 3144, 3147,
                  3148, 3151, 3154, 3157, 3161, 3164, 3167, 3170, 3173, 3176,
                  3180, 3183, 3184, 3187, 3190, 3193, 3197, 3203, 3206, 3209,
                  3212, 3215, 3221, 3223, 3224, 3227, 3230, 3233, 3237, 3240,
                  3243, 3246, 3249, 3252, 3259, 3261, 3262, 3265, 3268, 3271,
                  3276, 3278, 3281, 3284, 3287, 3290, 3296, 3299, 3300, 3303,
                  3306, 3309, 3313, 3316, 3319, 3322, 3325, 3328, 3334, 3337,
                  3338, 3341, 3344, 3347, 3352, 3354, 3357, 3360, 3363, 3366,
                  3372, 3375, 3376, 3379, 3382, 3385, 3389, 3392, 3395, 3398,
                  3401, 3404, 3410, 3413, 3414, 3417, 3420, 3423, 3428, 3430,
                  3433, 3436, 3439, 3442, 3451-3454, 3457, 3460, 3469, 3471,
                  3474, 3477, 3480, 3483, 3489, 3492, 3493, 3496, 3499, 3502,
                  3506, 3509, 3512, 3515, 3518, 3521, 3525, 3528, 3529, 3532,
                  3535, 3538, 3542, 3548, 3551, 3554, 3557, 3560, 3566, 3568,
                  3569, 3572, 3575, 3578, 3582, 3585, 3588, 3591, 3594, 3597,
                  3604, 3606, 3607, 3610, 3613, 3616, 3621, 3623, 3626, 3629,
                  3632, 3635, 3641, 3644, 3645, 3648, 3651, 3654, 3658, 3661,
                  3664, 3667, 3670, 3673, 3679, 3682, 3683, 3686, 3689, 3692,
                  3697, 3699, 3702, 3705, 3708, 3711, 3717, 3720, 3721, 3724,
                  3727, 3730, 3734, 3737, 3740, 3743, 3746, 3749, 3755, 3758,
                  3759, 3762, 3765, 3768, 3773, 3775, 3778, 3781, 3784, 3787
    2    1 H      5, 6, 8, 9, 11, 12, 16-18, 20, 22, 23, 25, 26, 28, 29, 31,
                  32, 34, 35, 37, 38, 40, 44, 45, 47, 48, 50, 51, 53, 54, 57,
                  60, 61, 63, 64, 66, 67, 69, 70, 73, 74, 76, 80, 81, 83, 84,
                  86, 87, 89, 90, 93-95, 99, 100, 102, 103, 105, 106, 108,
                  109, 111, 112, 114, 115, 117, 120, 121, 123, 124, 126, 127,
                  129, 130, 133, 136, 137, 139, 140, 142, 143, 145, 146, 148,
                  149, 151, 152, 155, 158, 159, 161, 162, 164, 165, 167, 168,
                  172, 174, 175, 177, 178, 180, 181, 183, 184, 186, 187, 189,
                  190, 192, 196, 197, 199, 200, 202, 203, 205, 206, 209, 212,
                  213, 215, 216, 218, 219, 221, 222, 224, 225, 227, 228, 230,
                  234, 235, 237, 238, 240, 241, 243, 244, 248, 250, 251, 253,
                  254, 256, 257, 259, 260, 262, 263, 265, 266, 268, 272, 273,
                  275, 276, 278, 279, 281, 282, 285, 288, 289, 291, 292, 294,
                  295, 297, 298, 300, 301, 303, 304, 306, 310, 311, 313, 314,
                  316, 317, 319, 320, 324, 326, 327, 329, 330, 332, 333, 335,
                  336, 338, 339, 341-344, 350, 351, 353, 354, 356, 357,
                  361-363, 365, 367, 368, 370, 371, 373, 374, 376, 377, 379,
                  380, 382, 383, 385, 389, 390, 392, 393, 395, 396, 398, 399,
                  402, 405, 406, 408, 409, 411, 412, 414, 415, 418, 419, 421,
                  425, 426, 428, 429, 431, 432, 434, 435, 438-440, 444, 445,
                  447, 448, 450, 451, 453, 454, 456, 457, 459, 460, 462, 465,
                  466, 468, 469, 471, 472, 474, 475, 478, 481, 482, 484, 485,
                  487, 488, 490, 491, 493, 494, 496, 497, 500, 503, 504, 506,
                  507, 509, 510, 512, 513, 517, 519, 520, 522, 523, 525, 526,
                  528, 529, 531, 532, 534, 535, 537, 541, 542, 544, 545, 547,
                  548, 550, 551, 554, 557, 558, 560, 561, 563, 564, 566, 567,
                  569, 570, 572, 573, 575, 579, 580, 582, 583, 585, 586, 588,
                  589, 593, 595, 596, 598, 599, 601, 602, 604, 605, 607, 608,
                  610, 611, 613, 617, 618, 620, 621, 623, 624, 626, 627, 630,
                  633, 634, 636, 637, 639, 640, 642, 643, 645, 646, 648, 649,
                  651, 655, 656, 658, 659, 661, 662, 664, 665, 669, 671, 672,
                  674, 675, 677, 678, 680, 681, 683, 684, 686-689, 695, 696,
                  698, 699, 701, 702, 706-708, 710, 712, 713, 715, 716, 718,
                  719, 721, 722, 724, 725, 727, 728, 730, 734, 735, 737, 738,
                  740, 741, 743, 744, 747, 750, 751, 753, 754, 756, 757, 759,
                  760, 763, 764, 766, 770, 771, 773, 774, 776, 777, 779, 780,
                  783-785, 789, 790, 792, 793, 795, 796, 798, 799, 801, 802,
                  804, 805, 807, 810, 811, 813, 814, 816, 817, 819, 820, 823,
                  826, 827, 829, 830, 832, 833, 835, 836, 838, 839, 841, 842,
                  845, 848, 849, 851, 852, 854, 855, 857, 858, 862, 864, 865,
                  867, 868, 870, 871, 873, 874, 876, 877, 879, 880, 882, 886,
                  887, 889, 890, 892, 893, 895, 896, 899, 902, 903, 905, 906,
                  908, 909, 911, 912, 914, 915, 917, 918, 920, 924, 925, 927,
                  928, 930, 931, 933, 934, 938, 940, 941, 943, 944, 946, 947,
                  949, 950, 952, 953, 955, 956, 958, 962, 963, 965, 966, 968,
                  969, 971, 972, 975, 978, 979, 981, 982, 984, 985, 987, 988,
                  990, 991, 993, 994, 996, 1000, 1001, 1003, 1004, 1006,
                  1007, 1009, 1010, 1014, 1016, 1017, 1019, 1020, 1022, 1023,
                  1025, 1026, 1028, 1029, 1031-1034, 1040, 1041, 1043, 1044,
                  1046, 1047, 1051-1053, 1055, 1057, 1058, 1060, 1061, 1063,
                  1064, 1066, 1067, 1069, 1070, 1072, 1073, 1075, 1079, 1080,
                  1082, 1083, 1085, 1086, 1088, 1089, 1092, 1095, 1096, 1098,
                  1099, 1101, 1102, 1104, 1105, 1108, 1109, 1111, 1115, 1116,
                  1118, 1119, 1121, 1122, 1124, 1125, 1128-1130, 1134, 1135,
                  1137, 1138, 1140, 1141, 1143, 1144, 1146, 1147, 1149, 1150,
                  1152, 1155, 1156, 1158, 1159, 1161, 1162, 1164, 1165, 1168,
                  1171, 1172, 1174, 1175, 1177, 1178, 1180, 1181, 1183, 1184,
                  1186, 1187, 1190, 1193, 1194, 1196, 1197, 1199, 1200, 1202,
                  1203, 1207, 1209, 1210, 1212, 1213, 1215, 1216, 1218, 1219,
                  1221, 1222, 1224, 1225, 1227, 1231, 1232, 1234, 1235, 1237,
                  1238, 1240, 1241, 1244, 1247, 1248, 1250, 1251, 1253, 1254,
                  1256, 1257, 1259, 1260, 1262, 1263, 1265, 1269, 1270, 1272,
                  1273, 1275, 1276, 1278, 1279, 1283, 1285, 1286, 1288, 1289,
                  1291, 1292, 1294, 1295, 1297, 1298, 1300, 1301, 1303, 1307,
                  1308, 1310, 1311, 1313, 1314, 1316, 1317, 1320, 1323, 1324,
                  1326, 1327, 1329, 1330, 1332, 1333, 1335, 1336, 1338, 1339,
                  1341, 1345, 1346, 1348, 1349, 1351, 1352, 1354, 1355, 1359,
                  1361, 1362, 1364, 1365, 1367, 1368, 1370, 1371, 1373, 1374,
                  1376-1379, 1385, 1386, 1388, 1389, 1391, 1392, 1396-1398,
                  1400, 1402, 1403, 1405, 1406, 1408, 1409, 1411, 1412, 1414,
                  1415, 1417, 1418, 1420, 1424, 1425, 1427, 1428, 1430, 1431,
                  1433, 1434, 1437, 1440, 1441, 1443, 1444, 1446, 1447, 1449,
                  1450, 1453, 1454, 1456, 1460, 1461, 1463, 1464, 1466, 1467,
                  1469, 1470, 1473-1475, 1479, 1480, 1482, 1483, 1485, 1486,
                  1488, 1489, 1491, 1492, 1494, 1495, 1497, 1500, 1501, 1503,
                  1504, 1506, 1507, 1509, 1510, 1513, 1516, 1517, 1519, 1520,
                  1522, 1523, 1525, 1526, 1528, 1529, 1531, 1532, 1535, 1538,
                  1539, 1541, 1542, 1544, 1545, 1547, 1548, 1552, 1554, 1555,
                  1557, 1558, 1560, 1561, 1563, 1564, 1566, 1567, 1569, 1570,
                  1572, 1576, 1577, 1579, 1580, 1582, 1583, 1585, 1586, 1589,
                  1592, 1593, 1595, 1596, 1598, 1599, 1601, 1602, 1604, 1605,
                  1607, 1608, 1610, 1614, 1615, 1617, 1618, 1620, 1621, 1623,
                  1624, 1628, 1630, 1631, 1633, 1634, 1636, 1637, 1639, 1640,
                  1642, 1643, 1645, 1646, 1648, 1652, 1653, 1655, 1656, 1658,
                  1659, 1661, 1662, 1665, 1668, 1669, 1671, 1672, 1674, 1675,
                  1677, 1678, 1680, 1681, 1683, 1684, 1686, 1690, 1691, 1693,
                  1694, 1696, 1697, 1699, 1700, 1704, 1706, 1707, 1709, 1710,
                  1712, 1713, 1715, 1716, 1718, 1719, 1721-1724, 1730, 1731,
                  1733, 1734, 1736, 1737, 1741-1743, 1745, 1747, 1748, 1750,
                  1751, 1753, 1754, 1756, 1757, 1759, 1760, 1762, 1763, 1765,
                  1769, 1770, 1772, 1773, 1775, 1776, 1778, 1779, 1782, 1785,
                  1786, 1788, 1789, 1791, 1792, 1794, 1795, 1798, 1799, 1801,
                  1805, 1806, 1808, 1809, 1811, 1812, 1814, 1815, 1818-1820,
                  1824, 1825, 1827, 1828, 1830, 1831, 1833, 1834, 1836, 1837,
                  1839, 1840, 1842, 1845, 1846, 1848, 1849, 1851, 1852, 1854,
                  1855, 1858, 1861, 1862, 1864, 1865, 1867, 1868, 1870, 1871,
                  1873, 1874, 1876, 1877, 1880, 1883, 1884, 1886, 1887, 1889,
                  1890, 1892, 1893, 1897, 1899, 1900, 1902, 1903, 1905, 1906,
                  1908, 1909, 1911, 1912, 1914, 1915, 1917, 1921, 1922, 1924,
                  1925, 1927, 1928, 1930, 1931, 1934, 1937, 1938, 1940, 1941,
                  1943, 1944, 1946, 1947, 1949, 1950, 1952, 1953, 1955, 1959,
                  1960, 1962, 1963, 1965, 1966, 1968, 1969, 1973, 1975, 1976,
                  1978, 1979, 1981, 1982, 1984, 1985, 1987, 1988, 1990, 1991,
                  1993, 1997, 1998, 2000, 2001, 2003, 2004, 2006, 2007, 2010,
                  2013, 2014, 2016, 2017, 2019, 2020, 2022, 2023, 2025, 2026,
                  2028, 2029, 2031, 2035, 2036, 2038, 2039, 2041, 2042, 2044,
                  2045, 2049, 2051, 2052, 2054, 2055, 2057, 2058, 2060, 2061,
                  2063, 2064, 2066-2069, 2075, 2076, 2078, 2079, 2081, 2082,
                  2086-2088, 2090, 2092, 2093, 2095, 2096, 2098, 2099, 2101,
                  2102, 2104, 2105, 2107, 2108, 2110, 2114, 2115, 2117, 2118,
                  2120, 2121, 2123, 2124, 2127, 2130, 2131, 2133, 2134, 2136,
                  2137, 2139, 2140, 2143, 2144, 2146, 2150, 2151, 2153, 2154,
                  2156, 2157, 2159, 2160, 2163-2165, 2169, 2170, 2172, 2173,
                  2175, 2176, 2178, 2179, 2181, 2182, 2184, 2185, 2187, 2190,
                  2191, 2193, 2194, 2196, 2197, 2199, 2200, 2203, 2206, 2207,
                  2209, 2210, 2212, 2213, 2215, 2216, 2218, 2219, 2221, 2222,
                  2225, 2228, 2229, 2231, 2232, 2234, 2235, 2237, 2238, 2242,
                  2244, 2245, 2247, 2248, 2250, 2251, 2253, 2254, 2256, 2257,
                  2259, 2260, 2262, 2266, 2267, 2269, 2270, 2272, 2273, 2275,
                  2276, 2279, 2282, 2283, 2285, 2286, 2288, 2289, 2291, 2292,
                  2294, 2295, 2297, 2298, 2300, 2304, 2305, 2307, 2308, 2310,
                  2311, 2313, 2314, 2318, 2320, 2321, 2323, 2324, 2326, 2327,
                  2329, 2330, 2332, 2333, 2335, 2336, 2338, 2342, 2343, 2345,
                  2346, 2348, 2349, 2351, 2352, 2355, 2358, 2359, 2361, 2362,
                  2364, 2365, 2367, 2368, 2370, 2371, 2373, 2374, 2376, 2380,
                  2381, 2383, 2384, 2386, 2387, 2389, 2390, 2394, 2396, 2397,
                  2399, 2400, 2402, 2403, 2405, 2406, 2408, 2409, 2411-2414,
                  2420, 2421, 2423, 2424, 2426, 2427, 2431-2433, 2435, 2437,
                  2438, 2440, 2441, 2443, 2444, 2446, 2447, 2449, 2450, 2452,
                  2453, 2455, 2459, 2460, 2462, 2463, 2465, 2466, 2468, 2469,
                  2472, 2475, 2476, 2478, 2479, 2481, 2482, 2484, 2485, 2488,
                  2489, 2491, 2495, 2496, 2498, 2499, 2501, 2502, 2504, 2505,
                  2508-2510, 2514, 2515, 2517, 2518, 2520, 2521, 2523, 2524,
                  2526, 2527, 2529, 2530, 2532, 2535, 2536, 2538, 2539, 2541,
                  2542, 2544, 2545, 2548, 2551, 2552, 2554, 2555, 2557, 2558,
                  2560, 2561, 2563, 2564, 2566, 2567, 2570, 2573, 2574, 2576,
                  2577, 2579, 2580, 2582, 2583, 2587, 2589, 2590, 2592, 2593,
                  2595, 2596, 2598, 2599, 2601, 2602, 2604, 2605, 2607, 2611,
                  2612, 2614, 2615, 2617, 2618, 2620, 2621, 2624, 2627, 2628,
                  2630, 2631, 2633, 2634, 2636, 2637, 2639, 2640, 2642, 2643,
                  2645, 2649, 2650, 2652, 2653, 2655, 2656, 2658, 2659, 2663,
                  2665, 2666, 2668, 2669, 2671, 2672, 2674, 2675, 2677, 2678,
                  2680, 2681, 2683, 2687, 2688, 2690, 2691, 2693, 2694, 2696,
                  2697, 2700, 2703, 2704, 2706, 2707, 2709, 2710, 2712, 2713,
                  2715, 2716, 2718, 2719, 2721, 2725, 2726, 2728, 2729, 2731,
                  2732, 2734, 2735, 2739, 2741, 2742, 2744, 2745, 2747, 2748,
                  2750, 2751, 2753, 2754, 2756-2759, 2765, 2766, 2768, 2769,
                  2771, 2772, 2776-2778, 2780, 2782, 2783, 2785, 2786, 2788,
                  2789, 2791, 2792, 2794, 2795, 2797, 2798, 2800, 2804, 2805,
                  2807, 2808, 2810, 2811, 2813, 2814, 2817, 2820, 2821, 2823,
                  2824, 2826, 2827, 2829, 2830, 2833, 2834, 2836, 2840, 2841,
                  2843, 2844, 2846, 2847, 2849, 2850, 2853-2855, 2859, 2860,
                  2862, 2863, 2865, 2866, 2868, 2869, 2871, 2872, 2874, 2875,
                  2877, 2880, 2881, 2883, 2884, 2886, 2887, 2889, 2890, 2893,
                  2896, 2897, 2899, 2900, 2902, 2903, 2905, 2906, 2908, 2909,
                  2911, 2912, 2915, 2918, 2919, 2921, 2922, 2924, 2925, 2927,
                  2928, 2932, 2934, 2935, 2937, 2938, 2940, 2941, 2943, 2944,
                  2946, 2947, 2949, 2950, 2952, 2956, 2957, 2959, 2960, 2962,
                  2963, 2965, 2966, 2969, 2972, 2973, 2975, 2976, 2978, 2979,
                  2981, 2982, 2984, 2985, 2987, 2988, 2990, 2994, 2995, 2997,
                  2998, 3000, 3001, 3003, 3004, 3008, 3010, 3011, 3013, 3014,
                  3016, 3017, 3019, 3020, 3022, 3023, 3025, 3026, 3028, 3032,
                  3033, 3035, 3036, 3038, 3039, 3041, 3042, 3045, 3048, 3049,
                  3051, 3052, 3054, 3055, 3057, 3058, 3060, 3061, 3063, 3064,
                  3066, 3070, 3071, 3073, 3074, 3076, 3077, 3079, 3080, 3084,
                  3086, 3087, 3089, 3090, 3092, 3093, 3095, 3096, 3098, 3099,
                  3101-3104, 3110, 3111, 3113, 3114, 3116, 3117, 3121-3123,
                  3125, 3127, 3128, 3130, 3131, 3133, 3134, 3136, 3137, 3139,
                  3140, 3142, 3143, 3145, 3149, 3150, 3152, 3153, 3155, 3156,
                  3158, 3159, 3162, 3165, 3166, 3168, 3169, 3171, 3172, 3174,
                  3175, 3178, 3179, 3181, 3185, 3186, 3188, 3189, 3191, 3192,
                  3194, 3195, 3198-3200, 3204, 3205, 3207, 3208, 3210, 3211,
                  3213, 3214, 3216, 3217, 3219, 3220, 3222, 3225, 3226, 3228,
                  3229, 3231, 3232, 3234, 3235, 3238, 3241, 3242, 3244, 3245,
                  3247, 3248, 3250, 3251, 3253, 3254, 3256, 3257, 3260, 3263,
                  3264, 3266, 3267, 3269, 3270, 3272, 3273, 3277, 3279, 3280,
                  3282, 3283, 3285, 3286, 3288, 3289, 3291, 3292, 3294, 3295,
                  3297, 3301, 3302, 3304, 3305, 3307, 3308, 3310, 3311, 3314,
                  3317, 3318, 3320, 3321, 3323, 3324, 3326, 3327, 3329, 3330,
                  3332, 3333, 3335, 3339, 3340, 3342, 3343, 3345, 3346, 3348,
                  3349, 3353, 3355, 3356, 3358, 3359, 3361, 3362, 3364, 3365,
                  3367, 3368, 3370, 3371, 3373, 3377, 3378, 3380, 3381, 3383,
                  3384, 3386, 3387, 3390, 3393, 3394, 3396, 3397, 3399, 3400,
                  3402, 3403, 3405, 3406, 3408, 3409, 3411, 3415, 3416, 3418,
                  3419, 3421, 3422, 3424, 3425, 3429, 3431, 3432, 3434, 3435,
                  3437, 3438, 3440, 3441, 3443, 3444, 3446-3449, 3455, 3456,
                  3458, 3459, 3461, 3462, 3466-3468, 3470, 3472, 3473, 3475,
                  3476, 3478, 3479, 3481, 3482, 3484, 3485, 3487, 3488, 3490,
                  3494, 3495, 3497, 3498, 3500, 3501, 3503, 3504, 3507, 3510,
                  3511, 3513, 3514, 3516, 3517, 3519, 3520, 3523, 3524, 3526,
                  3530, 3531, 3533, 3534, 3536, 3537, 3539, 3540, 3543-3545,
                  3549, 3550, 3552, 3553, 3555, 3556, 3558, 3559, 3561, 3562,
                  3564, 3565, 3567, 3570, 3571, 3573, 3574, 3576, 3577, 3579,
                  3580, 3583, 3586, 3587, 3589, 3590, 3592, 3593, 3595, 3596,
                  3598, 3599, 3601, 3602, 3605, 3608, 3609, 3611, 3612, 3614,
                  3615, 3617, 3618, 3622, 3624, 3625, 3627, 3628, 3630, 3631,
                  3633, 3634, 3636, 3637, 3639, 3640, 3642, 3646, 3647, 3649,
                  3650, 3652, 3653, 3655, 3656, 3659, 3662, 3663, 3665, 3666,
                  3668, 3669, 3671, 3672, 3674, 3675, 3677, 3678, 3680, 3684,
                  3685, 3687, 3688, 3690, 3691, 3693, 3694, 3698, 3700, 3701,
                  3703, 3704, 3706, 3707, 3709, 3710, 3712, 3713, 3715, 3716,
                  3718, 3722, 3723, 3725, 3726, 3728, 3729, 3731, 3732, 3735,
                  3738, 3739, 3741, 3742, 3744, 3745, 3747, 3748, 3750, 3751,
                  3753, 3754, 3756, 3760, 3761, 3763, 3764, 3766, 3767, 3769,
                  3770, 3774, 3776, 3777, 3779, 3780, 3782, 3783, 3785, 3786,
                  3788, 3789, 3791-3794
    3    7 N      13, 36, 55, 72, 91, 113, 131, 150, 169, 188, 207, 226, 245,
                  264, 283, 302, 321, 340, 358, 381, 400, 417, 436, 458, 476,
                  495, 514, 533, 552, 571, 590, 609, 628, 647, 666, 685, 703,
                  726, 745, 762, 781, 803, 821, 840, 859, 878, 897, 916, 935,
                  954, 973, 992, 1011, 1030, 1048, 1071, 1090, 1107, 1126,
                  1148, 1166, 1185, 1204, 1223, 1242, 1261, 1280, 1299, 1318,
                  1337, 1356, 1375, 1393, 1416, 1435, 1452, 1471, 1493, 1511,
                  1530, 1549, 1568, 1587, 1606, 1625, 1644, 1663, 1682, 1701,
                  1720, 1738, 1761, 1780, 1797, 1816, 1838, 1856, 1875, 1894,
                  1913, 1932, 1951, 1970, 1989, 2008, 2027, 2046, 2065, 2083,
                  2106, 2125, 2142, 2161, 2183, 2201, 2220, 2239, 2258, 2277,
                  2296, 2315, 2334, 2353, 2372, 2391, 2410, 2428, 2451, 2470,
                  2487, 2506, 2528, 2546, 2565, 2584, 2603, 2622, 2641, 2660,
                  2679, 2698, 2717, 2736, 2755, 2773, 2796, 2815, 2832, 2851,
                  2873, 2891, 2910, 2929, 2948, 2967, 2986, 3005, 3024, 3043,
                  3062, 3081, 3100, 3118, 3141, 3160, 3177, 3196, 3218, 3236,
                  3255, 3274, 3293, 3312, 3331, 3350, 3369, 3388, 3407, 3426,
                  3445, 3463, 3486, 3505, 3522, 3541, 3563, 3581, 3600, 3619,
                  3638, 3657, 3676, 3695, 3714, 3733, 3752, 3771, 3790
    4    8 O      14, 15, 41, 58, 77, 96, 97, 134, 153, 170, 193, 210, 231,
                  246, 269, 286, 307, 322, 345, 359, 360, 386, 403, 422, 441,
                  442, 479, 498, 515, 538, 555, 576, 591, 614, 631, 652, 667,
                  690, 704, 705, 731, 748, 767, 786, 787, 824, 843, 860, 883,
                  900, 921, 936, 959, 976, 997, 1012, 1035, 1049, 1050, 1076,
                  1093, 1112, 1131, 1132, 1169, 1188, 1205, 1228, 1245, 1266,
                  1281, 1304, 1321, 1342, 1357, 1380, 1394, 1395, 1421, 1438,
                  1457, 1476, 1477, 1514, 1533, 1550, 1573, 1590, 1611, 1626,
                  1649, 1666, 1687, 1702, 1725, 1739, 1740, 1766, 1783, 1802,
                  1821, 1822, 1859, 1878, 1895, 1918, 1935, 1956, 1971, 1994,
                  2011, 2032, 2047, 2070, 2084, 2085, 2111, 2128, 2147, 2166,
                  2167, 2204, 2223, 2240, 2263, 2280, 2301, 2316, 2339, 2356,
                  2377, 2392, 2415, 2429, 2430, 2456, 2473, 2492, 2511, 2512,
                  2549, 2568, 2585, 2608, 2625, 2646, 2661, 2684, 2701, 2722,
                  2737, 2760, 2774, 2775, 2801, 2818, 2837, 2856, 2857, 2894,
                  2913, 2930, 2953, 2970, 2991, 3006, 3029, 3046, 3067, 3082,
                  3105, 3119, 3120, 3146, 3163, 3182, 3201, 3202, 3239, 3258,
                  3275, 3298, 3315, 3336, 3351, 3374, 3391, 3412, 3427, 3450,
                  3464, 3465, 3491, 3508, 3527, 3546, 3547, 3584, 3603, 3620,
                  3643, 3660, 3681, 3696, 3719, 3736, 3757, 3772, 3795

molecular fragmentation (1/2 indicates fragments):
111111111111111111111111111111111111111111111111111111111111111111111111
111111111111111111111111111111111111111111111111111111111111111111111111
111111111111111111111111111111111111111111111111111111111111111111111111
111111111111111111111111111111111111111111111111111111111111111111111111
111111111111111111111111111111111111111111111111111111111222222222222222
222222222222222222222222222222222222222222222222222222222222222222222222
222222222222222222222222222222222222222222222222222222222222222222222222
222222222222222222222222222222222222222222222222222222222222222222222222
222222222222222222222222222222222222222222222222222222222222222222222222
222222222222222222222222222222222222222222222222222222222222222222222222
222222222222222222222222222222222222222222222222222222222222222222222222
222222222222222222222222222222222222222222222222222222222222222222222222
222222222222222222222222222222222222222222222222222222222222222222222222
222222222222222222222222222222222222222222222222222222222222222222222222
222222222222222222222222222222222222222222222222222222222222222222222222
222222222222222222222222222222222222222222222222222222222222222222222222
222222222222222222222222222222222222222222222222222222222222222222222222
222222222222222222222222222222222222222222222222222222222222222222222222
222222222222222222222222222222222222222222222222222222222222222222222222
222222222222222222222222222222222222222222222222222222222222222222222222
222222222222222222222222222222222222222222222222222222222222222222222222
222222222222222222222222222222222222222222222222222222222222222222222222
222222222222222222222222222222222222222222222222222222222222222222222222
222222222222222222222222222222222222222222222222222222222222222222222222
222222222222222222222222222222222222222222222222222222222222222222222222
222222222222222222222222222222222222222222222222222222222222222222222222
222222222222222222222222222222222222222222222222222222222222222222222222
222222222222222222222222222222222222222222222222222222222222222222222222
222222222222222222222222222222222222222222222222222222222222222222222222
222222222222222222222222222222222222222222222222222222222222222222222222
222222222222222222222222222222222222222222222222222222222222222222222222
222222222222222222222222222222222222222222222222222222222222222222222222
222222222222222222222222222222222222222222222222222222222222222222222222
222222222222222222222222222222222222222222222222222222222222222222222222
222222222222222222222222222222222222222222222222222222222222222222222222
222222222222222222222222222222222222222222222222222222222222222222222222
222222222222222222222222222222222222222222222222222222222222222222222222
222222222222222222222222222222222222222222222222222222222222222222222222
222222222222222222222222222222222222222222222222222222222222222222222222
222222222222222222222222222222222222222222222222222222222222222222222222
222222222222222222222222222222222222222222222222222222222222222222222222
222222222222222222222222222222222222222222222222222222222222222222222222
222222222222222222222222222222222222222222222222222222222222222222222222
222222222222222222222222222222222222222222222222222222222222222222222222
222222222222222222222222222222222222222222222222222222222222222222222222
222222222222222222222222222222222222222222222222222222222222222222222222
222222222222222222222222222222222222222222222222222222222222222222222222
222222222222222222222222222222222222222222222222222222222222222222222222
222222222222222222222222222222222222222222222222222222222222222222222222
222222222222222222222222222222222222222222222222222222222222222222222222
222222222222222222222222222222222222222222222222222222222222222222222222
222222222222222222222222222222222222222222222222222222222222222222222222
222222222222222222222222222222222222222222222222222
# atoms in fragment 1/2:   345  3450
 fragment masses (1/2) :     2054.86    20548.57
CMA distance (Bohr)    :  27.379
constraining FC (au)   :  0.0500

           -------------------------------------------------
          |                 G F N 2 - x T B                 |
           -------------------------------------------------

        Reference                      10.1021/acs.jctc.8b01176
      * Hamiltonian:
        H0-scaling (s, p, d)           1.850000    2.230000    2.230000
        zeta-weighting                 0.500000
      * Dispersion:
        s8                             2.700000
        a1                             0.520000
        a2                             5.000000
        s9                             5.000000
      * Repulsion:
        kExp                           1.500000    1.000000
        rExp                           1.000000
      * Coulomb:
        alpha                          2.000000
        third order                    shell-resolved
        anisotropic                    true
        a3                             3.000000
        a5                             4.000000
        cn-shift                       1.200000
        cn-exp                         4.000000
        max-rad                        5.000000

      * Solvation model:               GBSA
        Solvent                        water
        Parameter file                 internal GFN2-xTB/GBSA
        Dielectric constant                8.0200E+01
        Reference state                gsolv [1 M gas/solution]
        Free energy shift                  1.8574E-03 Eh       1.1656E+00 kcal/mol
        Temperature                        2.9815E+02 K
        Density                            1.0000E+00 kg/L
        Solvent mass                       1.8000E+01 g/mol
        Interaction kernel             Still
        Born radius scaling (c1)           1.5524E+00
        Born radii integrator          GBOBC
        Born offset                        2.4628E-02 a0       4.6540E-02 AA
        H-bond correction              true
        Ion screening                  false
        Surface tension                    1.0000E-05 Eh       1.5569E+01 dyn/cm
        Grid points                               230 per atom
q/qsh data taken from xtbrestart
CAMM data taken from xtbrestart

          ...................................................
          :                      SETUP                      :
          :.................................................:
          :  # basis functions                8580          :
          :  # atomic orbitals                8580          :
          :  # shells                         5390          :
          :  # electrons                      9196          :
          :  max. iterations                   250          :
          :  Hamiltonian                  GFN2-xTB          :
          :  restarted?                       true          :
          :  GBSA solvation                   true          :
          :  PC potential                    false          :
          :  electronic temp.          300.0000000     K    :
          :  accuracy                    1.0000000          :
          :  -> integral cutoff          0.2500000E+02      :
          :  -> integral neglect         0.1000000E-07      :
          :  -> SCF convergence          0.1000000E-05 Eh   :
          :  -> wf. convergence          0.1000000E-03 e    :
          :  Broyden damping             0.4000000          :
          ...................................................

 iter      E             dE          RMSdq      gap      omega  full diag
   1  -5162.9863819 -0.516299E+04  0.460E-05    2.81       0.0  T
   2  -5162.9863819 -0.190812E-08  0.354E-05    2.81      45.9  T
   3  -5162.9863819 -0.147520E-08  0.245E-05    2.81      66.2  T

   *** convergence criteria satisfied after 3 iterations ***

         #    Occupation            Energy/Eh            Energy/eV
      -------------------------------------------------------------
         1        2.0000           -0.7360075             -20.0278
       ...           ...                  ...                  ...
      4592        2.0000           -0.3676966             -10.0055
      4593        2.0000           -0.3643096              -9.9134
      4594        2.0000           -0.3642081              -9.9106
      4595        2.0000           -0.3641962              -9.9103
      4596        2.0000           -0.3631463              -9.8817
      4597        2.0000           -0.3630603              -9.8794
      4598        2.0000           -0.3565099              -9.7011 (HOMO)
      4599                         -0.2532848              -6.8922 (LUMO)
      4600                         -0.2529006              -6.8818
      4601                         -0.2478220              -6.7436
      4602                         -0.2465505              -6.7090
      4603                         -0.2455947              -6.6830
       ...                                ...                  ...
      8580                          0.6713122              18.2673
      -------------------------------------------------------------
                  HL-Gap            0.1032252 Eh            2.8089 eV
             Fermi-level           -0.3048974 Eh           -8.2967 eV

 SCC (total)                   0 d,  0 h, 13 min, 27.039 sec
 SCC setup                      ...        0 min,  2.290 sec (  0.284%)
 Dispersion                     ...        0 min,  5.014 sec (  0.621%)
 classical contributions        ...        0 min,  0.171 sec (  0.021%)
 integral evaluation            ...        0 min,  9.384 sec (  1.163%)
 iterations                     ...        7 min, 36.731 sec ( 56.593%)
 molecular gradient             ...        5 min, 14.233 sec ( 38.937%)
 printout                       ...        0 min, 19.216 sec (  2.381%)

         :::::::::::::::::::::::::::::::::::::::::::::::::::::
         ::                     SUMMARY                     ::
         :::::::::::::::::::::::::::::::::::::::::::::::::::::
         :: total energy           -5102.519794219503 Eh    ::
         :: total w/o Gsasa/hb     -5102.355778405378 Eh    ::
         :: gradient norm              0.816813464217 Eh/a0 ::
         :: HOMO-LUMO gap              2.808899370397 eV    ::
         ::.................................................::
         :: SCC energy             -5162.986381867930 Eh    ::
         :: -> isotropic ES            9.225339924453 Eh    ::
         :: -> anisotropic ES          0.097044290024 Eh    ::
         :: -> anisotropic XC          1.999450345719 Eh    ::
         :: -> dispersion             -5.404664652672 Eh    ::
         :: -> Gsolv                  -0.783994513049 Eh    ::
         ::    -> Gelec               -0.619978698924 Eh    ::
         ::    -> Gsasa               -0.095216869543 Eh    ::
         ::    -> Ghb                 -0.070656387709 Eh    ::
         ::    -> Gshift               0.001857443127 Eh    ::
         :: repulsion energy          59.542836142192 Eh    ::
         :: add. restraining           0.000000000000 Eh    ::
         :: total charge              -0.000000000021 e     ::
         :::::::::::::::::::::::::::::::::::::::::::::::::::::

      ----------------------------------------------------------- 
     |              Fast Inertial Relaxation Engine              |
      ----------------------------------------------------------- 

          ...................................................
          :                      SETUP                      :
          :.................................................:
          :   energy convergence        0.5000000E-05 Eh    :
          :   grad. convergence         0.1000000E-02 Eh/a0 :
          :   optimization log               true           :
          :   writing optlog all                1     steps :
          :   Hessian reset                    20     steps :
          :   time step scaling                 5     steps :
          :   maximium step len.        1.0000000     a0    :
          :   initial time step         0.2500000     fs    :
          :   maximum time step         1.2500000     fs    :
          :   power reset thr           0.0000000     au    :
          :   alpha parameter           0.1000000           :
          :   BFGS update                   false           :
          :   preconditioning               false           :
          ...................................................

........................................................................
.............................. CYCLE    1 ..............................
........................................................................

 iter      E             dE          RMSdq      gap      omega  full diag
   1  -5163.1965415 -0.516320E+04  0.115E-02    2.84       0.0  T
   2  -5163.1967087 -0.167135E-03  0.599E-03    2.84       1.0  T
   3  -5163.1967173 -0.862853E-05  0.322E-03    2.84       1.0  T
   4  -5163.1967185 -0.125298E-05  0.850E-04    2.84       1.9  T
   5  -5163.1967194 -0.866829E-06  0.320E-04    2.84       5.1  T
   6  -5163.1967195 -0.837554E-07  0.159E-04    2.84      10.2  T
     SCC iter.                  ...       15 min,  6.568 sec
     gradient                   ...        5 min, 14.334 sec
 * total energy  : -5102.5951311 Eh     change    :  -0.7533691E-01 Eh
   gradient norm :     0.7617201 Eh/a0  converged?    E=F G=F D=F
   time step     :     0.2500000 fs     power     :   0.3858017E-05
   step length   :     0.0957288 a0     speed     :   0.9262275E-02

........................................................................
.............................. CYCLE    2 ..............................
........................................................................

 iter      E             dE          RMSdq      gap      omega  full diag
   1  -5163.5041639 -0.516350E+04  0.167E-02    2.89       0.0  T
   2  -5163.5045081 -0.344222E-03  0.872E-03    2.89       1.0  T
   3  -5163.5045260 -0.178215E-04  0.468E-03    2.89       1.0  T
   4  -5163.5045288 -0.284992E-05  0.123E-03    2.89       1.3  T
   5  -5163.5045306 -0.181312E-05  0.474E-04    2.89       3.4  T
   6  -5163.5045308 -0.184955E-06  0.241E-04    2.89       6.7  T
   7  -5163.5045309 -0.522386E-07  0.135E-04    2.89      12.1  T
     SCC iter.                  ...       17 min, 38.051 sec
     gradient                   ...        5 min, 14.384 sec
 * total energy  : -5102.6962247 Eh     change    :  -0.1010936E+00 Eh
   gradient norm :     0.6837056 Eh/a0  converged?    E=F G=F D=F
   time step     :     0.2500000 fs     power     :   0.5066770E-05
   step length   :     0.1402585 a0     speed     :   0.1357076E-01

........................................................................
.............................. CYCLE    3 ..............................
........................................................................

 iter      E             dE          RMSdq      gap      omega  full diag
   1  -5163.8989111 -0.516390E+04  0.210E-02    2.95       0.0  T
   2  -5163.8994357 -0.524540E-03  0.111E-02    2.94       1.0  T
   3  -5163.8994626 -0.269334E-04  0.590E-03    2.95       1.0  T
   4  -5163.8994674 -0.482635E-05  0.153E-03    2.95       1.1  T
   5  -5163.8994702 -0.279131E-05  0.584E-04    2.95       2.8  T
   6  -5163.8994705 -0.272079E-06  0.294E-04    2.95       5.5  T
   7  -5163.8994706 -0.757364E-07  0.163E-04    2.95      10.0  T
     SCC iter.                  ...       17 min, 39.264 sec
     gradient                   ...        5 min, 15.743 sec
 * total energy  : -5102.8100463 Eh     change    :  -0.1138216E+00 Eh
   gradient norm :     0.5886194 Eh/a0  converged?    E=F G=F D=F
   time step     :     0.2500000 fs     power     :   0.5557981E-05
   step length   :     0.1801504 a0     speed     :   0.1743052E-01

........................................................................
.............................. CYCLE    4 ..............................
........................................................................

 iter      E             dE          RMSdq      gap      omega  full diag
   1  -5164.3681131 -0.516437E+04  0.243E-02    3.02       0.0  T
   2  -5164.3687717 -0.658635E-03  0.129E-02    3.02       1.0  T
   3  -5164.3688051 -0.334365E-04  0.682E-03    3.02       1.0  T
   4  -5164.3688124 -0.731380E-05  0.175E-03    3.02       1.0  T
   5  -5164.3688161 -0.361523E-05  0.667E-04    3.02       2.4  T
   6  -5164.3688164 -0.341770E-06  0.338E-04    3.02       4.8  T
   7  -5164.3688165 -0.981554E-07  0.184E-04    3.02       8.8  T
     SCC iter.                  ...       17 min, 39.079 sec
     gradient                   ...        5 min, 14.887 sec
 * total energy  : -5102.9227820 Eh     change    :  -0.1127357E+00 Eh
   gradient norm :     0.4853348 Eh/a0  converged?    E=F G=F D=F
   time step     :     0.2500000 fs     power     :   0.5321954E-05
   step length   :     0.2141461 a0     speed     :   0.2071978E-01

........................................................................
.............................. CYCLE    5 ..............................
........................................................................

 iter      E             dE          RMSdq      gap      omega  full diag
   1  -5164.8969780 -0.516490E+04  0.263E-02    3.10       0.0  T
   2  -5164.8976870 -0.708998E-03  0.142E-02    3.10       1.0  T
   3  -5164.8977221 -0.351300E-04  0.736E-03    3.10       1.0  T
   4  -5164.8977323 -0.102455E-04  0.186E-03    3.10       1.0  T
   5  -5164.8977364 -0.406445E-05  0.710E-04    3.10       2.3  T
   6  -5164.8977368 -0.364862E-06  0.360E-04    3.10       4.5  T
   7  -5164.8977369 -0.108915E-06  0.192E-04    3.10       8.4  T
     SCC iter.                  ...       17 min, 40.652 sec
     gradient                   ...        5 min, 16.659 sec
 * total energy  : -5103.0221997 Eh     change    :  -0.9941770E-01 Eh
   gradient norm :     0.3866530 Eh/a0  converged?    E=F G=F D=F
   time step     :     0.2500000 fs     power     :   0.4475546E-05
   step length   :     0.2411850 a0     speed     :   0.2333595E-01

........................................................................
.............................. CYCLE    6 ..............................
........................................................................

 iter      E             dE          RMSdq      gap      omega  full diag
   1  -5165.5294686 -0.516553E+04  0.300E-02    3.19       0.0  T
   2  -5165.5302806 -0.812022E-03  0.165E-02    3.19       1.0  T
   3  -5165.5303186 -0.379668E-04  0.826E-03    3.20       1.0  T
   4  -5165.5303352 -0.166146E-04  0.206E-03    3.19       1.0  T
   5  -5165.5303401 -0.487125E-05  0.786E-04    3.19       2.1  T
   6  -5165.5303405 -0.402842E-06  0.392E-04    3.19       4.1  T
   7  -5165.5303406 -0.123394E-06  0.205E-04    3.19       7.9  T
     SCC iter.                  ...       17 min, 37.589 sec
     gradient                   ...        5 min, 23.316 sec
 * total energy  : -5103.1065346 Eh     change    :  -0.8433486E-01 Eh
   gradient norm :     0.3048494 Eh/a0  converged?    E=F G=F D=F
   time step     :     0.2750000 fs     power     :   0.3098348E-05
   step length   :     0.2884722 a0     speed     :   0.2537385E-01

........................................................................
.............................. CYCLE    7 ..............................
........................................................................

 iter      E             dE          RMSdq      gap      omega  full diag
   1  -5166.2488303 -0.516625E+04  0.323E-02    3.29       0.0  T
   2  -5166.2496531 -0.822774E-03  0.182E-02    3.29       1.0  T
   3  -5166.2496875 -0.344146E-04  0.869E-03    3.30       1.0  T
   4  -5166.2497113 -0.238569E-04  0.210E-03    3.29       1.0  T
   5  -5166.2497163 -0.498274E-05  0.821E-04    3.29       2.0  T
   6  -5166.2497167 -0.374281E-06  0.390E-04    3.29       4.2  T
   7  -5166.2497168 -0.113695E-06  0.199E-04    3.29       8.2  T
     SCC iter.                  ...       17 min, 38.134 sec
     gradient                   ...        5 min, 14.044 sec
 * total energy  : -5103.1642580 Eh     change    :  -0.5772346E-01 Eh
   gradient norm :     0.2754243 Eh/a0  converged?    E=F G=F D=F
   time step     :     0.3025000 fs     power     :   0.1495510E-05
   step length   :     0.3302901 a0     speed     :   0.2641103E-01

........................................................................
.............................. CYCLE    8 ..............................
........................................................................

 iter      E             dE          RMSdq      gap      omega  full diag
   1  -5167.0036668 -0.516700E+04  0.332E-02    3.38       0.0  T
   2  -5167.0044815 -0.814661E-03  0.189E-02    3.38       1.0  T
   3  -5167.0045142 -0.327179E-04  0.880E-03    3.39       1.0  T
   4  -5167.0045385 -0.242790E-04  0.198E-03    3.39       1.0  T
   5  -5167.0045430 -0.448364E-05  0.825E-04    3.39       2.0  T
   6  -5167.0045433 -0.311706E-06  0.369E-04    3.39       4.4  T
   7  -5167.0045434 -0.849050E-07  0.171E-04    3.39       9.5  T
     SCC iter.                  ...       17 min, 43.994 sec
     gradient                   ...        5 min, 14.900 sec
 * total energy  : -5103.1924616 Eh     change    :  -0.2820356E-01 Eh
   gradient norm :     0.3039778 Eh/a0  converged?    E=F G=F D=F
   time step     :     0.3327500 fs     power     :   0.1889463E-06
   step length   :     0.3567710 a0     speed     :   0.2593502E-01

........................................................................
.............................. CYCLE    9 ..............................
........................................................................

 iter      E             dE          RMSdq      gap      omega  full diag
   1  -5167.7212321 -0.516772E+04  0.331E-02    3.44       0.0  T
   2  -5167.7220968 -0.864713E-03  0.188E-02    3.44       1.0  T
   3  -5167.7221342 -0.374467E-04  0.899E-03    3.45       1.0  T
   4  -5167.7221512 -0.169646E-04  0.177E-03    3.44       1.0  T
   5  -5167.7221551 -0.385885E-05  0.807E-04    3.44       2.0  T
   6  -5167.7221553 -0.245072E-06  0.307E-04    3.44       5.3  T
   7  -5167.7221554 -0.443051E-07  0.130E-04    3.44      12.5  T
     SCC iter.                  ...       17 min, 40.036 sec
     gradient                   ...        5 min, 13.858 sec
 * total energy  : -5103.2002481 Eh     change    :  -0.7786513E-02 Eh
   gradient norm :     0.3480867 Eh/a0  converged?    E=F G=F D=F
   time step     :     0.3660250 fs     power     :  -0.4501782E-06
   step length   :     0.3657248 a0     speed     :   0.2416901E-01

........................................................................
.............................. CYCLE   10 ..............................
........................................................................
 * reset velocities

 iter      E             dE          RMSdq      gap      omega  full diag
   1  -5167.7122040 -0.516771E+04  0.138E-03    3.44       0.0  T
   2  -5167.7122060 -0.197793E-05  0.744E-04    3.44       2.2  T
   3  -5167.7122060 -0.739628E-07  0.388E-04    3.44       4.2  T
   4  -5167.7122060 -0.162254E-07  0.891E-05    3.44      18.2  T
     SCC iter.                  ...       10 min,  5.068 sec
     gradient                   ...        5 min, 14.222 sec
 * total energy  : -5103.2040124 Eh     change    :  -0.3764293E-02 Eh
   gradient norm :     0.3406747 Eh/a0  converged?    E=F G=F D=F
   time step     :     0.1830125 fs     power     :   0.2699955E-06
   step length   :     0.0109310 a0     speed     :   0.1444751E-02

........................................................................
.............................. CYCLE   11 ..............................
........................................................................

 iter      E             dE          RMSdq      gap      omega  full diag
   1  -5167.6925651 -0.516769E+04  0.272E-03    3.43       0.0  T
   2  -5167.6925728 -0.770474E-05  0.147E-03    3.43       1.1  T
   3  -5167.6925731 -0.303595E-06  0.771E-04    3.43       2.1  T
   4  -5167.6925732 -0.724840E-07  0.180E-04    3.43       9.0  T
     SCC iter.                  ...       10 min,  4.974 sec
     gradient                   ...        5 min, 15.860 sec
 * total energy  : -5103.2112232 Eh     change    :  -0.7210787E-02 Eh
   gradient norm :     0.3261549 Eh/a0  converged?    E=F G=F D=F
   time step     :     0.1830125 fs     power     :   0.5113645E-06
   step length   :     0.0216290 a0     speed     :   0.2858712E-02

........................................................................
.............................. CYCLE   12 ..............................
........................................................................

 iter      E             dE          RMSdq      gap      omega  full diag
   1  -5167.6637905 -0.516766E+04  0.399E-03    3.42       0.0  T
   2  -5167.6638069 -0.163346E-04  0.217E-03    3.42       1.0  T
   3  -5167.6638075 -0.647733E-06  0.113E-03    3.42       1.4  T
   4  -5167.6638077 -0.166620E-06  0.265E-04    3.42       6.1  T
   5  -5167.6638078 -0.973823E-07  0.911E-05    3.42      17.8  T
     SCC iter.                  ...       12 min, 35.749 sec
     gradient                   ...        5 min, 15.210 sec
 * total energy  : -5103.2212778 Eh     change    :  -0.1005459E-01 Eh
   gradient norm :     0.3050925 Eh/a0  converged?    E=F G=F D=F
   time step     :     0.1830125 fs     power     :   0.7043569E-06
   step length   :     0.0318694 a0     speed     :   0.4212195E-02

........................................................................
.............................. CYCLE   13 ..............................
........................................................................

 iter      E             dE          RMSdq      gap      omega  full diag
   1  -5167.6267523 -0.516763E+04  0.515E-03    3.41       0.0  T
   2  -5167.6267790 -0.266896E-04  0.280E-03    3.41       1.0  T
   3  -5167.6267801 -0.103697E-05  0.146E-03    3.41       1.1  T
   4  -5167.6267804 -0.279771E-06  0.338E-04    3.41       4.8  T
   5  -5167.6267805 -0.160529E-06  0.117E-04    3.41      13.9  T
     SCC iter.                  ...       12 min, 37.383 sec
     gradient                   ...        5 min, 12.988 sec
 * total energy  : -5103.2333491 Eh     change    :  -0.1207132E-01 Eh
   gradient norm :     0.2782951 Eh/a0  converged?    E=F G=F D=F
   time step     :     0.1830125 fs     power     :   0.8340457E-06
   step length   :     0.0414424 a0     speed     :   0.5477456E-02

........................................................................
.............................. CYCLE   14 ..............................
........................................................................

 iter      E             dE          RMSdq      gap      omega  full diag
   1  -5167.5826879 -0.516758E+04  0.617E-03    3.39       0.0  T
   2  -5167.5827250 -0.371420E-04  0.337E-03    3.39       1.0  T
   3  -5167.5827265 -0.142626E-05  0.174E-03    3.39       1.0  T
   4  -5167.5827269 -0.424391E-06  0.401E-04    3.39       4.0  T
   5  -5167.5827271 -0.229694E-06  0.140E-04    3.39      11.6  T
     SCC iter.                  ...       12 min, 37.853 sec
     gradient                   ...        5 min, 16.753 sec
 * total energy  : -5103.2464706 Eh     change    :  -0.1312147E-01 Eh
   gradient norm :     0.2469632 Eh/a0  converged?    E=F G=F D=F
   time step     :     0.1830125 fs     power     :   0.8920737E-06
   step length   :     0.0501567 a0     speed     :   0.6629230E-02

........................................................................
.............................. CYCLE   15 ..............................
........................................................................

 iter      E             dE          RMSdq      gap      omega  full diag
   1  -5167.5332688 -0.516753E+04  0.702E-03    3.37       0.0  T
   2  -5167.5333149 -0.460625E-04  0.387E-03    3.38       1.0  T
   3  -5167.5333166 -0.173785E-05  0.197E-03    3.37       1.0  T
   4  -5167.5333172 -0.590512E-06  0.449E-04    3.37       3.6  T
   5  -5167.5333175 -0.295237E-06  0.159E-04    3.37      10.2  T
     SCC iter.                  ...       12 min, 37.607 sec
     gradient                   ...        5 min, 22.256 sec
 * total energy  : -5103.2596369 Eh     change    :  -0.1316637E-01 Eh
   gradient norm :     0.2127268 Eh/a0  converged?    E=F G=F D=F
   time step     :     0.1830125 fs     power     :   0.8775813E-06
   step length   :     0.0578450 a0     speed     :   0.7645398E-02

........................................................................
.............................. CYCLE   16 ..............................
........................................................................

 iter      E             dE          RMSdq      gap      omega  full diag
   1  -5167.4749554 -0.516747E+04  0.853E-03    3.35       0.0  T
   2  -5167.4750192 -0.637692E-04  0.474E-03    3.35       1.0  T
   3  -5167.4750215 -0.233079E-05  0.237E-03    3.35       1.0  T
   4  -5167.4750225 -0.956729E-06  0.533E-04    3.35       3.0  T
   5  -5167.4750229 -0.426749E-06  0.190E-04    3.35       8.6  T
     SCC iter.                  ...       12 min, 38.307 sec
     gradient                   ...        5 min, 15.006 sec
 * total energy  : -5103.2731257 Eh     change    :  -0.1348880E-01 Eh
   gradient norm :     0.1742674 Eh/a0  converged?    E=F G=F D=F
   time step     :     0.2013138 fs     power     :   0.7856438E-06
   step length   :     0.0715233 a0     speed     :   0.8593883E-02

........................................................................
.............................. CYCLE   17 ..............................
........................................................................

 iter      E             dE          RMSdq      gap      omega  full diag
   1  -5167.4103540 -0.516741E+04  0.100E-02    3.33       0.0  T
   2  -5167.4104340 -0.799457E-04  0.562E-03    3.33       1.0  T
   3  -5167.4104368 -0.275686E-05  0.274E-03    3.33       1.0  T
   4  -5167.4104383 -0.151040E-05  0.603E-04    3.33       2.7  T
   5  -5167.4104388 -0.566232E-06  0.218E-04    3.33       7.4  T
   6  -5167.4104389 -0.327082E-07  0.123E-04    3.33      13.2  T
     SCC iter.                  ...       15 min,  7.440 sec
     gradient                   ...        5 min, 18.454 sec
 * total energy  : -5103.2855388 Eh     change    :  -0.1241302E-01 Eh
   gradient norm :     0.1367010 Eh/a0  converged?    E=F G=F D=F
   time step     :     0.2214451 fs     power     :   0.6146409E-06
   step length   :     0.0861211 a0     speed     :   0.9407159E-02

........................................................................
.............................. CYCLE   18 ..............................
........................................................................

 iter      E             dE          RMSdq      gap      omega  full diag
   1  -5167.3464041 -0.516735E+04  0.112E-02    3.30       0.0  T
   2  -5167.3464909 -0.867879E-04  0.641E-03    3.30       1.0  T
   3  -5167.3464935 -0.258962E-05  0.297E-03    3.30       1.0  T
   4  -5167.3464958 -0.230033E-05  0.634E-04    3.30       2.6  T
   5  -5167.3464965 -0.655486E-06  0.230E-04    3.30       7.1  T
   6  -5167.3464965 -0.347227E-07  0.124E-04    3.30      13.1  T
     SCC iter.                  ...       15 min,  8.183 sec
     gradient                   ...        5 min, 16.592 sec
 * total energy  : -5103.2953429 Eh     change    :  -0.9804144E-02 Eh
   gradient norm :     0.1125353 Eh/a0  converged?    E=F G=F D=F
   time step     :     0.2435896 fs     power     :   0.3878524E-06
   step length   :     0.1005064 a0     speed     :   0.9980444E-02

........................................................................
.............................. CYCLE   19 ..............................
........................................................................

 iter      E             dE          RMSdq      gap      omega  full diag
   1  -5167.2970102 -0.516730E+04  0.118E-02    3.28       0.0  T
   2  -5167.2970864 -0.761923E-04  0.689E-03    3.28       1.0  T
   3  -5167.2970879 -0.148347E-05  0.292E-03    3.28       1.0  T
   4  -5167.2970912 -0.331068E-05  0.596E-04    3.28       2.7  T
   5  -5167.2970918 -0.607281E-06  0.227E-04    3.28       7.1  T
   6  -5167.2970918 -0.321361E-07  0.118E-04    3.28      13.8  T
     SCC iter.                  ...       15 min,  9.613 sec
     gradient                   ...        5 min, 16.850 sec
 * total energy  : -5103.3016208 Eh     change    :  -0.6277864E-02 Eh
   gradient norm :     0.1164165 Eh/a0  converged?    E=F G=F D=F
   time step     :     0.2679486 fs     power     :   0.1694397E-06
   step length   :     0.1122555 a0     speed     :   0.1013377E-01

........................................................................
.............................. CYCLE   20 ..............................
........................................................................

 iter      E             dE          RMSdq      gap      omega  full diag
   1  -5167.2793445 -0.516728E+04  0.115E-02    3.26       0.0  T
   2  -5167.2793979 -0.533339E-04  0.687E-03    3.26       1.0  T
   3  -5167.2793978  0.527662E-07  0.256E-03    3.26       1.0  T
   4  -5167.2794018 -0.398782E-05  0.485E-04    3.26       3.3  T
   5  -5167.2794022 -0.410813E-06  0.204E-04    3.26       8.0  T
   6  -5167.2794023 -0.238151E-07  0.101E-04    3.26      16.1  T
     SCC iter.                  ...       15 min,  8.282 sec
     gradient                   ...        5 min, 14.713 sec
 * total energy  : -5103.3050427 Eh     change    :  -0.3421951E-02 Eh
   gradient norm :     0.1403522 Eh/a0  converged?    E=F G=F D=F
   time step     :     0.2947435 fs     power     :   0.4298456E-07
   step length   :     0.1190039 a0     speed     :   0.9766350E-02
 * RMSD in coord.:     0.0328260 a0     energy gain  -0.7852485E+00 Eh

........................................................................
.............................. CYCLE   21 ..............................
........................................................................

 iter      E             dE          RMSdq      gap      omega  full diag
   1  -5167.2975383 -0.516730E+04  0.832E-03    3.25       0.0  T
   2  -5167.2975600 -0.216935E-04  0.501E-03    3.25       1.0  T
   3  -5167.2975597  0.311972E-06  0.168E-03    3.25       1.0  T
   4  -5167.2975617 -0.205964E-05  0.288E-04    3.25       5.6  T
   5  -5167.2975619 -0.144862E-06  0.136E-04    3.25      11.9  T
   6  -5167.2975619 -0.100363E-07  0.599E-05    3.25      27.1  T
     SCC iter.                  ...       15 min, 11.241 sec
     gradient                   ...        5 min, 18.286 sec
 * total energy  : -5103.3072761 Eh     change    :  -0.2233342E-02 Eh
   gradient norm :     0.1588037 Eh/a0  converged?    E=F G=F D=F
   time step     :     0.2500000 fs     power     :   0.6186816E-07
   step length   :     0.0936941 a0     speed     :   0.9065406E-02

........................................................................
.............................. CYCLE   22 ..............................
........................................................................

 iter      E             dE          RMSdq      gap      omega  full diag
   1  -5167.3469044 -0.516735E+04  0.723E-03    3.25       0.0  T
   2  -5167.3469217 -0.172792E-04  0.431E-03    3.25       1.0  T
   3  -5167.3469218 -0.107215E-06  0.149E-03    3.25       1.1  T
   4  -5167.3469228 -0.104500E-05  0.225E-04    3.25       7.2  T
   5  -5167.3469229 -0.918862E-07  0.110E-04    3.25      14.7  T
   6  -5167.3469229 -0.510681E-08  0.357E-05    3.25      45.4  T
     SCC iter.                  ...       15 min,  8.274 sec
     gradient                   ...        5 min, 19.631 sec
 * total energy  : -5103.3106761 Eh     change    :  -0.3399987E-02 Eh
   gradient norm :     0.1681340 Eh/a0  converged?    E=F G=F D=F
   time step     :     0.2500000 fs     power     :   0.1478287E-06
   step length   :     0.0877847 a0     speed     :   0.8493637E-02

........................................................................
.............................. CYCLE   23 ..............................
........................................................................

 iter      E             dE          RMSdq      gap      omega  full diag
   1  -5167.4236810 -0.516742E+04  0.669E-03    3.25       0.0  T
   2  -5167.4237017 -0.207167E-04  0.388E-03    3.25       1.0  T
   3  -5167.4237022 -0.469116E-06  0.153E-03    3.25       1.1  T
   4  -5167.4237027 -0.517391E-06  0.211E-04    3.25       7.7  T
   5  -5167.4237028 -0.766186E-07  0.105E-04    3.25      15.5  T
     SCC iter.                  ...       12 min, 39.631 sec
     gradient                   ...        5 min, 16.079 sec
 * total energy  : -5103.3158890 Eh     change    :  -0.5212989E-02 Eh
   gradient norm :     0.1672308 Eh/a0  converged?    E=F G=F D=F
   time step     :     0.2500000 fs     power     :   0.2540369E-06
   step length   :     0.0845258 a0     speed     :   0.8178321E-02

........................................................................
.............................. CYCLE   24 ..............................
........................................................................

 iter      E             dE          RMSdq      gap      omega  full diag
   1  -5167.5231727 -0.516752E+04  0.668E-03    3.26       0.0  T
   2  -5167.5232005 -0.277889E-04  0.375E-03    3.26       1.0  T
   3  -5167.5232012 -0.687729E-06  0.164E-03    3.26       1.0  T
   4  -5167.5232016 -0.397875E-06  0.245E-04    3.26       6.6  T
   5  -5167.5232017 -0.972168E-07  0.120E-04    3.26      13.6  T
     SCC iter.                  ...       12 min, 40.468 sec
     gradient                   ...        5 min, 15.648 sec
 * total energy  : -5103.3228025 Eh     change    :  -0.6913496E-02 Eh
   gradient norm :     0.1569567 Eh/a0  converged?    E=F G=F D=F
   time step     :     0.2500000 fs     power     :   0.3431475E-06
   step length   :     0.0840270 a0     speed     :   0.8130064E-02

........................................................................
.............................. CYCLE   25 ..............................
........................................................................

 iter      E             dE          RMSdq      gap      omega  full diag
   1  -5167.6399804 -0.516764E+04  0.701E-03    3.27       0.0  T
   2  -5167.6400157 -0.352937E-04  0.386E-03    3.27       1.0  T
   3  -5167.6400166 -0.857260E-06  0.176E-03    3.27       1.0  T
   4  -5167.6400170 -0.448956E-06  0.305E-04    3.27       5.3  T
   5  -5167.6400172 -0.155585E-06  0.142E-04    3.27      11.5  T
     SCC iter.                  ...       12 min, 39.266 sec
     gradient                   ...        5 min, 14.944 sec
 * total energy  : -5103.3307819 Eh     change    :  -0.7979398E-02 Eh
   gradient norm :     0.1392189 Eh/a0  converged?    E=F G=F D=F
   time step     :     0.2500000 fs     power     :   0.3914102E-06
   step length   :     0.0856370 a0     speed     :   0.8285841E-02

........................................................................
.............................. CYCLE   26 ..............................
........................................................................

 iter      E             dE          RMSdq      gap      omega  full diag
   1  -5167.7819283 -0.516778E+04  0.829E-03    3.29       0.0  T
   2  -5167.7819790 -0.507088E-04  0.455E-03    3.29       1.0  T
   3  -5167.7819802 -0.119151E-05  0.208E-03    3.29       1.0  T
   4  -5167.7819809 -0.734111E-06  0.404E-04    3.29       4.0  T
   5  -5167.7819812 -0.279203E-06  0.176E-04    3.29       9.2  T
     SCC iter.                  ...       12 min, 37.285 sec
     gradient                   ...        5 min, 14.635 sec
 * total energy  : -5103.3397595 Eh     change    :  -0.8977583E-02 Eh
   gradient norm :     0.1144341 Eh/a0  converged?    E=F G=F D=F
   time step     :     0.2750000 fs     power     :   0.3842182E-06
   step length   :     0.0978936 a0     speed     :   0.8610662E-02

........................................................................
.............................. CYCLE   27 ..............................
........................................................................

 iter      E             dE          RMSdq      gap      omega  full diag
   1  -5167.9433734 -0.516794E+04  0.971E-03    3.31       0.0  T
   2  -5167.9434400 -0.665435E-04  0.536E-03    3.31       1.0  T
   3  -5167.9434414 -0.148490E-05  0.241E-03    3.31       1.0  T
   4  -5167.9434427 -0.126369E-05  0.496E-04    3.31       3.3  T
   5  -5167.9434431 -0.419835E-06  0.209E-04    3.31       7.8  T
   6  -5167.9434432 -0.306245E-07  0.119E-04    3.31      13.7  T
     SCC iter.                  ...       15 min,  8.347 sec
     gradient                   ...        5 min, 14.774 sec
 * total energy  : -5103.3484523 Eh     change    :  -0.8692833E-02 Eh
   gradient norm :     0.0882751 Eh/a0  converged?    E=F G=F D=F
   time step     :     0.3025000 fs     power     :   0.3132656E-06
   step length   :     0.1125043 a0     speed     :   0.8996194E-02

........................................................................
.............................. CYCLE   28 ..............................
........................................................................

 iter      E             dE          RMSdq      gap      omega  full diag
   1  -5168.1097993 -0.516811E+04  0.110E-02    3.34       0.0  T
   2  -5168.1098763 -0.769787E-04  0.612E-03    3.33       1.0  T
   3  -5168.1098779 -0.156891E-05  0.266E-03    3.34       1.0  T
   4  -5168.1098799 -0.202235E-05  0.544E-04    3.33       3.0  T
   5  -5168.1098804 -0.495557E-06  0.222E-04    3.34       7.3  T
   6  -5168.1098804 -0.325736E-07  0.122E-04    3.33      13.3  T
     SCC iter.                  ...       15 min,  9.949 sec
     gradient                   ...        5 min, 15.948 sec
 * total energy  : -5103.3554119 Eh     change    :  -0.6959583E-02 Eh
   gradient norm :     0.0750684 Eh/a0  converged?    E=F G=F D=F
   time step     :     0.3327500 fs     power     :   0.1971083E-06
   step length   :     0.1277965 a0     speed     :   0.9290008E-02

........................................................................
.............................. CYCLE   29 ..............................
........................................................................

 iter      E             dE          RMSdq      gap      omega  full diag
   1  -5168.2534422 -0.516825E+04  0.115E-02    3.36       0.0  T
   2  -5168.2535163 -0.740823E-04  0.649E-03    3.35       1.0  T
   3  -5168.2535177 -0.146354E-05  0.273E-03    3.36       1.0  T
   4  -5168.2535204 -0.266977E-05  0.524E-04    3.35       3.1  T
   5  -5168.2535208 -0.445495E-06  0.227E-04    3.36       7.1  T
   6  -5168.2535209 -0.318478E-07  0.121E-04    3.36      13.5  T
     SCC iter.                  ...       15 min,  7.189 sec
     gradient                   ...        5 min, 16.316 sec
 * total energy  : -5103.3600372 Eh     change    :  -0.4625257E-02 Eh
   gradient norm :     0.0851491 Eh/a0  converged?    E=F G=F D=F
   time step     :     0.3660250 fs     power     :   0.9425989E-07
   step length   :     0.1402229 a0     speed     :   0.9266664E-02

........................................................................
.............................. CYCLE   30 ..............................
........................................................................

 iter      E             dE          RMSdq      gap      omega  full diag
   1  -5168.3460801 -0.516835E+04  0.111E-02    3.37       0.0  T
   2  -5168.3461391 -0.590434E-04  0.635E-03    3.36       1.0  T
   3  -5168.3461403 -0.120354E-05  0.258E-03    3.37       1.0  T
   4  -5168.3461431 -0.272914E-05  0.455E-04    3.36       3.6  T
   5  -5168.3461434 -0.338745E-06  0.213E-04    3.36       7.6  T
   6  -5168.3461434 -0.251985E-07  0.968E-05    3.36      16.8  T
     SCC iter.                  ...       15 min,  6.643 sec
     gradient                   ...        5 min, 18.417 sec
 * total energy  : -5103.3634455 Eh     change    :  -0.3408287E-02 Eh
   gradient norm :     0.1021924 Eh/a0  converged?    E=F G=F D=F
   time step     :     0.4026275 fs     power     :   0.6140173E-07
   step length   :     0.1479746 a0     speed     :   0.8889939E-02

........................................................................
.............................. CYCLE   31 ..............................
........................................................................

 iter      E             dE          RMSdq      gap      omega  full diag
   1  -5168.3701897 -0.516837E+04  0.104E-02    3.36       0.0  T
   2  -5168.3702353 -0.456110E-04  0.603E-03    3.36       1.0  T
   3  -5168.3702362 -0.917636E-06  0.235E-03    3.36       1.0  T
   4  -5168.3702386 -0.239047E-05  0.404E-04    3.36       4.0  T
   5  -5168.3702389 -0.282422E-06  0.191E-04    3.36       8.5  T
   6  -5168.3702389 -0.162700E-07  0.679E-05    3.36      23.9  T
     SCC iter.                  ...       15 min,  9.052 sec
     gradient                   ...        5 min, 18.425 sec
 * total energy  : -5103.3677160 Eh     change    :  -0.4270538E-02 Eh
   gradient norm :     0.1087943 Eh/a0  converged?    E=F G=F D=F
   time step     :     0.4428903 fs     power     :   0.9536987E-07
   step length   :     0.1552859 a0     speed     :   0.8481075E-02

........................................................................
.............................. CYCLE   32 ..............................
........................................................................

 iter      E             dE          RMSdq      gap      omega  full diag
   1  -5168.3181652 -0.516832E+04  0.103E-02    3.35       0.0  T
   2  -5168.3182140 -0.488799E-04  0.601E-03    3.35       1.0  T
   3  -5168.3182150 -0.931748E-06  0.233E-03    3.35       1.0  T
   4  -5168.3182169 -0.192775E-05  0.427E-04    3.35       3.8  T
   5  -5168.3182172 -0.341591E-06  0.179E-04    3.35       9.1  T
   6  -5168.3182173 -0.138971E-07  0.862E-05    3.35      18.8  T
     SCC iter.                  ...       15 min,  9.480 sec
     gradient                   ...        5 min, 15.167 sec
 * total energy  : -5103.3741073 Eh     change    :  -0.6391325E-02 Eh
   gradient norm :     0.0984696 Eh/a0  converged?    E=F G=F D=F
   time step     :     0.4871793 fs     power     :   0.1423842E-06
   step length   :     0.1670776 a0     speed     :   0.8295538E-02

........................................................................
.............................. CYCLE   33 ..............................
........................................................................

 iter      E             dE          RMSdq      gap      omega  full diag
   1  -5168.1969056 -0.516820E+04  0.113E-02    3.33       0.0  T
   2  -5168.1969786 -0.730014E-04  0.654E-03    3.33       1.0  T
   3  -5168.1969800 -0.136806E-05  0.265E-03    3.33       1.0  T
   4  -5168.1969816 -0.165122E-05  0.506E-04    3.33       3.2  T
   5  -5168.1969821 -0.500169E-06  0.193E-04    3.33       8.4  T
   6  -5168.1969821 -0.170821E-07  0.961E-05    3.33      16.9  T
     SCC iter.                  ...       15 min, 10.667 sec
     gradient                   ...        5 min, 15.923 sec
 * total energy  : -5103.3816655 Eh     change    :  -0.7558186E-02 Eh
   gradient norm :     0.0765046 Eh/a0  converged?    E=F G=F D=F
   time step     :     0.5358972 fs     power     :   0.1387738E-06
   step length   :     0.1852053 a0     speed     :   0.8359630E-02

........................................................................
.............................. CYCLE   34 ..............................
[...]
  3538   6 C     3541   7 N                                       1.3368081
  3541   7 N     3542   6 C                                       1.4425934
  3541   7 N     3543   1 H                                       1.0181741
  3518   6 C     3544   1 H                                       1.0906209
  3518   6 C     3545   1 H                                       1.0908273
  3525   6 C     3546   8 O                                       1.2298587
  3538   6 C     3547   8 O                                       1.2281201
  3542   6 C     3548   6 C                                       1.5269760
  3542   6 C     3549   1 H                                       1.0960097
  3542   6 C     3550   1 H                                       1.0910956
  3548   6 C     3551   6 C                                       1.5286313
  3548   6 C     3552   1 H                                       1.0916435
  3548   6 C     3553   1 H                                       1.0916224
  3551   6 C     3554   6 C                                       1.5308719
  3551   6 C     3555   1 H                                       1.0903397
  3551   6 C     3556   1 H                                       1.0913989
  3554   6 C     3557   6 C                                       1.5309553
  3554   6 C     3558   1 H                                       1.0910458
  3554   6 C     3559   1 H                                       1.0902609
  3557   6 C     3560   6 C                                       1.5306945
  3557   6 C     3561   1 H                                       1.0911562
  3557   6 C     3562   1 H                                       1.0906600
  3560   6 C     3563   7 N                                       1.4453931
  3560   6 C     3564   1 H                                       1.0963253
  3560   6 C     3565   1 H                                       1.0928977
  3563   7 N     3566   6 C                                       1.3332394
  3563   7 N     3567   1 H                                       1.0144847
  3568   6 C     3569   6 C                                       1.5315366
  3568   6 C     3570   1 H                                       1.0915841
  3568   6 C     3571   1 H                                       1.0915881
  3569   6 C     3572   6 C                                       1.5276142
  3569   6 C     3573   1 H                                       1.0924611
  3569   6 C     3574   1 H                                       1.0917633
  3572   6 C     3575   6 C                                       1.5255930
  3572   6 C     3576   1 H                                       1.0925607
  3572   6 C     3577   1 H                                       1.0925614
  3575   6 C     3579   1 H                                       1.0915240
  3575   6 C     3580   1 H                                       1.0917194
  3578   6 C     3581   7 N                                       1.3279036
  3581   7 N     3582   6 C                                       1.4459170
  3581   7 N     3583   1 H                                       1.0170070
  3566   6 C     3584   8 O                                       1.2312538
  3582   6 C     3585   6 C                                       1.5225315
  3582   6 C     3586   1 H                                       1.0929297
  3582   6 C     3587   1 H                                       1.0967215
  3585   6 C     3588   6 C                                       1.5246388
  3585   6 C     3589   1 H                                       1.0908813
  3585   6 C     3590   1 H                                       1.0892880
  3588   6 C     3591   6 C                                       1.5259029
  3588   6 C     3592   1 H                                       1.0905348
  3588   6 C     3593   1 H                                       1.0910886
  3591   6 C     3594   6 C                                       1.5272413
  3591   6 C     3595   1 H                                       1.0892027
  3591   6 C     3596   1 H                                       1.0922482
  3594   6 C     3597   6 C                                       1.5249459
  3594   6 C     3598   1 H                                       1.0908965
  3594   6 C     3599   1 H                                       1.0897359
  3597   6 C     3600   7 N                                       1.4458730
  3597   6 C     3601   1 H                                       1.0941339
  3597   6 C     3602   1 H                                       1.0928708
  3578   6 C     3603   8 O                                       1.2347718
  3600   7 N     3604   6 C                                       1.3360941
  3600   7 N     3605   1 H                                       1.0143412
  3606   6 C     3607   6 C                                       1.5361139
  3606   6 C     3608   1 H                                       1.0900370
  3606   6 C     3609   1 H                                       1.0895241
  3607   6 C     3610   6 C                                       1.5287650
  3607   6 C     3611   1 H                                       1.0904962
  3607   6 C     3612   1 H                                       1.0914538
  3610   6 C     3613   6 C                                       1.5324174
  3610   6 C     3614   1 H                                       1.0910932
  3610   6 C     3615   1 H                                       1.0907638
  3613   6 C     3617   1 H                                       1.0908332
  3613   6 C     3618   1 H                                       1.0898853
  3616   6 C     3619   7 N                                       1.3253915
  3604   6 C     3620   8 O                                       1.2293279
  3619   7 N     3621   6 C                                       1.4470100
  3619   7 N     3622   1 H                                       1.0174384
  3621   6 C     3623   6 C                                       1.5244144
  3621   6 C     3624   1 H                                       1.0932199
  3621   6 C     3625   1 H                                       1.0968285
  3623   6 C     3626   6 C                                       1.5258418
  3623   6 C     3627   1 H                                       1.0905261
  3623   6 C     3628   1 H                                       1.0906883
  3626   6 C     3629   6 C                                       1.5266467
  3626   6 C     3630   1 H                                       1.0912150
  3626   6 C     3631   1 H                                       1.0910611
  3629   6 C     3632   6 C                                       1.5272997
  3629   6 C     3633   1 H                                       1.0915279
  3629   6 C     3634   1 H                                       1.0917050
  3632   6 C     3635   6 C                                       1.5247628
  3632   6 C     3636   1 H                                       1.0898685
  3632   6 C     3637   1 H                                       1.0912947
  3635   6 C     3638   7 N                                       1.4497346
  3635   6 C     3639   1 H                                       1.0959210
  3635   6 C     3640   1 H                                       1.0924509
  3638   7 N     3641   6 C                                       1.3336496
  3638   7 N     3642   1 H                                       1.0143146
  3616   6 C     3643   8 O                                       1.2396568
  3644   6 C     3645   6 C                                       1.5266841
  3644   6 C     3646   1 H                                       1.0917944
  3644   6 C     3647   1 H                                       1.0917329
  3645   6 C     3648   6 C                                       1.5284496
  3645   6 C     3649   1 H                                       1.0915305
  3645   6 C     3650   1 H                                       1.0900432
  3648   6 C     3651   6 C                                       1.5331160
  3648   6 C     3652   1 H                                       1.0911722
  3648   6 C     3653   1 H                                       1.0923787
  3651   6 C     3655   1 H                                       1.0900828
  3651   6 C     3656   1 H                                       1.0898988
  3654   6 C     3657   7 N                                       1.3394714
  3657   7 N     3658   6 C                                       1.4464483
  3657   7 N     3659   1 H                                       1.0147989
  3641   6 C     3660   8 O                                       1.2340302
  3658   6 C     3661   6 C                                       1.5297765
  3658   6 C     3662   1 H                                       1.0932243
  3658   6 C     3663   1 H                                       1.0955579
  3661   6 C     3664   6 C                                       1.5271185
  3661   6 C     3665   1 H                                       1.0924603
  3661   6 C     3666   1 H                                       1.0906399
  3664   6 C     3667   6 C                                       1.5282143
  3664   6 C     3668   1 H                                       1.0914766
  3664   6 C     3669   1 H                                       1.0889283
  3667   6 C     3670   6 C                                       1.5282361
  3667   6 C     3671   1 H                                       1.0927066
  3667   6 C     3672   1 H                                       1.0909391
  3670   6 C     3673   6 C                                       1.5219744
  3670   6 C     3674   1 H                                       1.0906033
  3670   6 C     3675   1 H                                       1.0912463
  3673   6 C     3676   7 N                                       1.4505726
  3673   6 C     3677   1 H                                       1.0971477
  3673   6 C     3678   1 H                                       1.0958997
  3676   7 N     3679   6 C                                       1.3313131
  3676   7 N     3680   1 H                                       1.0164920
  3654   6 C     3681   8 O                                       1.2292704
  3682   6 C     3683   6 C                                       1.5310781
  3682   6 C     3684   1 H                                       1.0908798
  3682   6 C     3685   1 H                                       1.0893446
  3683   6 C     3686   6 C                                       1.5287539
  3683   6 C     3687   1 H                                       1.0917983
  3683   6 C     3688   1 H                                       1.0914827
  3686   6 C     3689   6 C                                       1.5315399
  3686   6 C     3690   1 H                                       1.0921140
  3686   6 C     3691   1 H                                       1.0910188
  3689   6 C     3693   1 H                                       1.0917776
  3689   6 C     3694   1 H                                       1.0895267
  3692   6 C     3695   7 N                                       1.3378001
  3679   6 C     3696   8 O                                       1.2337032
  3695   7 N     3697   6 C                                       1.4485033
  3695   7 N     3698   1 H                                       1.0081384
  3697   6 C     3699   6 C                                       1.5262393
  3697   6 C     3700   1 H                                       1.0912697
  3697   6 C     3701   1 H                                       1.0963194
  3699   6 C     3702   6 C                                       1.5291685
  3699   6 C     3703   1 H                                       1.0927774
  3699   6 C     3704   1 H                                       1.0920770
  3702   6 C     3705   6 C                                       1.5281586
  3702   6 C     3706   1 H                                       1.0909384
  3702   6 C     3707   1 H                                       1.0910680
  3705   6 C     3708   6 C                                       1.5286962
  3705   6 C     3709   1 H                                       1.0928698
  3705   6 C     3710   1 H                                       1.0910030
  3708   6 C     3711   6 C                                       1.5252834
  3708   6 C     3712   1 H                                       1.0903482
  3708   6 C     3713   1 H                                       1.0910688
  3711   6 C     3714   7 N                                       1.4488912
  3711   6 C     3715   1 H                                       1.0966965
  3711   6 C     3716   1 H                                       1.0926788
  3714   7 N     3717   6 C                                       1.3338945
  3714   7 N     3718   1 H                                       1.0154990
  3692   6 C     3719   8 O                                       1.2276815
  3720   6 C     3721   6 C                                       1.5345812
  3720   6 C     3722   1 H                                       1.0914554
  3720   6 C     3723   1 H                                       1.0880594
  3721   6 C     3724   6 C                                       1.5268511
  3721   6 C     3725   1 H                                       1.0926961
  3721   6 C     3726   1 H                                       1.0920581
  3724   6 C     3727   6 C                                       1.5339942
  3724   6 C     3728   1 H                                       1.0920594
  3724   6 C     3729   1 H                                       1.0911315
  3727   6 C     3731   1 H                                       1.0913452
  3727   6 C     3732   1 H                                       1.0893963
  3730   6 C     3733   7 N                                       1.3342213
  3733   7 N     3734   6 C                                       1.4490915
  3733   7 N     3735   1 H                                       1.0187772
  3717   6 C     3736   8 O                                       1.2294545
  3734   6 C     3737   6 C                                       1.5270232
  3734   6 C     3738   1 H                                       1.0975434
  3734   6 C     3739   1 H                                       1.0928484
  3737   6 C     3740   6 C                                       1.5275740
  3737   6 C     3741   1 H                                       1.0905932
  3737   6 C     3742   1 H                                       1.0907648
  3740   6 C     3743   6 C                                       1.5312244
  3740   6 C     3744   1 H                                       1.0920276
  3740   6 C     3745   1 H                                       1.0896714
  3743   6 C     3746   6 C                                       1.5293441
  3743   6 C     3747   1 H                                       1.0912442
  3743   6 C     3748   1 H                                       1.0912162
  3746   6 C     3749   6 C                                       1.5239096
  3746   6 C     3750   1 H                                       1.0923766
  3746   6 C     3751   1 H                                       1.0917072
  3749   6 C     3752   7 N                                       1.4485750
  3749   6 C     3753   1 H                                       1.0947373
  3749   6 C     3754   1 H                                       1.0956000
  3752   7 N     3755   6 C                                       1.3322824
  3752   7 N     3756   1 H                                       1.0167710
  3730   6 C     3757   8 O                                       1.2318683
  3758   6 C     3759   6 C                                       1.5315664
  3758   6 C     3760   1 H                                       1.0904768
  3758   6 C     3761   1 H                                       1.0907839
  3759   6 C     3762   6 C                                       1.5292074
  3759   6 C     3763   1 H                                       1.0912784
  3759   6 C     3764   1 H                                       1.0916516
  3762   6 C     3765   6 C                                       1.5324400
  3762   6 C     3766   1 H                                       1.0916166
  3762   6 C     3767   1 H                                       1.0915314
  3765   6 C     3769   1 H                                       1.0876038
  3765   6 C     3770   1 H                                       1.0908488
  3768   6 C     3771   7 N                                       1.3338977
  3755   6 C     3772   8 O                                       1.2314921
  3771   7 N     3773   6 C                                       1.4470216
  3771   7 N     3774   1 H                                       1.0175909
  3773   6 C     3775   6 C                                       1.5251514
  3773   6 C     3776   1 H                                       1.0933026
  3773   6 C     3777   1 H                                       1.0983193
  3775   6 C     3778   6 C                                       1.5280134
  3775   6 C     3779   1 H                                       1.0912160
  3775   6 C     3780   1 H                                       1.0923599
  3778   6 C     3781   6 C                                       1.5275660
  3778   6 C     3782   1 H                                       1.0926002
  3778   6 C     3783   1 H                                       1.0882755
  3781   6 C     3784   6 C                                       1.5298777
  3781   6 C     3785   1 H                                       1.0908618
  3781   6 C     3786   1 H                                       1.0924039
  3784   6 C     3787   6 C                                       1.5320554
  3784   6 C     3788   1 H                                       1.0939382
  3784   6 C     3789   1 H                                       1.0931015
  3787   6 C     3790   7 N                                       1.4616921
  3787   6 C     3791   1 H                                       1.0917082
  3787   6 C     3792   1 H                                       1.0928496
  3790   7 N     3793   1 H                                       1.0154849
  3790   7 N     3794   1 H                                       1.0165752
  3768   6 C     3795   8 O                                       1.2321602

 * 6 distinct bonds (by element types)

   Z      Z             #   av. dist./Å        max./Å        min./Å
   1 H    6 C        1980     1.0918931     1.1024117     1.0861804
   6 C    6 C         791     1.5283873     1.5402018     1.5185396
   1 H    7 N         209     1.0153800     1.0411058     1.0062278
   6 C    7 N         385     1.3933616     1.4635100     1.3243552
   1 H    8 O           2     0.9951577     0.9990242     0.9912912
   6 C    8 O         209     1.2348363     1.3208326     1.2131936


optimized geometry written to: xtbopt.xyz


           -------------------------------------------------
          | TOTAL ENERGY            -5103.682738789792 Eh   |
          | GRADIENT NORM               0.000900917366 Eh/α |
          | HOMO-LUMO GAP               3.450236492980 eV   |
           -------------------------------------------------

------------------------------------------------------------------------
 * finished run on 2024/07/14 at 04:26:27.821     
------------------------------------------------------------------------
 total:
 * wall-time:    18 d,  2 h, 44 min, 29.471 sec
 *  cpu-time:   110 d, 10 h, 32 min, 31.316 sec
 * ratio c/w:     6.097 speedup
 SCF:
 * wall-time:     0 d,  0 h, 13 min, 27.270 sec
 *  cpu-time:     0 d,  1 h, 19 min, 45.228 sec
 * ratio c/w:     5.928 speedup
 ANC optimizer:
 * wall-time:    18 d,  2 h, 29 min, 55.229 sec
 *  cpu-time:   110 d,  9 h, 11 min, 18.908 sec
 * ratio c/w:     6.097 speedup

