3795
 energy: -5103.685614877961 gnorm: 0.000944888558 xtb: 6.6.1 (8d0f1dd)
C          111.11645681830413      128.93798323087694      121.86930651817056
C          109.91597824374352      129.38730364703335      122.66096458200271
C          111.17077578629375      129.44164239138621      120.42709411812122
C          109.90402101291220      129.11082599089846      119.63040743314922
H          111.32978871540227      130.52029773135033      120.42126944994448
H          112.03115603680433      128.97061156160416      119.94898083165636
C          110.20325552499884      128.99396653701612      118.13174770716130
H          109.49962933803864      128.16297141401145      119.98242475091679
H          109.15504123905968      129.88667758088019      119.80371687919563
C          108.95424060948029      129.11035200635018      117.27887355740074
H          110.90401993068321      129.77691075405033      117.84477790761049
H          110.65876115845715      128.02256270407233      117.94003213587739
N          108.07319340172933      128.13431603504239      117.45161539051118
O          109.38699186150137      130.52808548231624      122.29419056703316
O          109.47438332098702      128.73791708167295      123.59618619700417
H          108.55657413587249      130.72132541148000      122.83999427259410
H          111.14348573608524      127.84644056747354      121.91148958228372
H          111.99530504898532      129.29463847976533      122.41278383589929
C          106.80598268855999      128.04775197162306      116.75323301656364
H          108.38779555488999      127.30069117249835      117.95101033252166
C          106.23151481576366      126.63850387590885      116.85194950739775
H          106.10619929802810      128.76298261878273      117.20337561003396
H          106.95006216226236      128.34063248440086      115.70930724250243
C          107.06781723265820      125.59179446340147      116.11482828328514
H          106.16963172597542      126.36714111443503      117.90793581679715
H          105.21744923111522      126.64995130059781      116.44868825618781
C          106.59243598249054      124.17281843537359      116.42422532580031
H          107.01526712024776      125.77397736792963      115.04057625688054
H          108.11117940393412      125.67832244673603      116.41895031932602
C          107.43019863437684      123.12001368912115      115.69779409831598
H          106.67634479099780      124.00626410370292      117.50012647192754
H          105.53970920181584      124.06761238645045      116.15489995866301
C          107.24051567860522      121.72203281096493      116.26849550239568
H          107.17255017431268      123.10593914202218      114.63793579874276
H          108.48759024419503      123.37580519404327      115.78734088364760
N          105.91827470760295      121.19649796422485      115.98864714134146
H          107.99117630209147      121.04475598481972      115.84577751217482
H          107.37858256200339      121.74046434168784      117.35482905211525
C          105.51382090474843      120.00550675249616      116.42986501797490
H          105.36013184353881      121.68629584733678      115.29325245442610
O          108.78089460874170      130.04919189639051      116.49104102325174
C          104.13463961407034      119.57733752770841      115.96085142831272
C          103.16579832170127      119.47762410924564      117.14153999263101
H          103.75775249917127      120.27755710051748      115.21666397243415
H          104.24622268802931      118.59360237905861      115.50356029483341
C          101.76560526214563      119.02073144420714      116.72952482361707
H          103.57308292627717      118.77602901315208      117.87296366034475
H          103.08294311375437      120.45735140225723      117.61741475033486
C          101.77196016020149      117.59587109882601      116.17108189046444
H          101.11780249868336      119.07583031294600      117.60620661706692
H          101.36546609314522      119.70800767284751      115.98100619236075
C          100.39778609388026      117.05933450627955      115.82652838103341
H          102.36172848201147      117.55996546100833      115.25472479048072
H          102.23544193902579      116.91875251246728      116.89449429622037
N           99.53217493220909      116.98234443585041      116.84389969687176
C           98.21433163510632      116.39424773269411      116.72939870088742
H           99.82028300542289      117.28720776794145      117.76131913960968
O          106.19800843176850      119.29790105913479      117.16802403269254
C           97.14607223893655      117.21052223472461      117.45148665023994
H           97.99087873393290      116.31930422069190      115.66446694301597
H           98.23911056948562      115.38079090252661      117.14829194159954
C           96.85229239904302      118.56802249602934      116.81410916794557
H           96.22845430506449      116.62068982868880      117.46502090289049
H           97.45442150745275      117.37020368645119      118.48592698300230
C           96.28882128150747      118.45285961726040      115.39441898204701
H           96.11718453613852      119.07312777005225      117.44422510513516
H           97.75749722901338      119.17649356124380      116.80216987416503
C           95.32498730973451      119.58819514773320      115.04852684420950
H           97.10242719031380      118.44319542973744      114.66751463195918
H           95.74166088996344      117.51313231495169      115.29564367212295
C           95.95616812850724      120.97695596807547      115.13364152418505
N           97.04251615333723      121.11055241703967      114.19201367879805
H           95.19421157137434      121.72826462713252      114.89952681115331
H           96.35419393258945      121.17011734646326      116.13141177402531
C           98.26966786637676      121.52302952730834      114.49535812988533
H           96.81957471729220      120.88404898300382      113.22858213940474
O          100.11656813242645      116.68174989330416      114.69276780453292
C           99.23840110685153      121.50457231120406      113.32862348939021
C           99.66412240825952      120.06425187099293      113.02951663219669
H           98.76736327574515      121.93841117320143      112.44600510399106
H          100.10994700984548      122.10618032934997      113.59206633548986
C          100.83718789293184      120.01158138944065      112.05499171739083
H           99.95010813692760      119.57138370240948      113.96256605234261
H           98.81339306809321      119.52312332281095      112.61043205062842
C          101.31909171915396      118.57670565725959      111.82651391454552
H          100.54553484281683      120.45260396796749      111.09872600380076
H          101.66659517698245      120.60072309690763      112.45437461522634
C          100.27022073421602      117.75425223986271      111.10250520094253
H          102.21050735900393      118.60455131919365      111.19892272140611
H          101.55869671569478      118.10915110214928      112.78068446918392
N           99.67662185888163      116.81275058914670      111.83584407331041
C           98.66079721104919      115.92850112884153      111.30604737501395
H           99.85170993351575      116.75749369242568      112.83312514096274
H           94.95458007353406      119.44274399676782      114.03131517653924
H           94.46897208993265      119.56129297498622      115.72495656114899
O           98.62223803772785      121.85906077399068      115.62648749548782
O          100.01193014410659      117.92999973462760      109.91121432309379
C           98.59317109064841      114.63447069331490      112.10977864693290
H           97.68259845858073      116.42690601985126      111.33652243675878
H           98.90136092468590      115.73636479796039      110.25715023903230
C           99.88159393224404      113.81077048567828      112.09237500989155
H           98.36448049049193      114.89079777470886      113.14564677759800
H           97.77067231631690      114.03395650635326      111.71915320778675
C          100.26059022630588      113.28288282619309      110.70938706411795
H          100.69807483535027      114.41264226162244      112.49311393631031
H           99.73759986856147      112.95974068309188      112.75958527721318
C          101.34785818029576      112.21079114381190      110.79460822247155
H           99.37642134585940      112.85396596295757      110.23342805988941
H          100.61525699958534      114.10095612027975      110.08041532770083
C          101.74321818264752      111.72655165329367      109.39859109182525
H          102.22722372628965      112.61427151238134      111.29821518416055
H          100.98510311953005      111.36139333590120      111.37751351963776
N          102.71967394559282      110.66027815767988      109.41445573571438
H          100.84929397466976      111.36770165869893      108.87897799586160
H          102.17566233494250      112.55220931274827      108.82825621859077
C          103.99377798702028      110.81864732145151      109.04040562568109
H          102.42744416611603      109.75098306258151      109.75667996776772
C          104.81232904917773      109.54466289453664      109.03175778001039
C          104.82481836210100      108.89782476009735      107.64352114169903
H          105.83858836802925      109.78937330879243      109.31091504383721
H          104.39101543664047      108.84039840272899      109.74615825627249
C          103.43563239062321      108.44915911102140      107.20227101770047
H          105.23563819810985      109.59839762700457      106.91302049310352
H          105.48450005081411      108.02790600107065      107.68156493631049
C          103.50421648475113      107.48397621061137      106.01844813402803
H          102.93584257952172      107.95409459410070      108.03797796077451
H          102.83707117696127      109.31635850414126      106.92385101323866
C          102.11472319593410      107.10811554532989      105.54997073476642
H          104.03189495960363      107.95504327628738      105.18546516132713
H          104.04579759788697      106.58040680743713      106.29671360207338
N          101.85735370844426      105.80195200021500      105.53578211989935
C          100.58725177110894      105.26261412417183      105.09108296460340
H          102.57964785416483      105.14810326382278      105.81363609986057
O          104.47133214815319      111.90739941527525      108.72424475821124
C          100.40071753400608      103.82322246109322      105.54985503612014
H           99.79497173903621      105.90729415888276      105.48298873076787
H          100.53680092156769      105.31181645528521      103.99605348441021
C          100.41085368897713      103.66723854080887      107.07049035444787
H           99.44971644348583      103.46420441370481      105.15364655938576
H          101.19690129006018      103.21063076033984      105.12237720944719
C          100.06027998062736      102.23210142178452      107.46533418257977
H          101.40318069862988      103.91797338832097      107.44878210727325
H           99.69760624777807      104.36595839378161      107.50997947198519
C          100.40806664196182      101.88991501991170      108.91365448101632
H           98.99628177075614      102.05728973472661      107.29616061205004
H          100.60901250161319      101.55257156295326      106.81026656150327
C           99.49941738583597      102.59286322539353      109.91969626116448
H          100.30792095002130      100.81106849690532      109.05259601482216
H          101.44711137933965      102.15910842290356      109.11587111773933
N           99.81140287278554      102.17055227568703      111.26926281604520
H           99.63460848150338      103.67490701491801      109.88215619419375
H           98.45130030186891      102.36338458174438      109.69839963749210
O          101.27659540543607      107.95213504617617      105.21953877116067
C          100.03263470997712      103.00484094180678      112.29262806791282
H           99.90292623960849      101.17697266501420      111.41569078617769
C          100.41934692143116      102.33623421922375      113.59742370098617
C          101.92567055643316      102.47033174928652      113.85775763400967
H           99.88354559825702      102.84329495469110      114.40153315696570
H          100.13470378795110      101.28449913489602      113.59186066735779
C          102.78043696886530      101.68570193742964      112.86430326935135
H          102.19599179394969      103.52758190865845      113.81538948629182
H          102.13617878483936      102.11693498103672      114.86881807216459
C          104.26858398581290      101.87452712684136      113.16165052163177
H          102.53649928352259      100.62316575826816      112.92212930985418
H          102.57977299817318      102.02306717443152      111.84587269436538
C          105.16064684405620      101.29979077817937      112.07350354359237
H          104.48034604293247      102.94707350623902      113.21693395500118
H          104.52785891274300      101.42892574094803      114.12089856799774
N          106.30089228217365      100.75599096905100      112.51087115076082
O           99.93888914969334      104.22420128470280      112.18549512286789
C          107.27309903028961      100.15453683719238      111.62119298075515
H          106.55099522995832      100.81923007939670      113.49229835690304
C          107.20383718275959       98.62492053362445      111.64546829194963
H          107.04566263988022      100.50630631542836      110.61126315873719
H          108.26769484121955      100.49951918828533      111.90908313585831
C          108.02582734116093       98.00225909409076      110.51622323493950
H          107.54886343454049       98.25558809294846      112.61232619965068
H          106.15867939745353       98.33294805003642      111.52587172492250
C          109.53443852570823       98.02445630869668      110.76798735933372
H          107.71319585667096       96.96530063073166      110.37942309200086
H          107.80031681940218       98.53633281221761      109.59156843055091
C          110.32769196243524       97.73762469820727      109.48934125719417
H          109.84313736104600       98.99261239799308      111.16108518841575
H          109.77743096858758       97.27118969192357      111.51975274749428
C          110.48295479567294       98.98420011371667      108.61746526191655
H          111.32251989406932       97.36964767651226      109.74391193846954
H          109.82117499758492       96.95967313089419      108.91652148912848
N          111.59118750165496       99.79824447709343      109.07179313652549
H          110.68988076066030       98.71514543287978      107.57759518684395
H          109.56013084630733       99.57396990283634      108.65013279373511
C          112.39452968050570      100.47118617563945      108.25026192334099
H          111.72585348327155       99.86616926878192      110.07571050827993
O          104.85915996449801      101.36460505664103      110.88352727570675
C          113.57696905174434      101.15171353022758      108.91854227998043
C          114.87845175898502      100.55549743486203      108.37351175498928
H          113.54420444566328      102.21994844683367      108.69475316484080
H          113.51896890132718      101.01192940780984      109.99741082704364
C          116.12735818845152      101.00553068039123      109.12952849337375
H          114.81613914794055       99.46587753533160      108.43491616865357
H          114.97190579660463      100.82095545152507      107.31900303257044
C          116.36872192175680      102.51831050023125      109.07772689733299
H          116.05903416979230      100.69145273296634      110.17335495830892
H          116.98933436115377      100.49845523761844      108.68798257128091
C          117.76592206473335      102.81353184376118      109.59094448755489
H          116.27714397506860      102.87448378925704      108.05268289178525
H          115.64216903606115      103.03024525202049      109.71115465051557
N          118.64374937088502      103.16445935917004      108.65025704132508
C          120.05582525065402      103.37238487388538      108.88878749007814
H          118.33709994580649      103.19126269155612      107.68376930819441
O          112.21625312159021      100.51790620109178      107.03099835835832
C          120.89909419212934      102.32007112395874      108.17001397513276
H          120.32776606045248      104.37145451715008      108.53746828808121
H          120.21854374622184      103.30678737193732      109.96651559459106
C          122.39677172250167      102.47431638899141      108.44062177532216
H          120.58047753432983      101.33316605233239      108.51456074736836
H          120.70204239135253      102.37564819389516      107.09900939083545
C          123.03780689725883      103.72343992037561      107.83204052562871
H          122.55994456977814      102.48341575409248      109.52043718505453
H          122.90496581634032      101.59485265822370      108.03890302877693
C          122.85438505020514      103.80514082829754      106.31463725957046
H          122.62873510628626      104.61946517761336      108.29727642289669
H          124.10553137595232      103.69520353455120      108.06045501458254
C          123.95894068661782      104.60624752434056      105.63213327656108
H          122.86595562720252      102.80035872751884      105.88935604417330
H          121.89609568873954      104.26772466133588      106.07934578128879
N          124.00161093551699      105.97537727079076      106.09697284618386
H          124.93866897538311      104.16457350728335      105.83439726042872
H          123.79693444275959      104.59671738707867      104.54752936477992
C          125.14521314975315      106.60458464043343      106.38978223673790
H          123.10325095418766      106.44599180252621      106.16048497199763
O          118.05850838637873      102.72443789203079      110.78418317108326
C          124.98542559706378      108.06028884105942      106.78904178349985
C          126.21721077145081      108.61207632955910      107.50581053018753
H          124.81780207414222      108.63232053449946      105.87239310536201
H          124.09886217639178      108.15709094099364      107.41632641216717
C          126.06366824267322      110.10412632846756      107.79837722122421
H          126.37440288139820      108.05480814696085      108.42859844292704
H          127.08787016363546      108.44156409479454      106.87474017694052
C          126.92344300794564      110.60948148739736      108.96333978085559
H          126.29045538956075      110.67369071787940      106.89734142015666
H          125.02432486583228      110.30355018325446      108.06774296034165
C          128.42359419539710      110.54405206195236      108.74950958572832
H          126.67686867028695      111.66031586762126      109.13045232637776
H          126.67981435965402      110.03810895153597      109.85951086599155
N          129.00392022002623      109.41822285765996      109.16911079307086
O          126.24199445031338      106.05280785244368      106.32294844415171
C          130.43877206733239      109.20808394932770      109.17807666518006
H          128.43788176105480      108.65706363871747      109.52608756003899
C          130.79999671856842      107.72301460238496      109.20792974264170
H          130.86666513012264      109.69714013508775      108.29860379973366
H          130.85762350342767      109.70050409170135      110.06630285264183
C          130.89980479724375      107.07890034578232      107.82369456066930
H          131.75964474499517      107.60818319808322      109.71440142731653
H          130.04591721129310      107.19683932687832      109.79605555022104
C          129.58054766274432      107.15896438373923      107.06427664165848
H          131.68552085784134      107.57534170497905      107.24825221950846
H          131.19549738133836      106.03489581392861      107.94819283101448
C          129.62860014224100      106.57042500248352      105.65468895487398
H          128.79963237459182      106.65738608152294      107.63668462363378
H          129.30152417418759      108.20963619178802      106.98356442549820
C          129.77223715961603      105.05199727308111      105.62157074354855
H          128.69650754365813      106.82401872034976      105.14506953927219
H          130.45906949143114      107.00604060855466      105.09612896002274
N          128.66474440599538      104.41622612696031      106.30119894206332
H          129.80716234828000      104.71224315052939      104.57821948528036
H          130.69373325251144      104.71889982594324      106.10677803004323
C          128.79800163862814      103.30127123327486      107.02242300034439
H          127.77888411109868      104.90988596772318      106.27834596534524
O          129.06050683801521      111.49155764788586      108.28184743155752
C          127.53463321441170      102.85326367728582      107.74026521528960
C          127.12563725441765      103.84298932561626      108.83590892141417
H          126.72931116160140      102.75078435341145      107.01127219332619
H          127.73798308685191      101.87416540458388      108.17744576627707
C          128.29775429243836      104.16375108317447      109.76238528347034
H          126.76216200730902      104.76377020415704      108.37583314721513
H          126.30786952214827      103.40644958404528      109.41367507594319
C          127.86917441497819      104.89748163040218      111.03874559583568
H          128.80570020097150      103.23804882975642      110.04278895721266
H          129.02037942709191      104.77546098070528      109.21877546222012
C          127.00895069111961      106.09824046661583      110.70512347974525
H          127.33928541310351      104.22159271765658      111.70533786013655
H          128.76838138805022      105.24836243179337      111.54863785424317
N          125.70719959063861      105.98215379961853      110.98582601599544
C          124.76771631843484      107.03836988832919      110.65974421372393
H          125.34070420175560      105.12008522755727      111.39003288003089
O          129.85423469656484      102.67484029751100      107.10643275075465
C          123.65038534936976      107.17444398486431      111.68915321637242
H          125.34788136832947      107.96351135869780      110.60295895658085
H          124.33665569062302      106.84602004258258      109.67018785018475
C          122.56706340205017      106.11416604709298      111.50907829547923
H          124.07120750584922      107.10933302339014      112.69330078293910
H          123.20022347466114      108.16149167926697      111.57627160513162
C          121.39130703961625      106.34114135378192      112.45825541528106
H          122.20076744041849      106.14319905465003      110.48113915332803
H          122.99207270300741      105.12556058029641      111.67985383401474
C          120.37500581767324      105.20796618073079      112.35477775235364
H          121.75775236795032      106.40613126976372      113.48425367827521
H          120.90447159914993      107.28757474351779      112.21492309278466
C          119.14958099953571      105.43814706645229      113.23096826261148
H          120.04150086984377      105.11413501903262      111.32042326162511
H          120.84535027397617      104.26718420546379      112.64269509057976
N          118.27965440482156      104.28207190872736      113.17879595631121
H          119.42840526202927      105.59577760483489      114.27687912994536
H          118.61188619891843      106.32703384941122      112.88180988487117
C          117.51085958554017      103.87130989281833      114.18480105925032
H          118.25159149685447      103.76466447918104      112.30519625573125
O          127.48854221908435      107.12020181599611      110.21444987333915
C          116.72793717520425      102.60540703102670      113.90493410321592
C          115.29622656971465      102.96198327686861      113.50345494731410
H          117.20684189126466      102.04153749660230      113.10505521440422
H          116.70250752216869      102.00096939958189      114.81395314263834
C          114.44608403131220      101.71885029489455      113.26100273914260
H          114.84009415800787      103.55267241289884      114.30042551161057
H          115.30669025505649      103.57194448530559      112.59831561935295
C          113.02076507227798      102.12583137992561      112.88457462635188
H          114.88741959387342      101.11447600401982      112.46511561183435
H          114.42315227108811      101.11277801532840      114.16904058986859
C          112.07633902171499      100.94366672188600      112.87389431315431
H          112.66495427610117      102.84062953525311      113.62337323466383
H          113.02797649938265      102.60856798873512      111.90782664311187
N          111.53956867900794      100.67748598303736      114.06178415322803
O          117.42959027900326      104.46919497753974      115.25948965303257
C          110.58454964982711       99.62219540562556      114.31962084021784
H          111.84751739088868      101.23108499682431      114.86270209145134
C          110.97946782366522       98.82980677467748      115.56398646519820
H          109.59288552900425      100.06768707186626      114.46797867616837
H          110.55315318690100       98.98176551545045      113.43677944446996
C          109.86524245398707       97.92372797275495      116.08333686288411
H          111.86713558414689       98.22976481772723      115.35071065863410
H          111.23900032154150       99.54086541688454      116.35032622931358
C          109.58809014901226       96.73288161162149      115.16906641863194
H          110.15692049173549       97.56428335357234      117.07080665475122
H          108.94937818830876       98.50852715560109      116.19731363124792
C          108.51281191785570       95.79882009455544      115.72235625261509
H          109.26220111360678       97.09939527866365      114.19372953199306
H          110.51234256112267       96.16828673043878      115.02254632445552
C          108.97067505508336       95.02074459262155      116.95491259998971
H          107.62362699727181       96.37250119942935      115.98606104072240
H          108.22881803480198       95.08080405037062      114.94839095049760
N          107.88952719153767       94.16592604698049      117.43270587389975
H          109.88523063232222       94.45402968576857      116.70323693171269
H          109.22653803252636       95.70962714704642      117.76304642226978
H          107.68193569653194       93.45862327480022      116.73514728485081
H          108.17893033772093       93.68682692380237      118.27736550866786
O          111.82102043318409      100.29777256305144      111.85502844000234
C          128.93261769739732      108.44883690341379      113.14370225268080
C          129.68938442272602      109.11646296144835      114.26712213548694
C          127.63692655350005      107.79934918406533      113.64657809570275
C          127.90212543222313      106.53899048246937      114.46733632486396
H          127.08346371330273      108.52739036420328      114.24018235735809
H          127.03361706668132      107.53692946487340      112.77911267276222
C          126.60331830607765      105.82498608465531      114.86881335767018
H          128.50557856180419      105.85047114340972      113.87164164995175
H          128.47635671569736      106.78577279983142      115.36313664256603
C          126.92912846565163      104.39545316693045      115.25887497226758
H          126.12754536297753      106.33910796387484      115.70130625882173
H          125.93390289534896      105.79567338231674      114.00721582251050
N          126.93163325230591      104.14973226169586      116.57212559346284
O          130.81859416427440      108.51887922855359      114.56434095543563
O          129.28066586416014      110.10612965970272      114.84457790341304
H          131.34606212077421      108.99481732920306      115.27896600860349
H          129.57583630348824      107.70446352329614      112.67719410347830
H          128.68344670139336      109.21410472879597      112.40636645215652
C          127.36665397752631      102.89300178332449      117.14083685270116
H          126.56847508526181      104.84988054768449      117.20884632894828
C          126.37647526170133      102.30700093606356      118.14481065388490
H          127.52257917858464      102.20217635872167      116.30764618993304
H          128.33172151912405      103.04900042215536      117.63884473830004
C          125.04644937009591      101.90192767269778      117.50851411589969
H          126.84495259494570      101.42737705402122      118.58963188393554
H          126.20274041551346      103.03751340233987      118.93483033843169
C          124.28762478746279      100.85908288813499      118.33378110175629
H          124.42992360051100      102.78773988522995      117.35732933391729
H          125.24197614392051      101.47037681268617      116.52396259846628
C          123.94252727586685      101.29228595200134      119.75999546848576
H          123.36417028712198      100.59742156996181      117.81241099794083
H          124.89856429769880       99.95554215539720      118.38977848486898
C          122.86424264108479      102.37240346803371      119.79971274272010
H          123.58908560818122      100.42372438874037      120.31930308818568
H          124.83529310954928      101.66446810364337      120.26357850736287
N          122.69224083733533      102.90207952749596      121.13285524953413
H          123.13985439836277      103.19510254605918      119.13130593084443
H          121.90104093120543      101.96915393358519      119.48075622782096