3795
 energy: -5103.045516175727 gnorm: 0.000934680926 xtb: 6.6.1 (8d0f1dd)
C          111.14636861878354      128.91275153392380      121.82727789947336
C          109.95292998343295      129.34954038409873      122.64346134172642
C          111.17658759959649      129.41865510354347      120.38543149163583
C          109.91725586178691      129.04877586369668      119.59332187127114
H          111.30125389119220      130.50228072888964      120.37920297220491
H          112.05060484074041      128.97794508843901      119.90067905750915
C          110.21279062832855      128.94801509699681      118.09214985362317
H          109.54787119021329      128.08626772290870      119.94400073945485
H          109.14515684525595      129.79898695190630      119.77210907183036
C          108.96731467853054      129.03997885274615      117.23230298843923
H          110.89675630347627      129.74613537224127      117.80400643659887
H          110.68930220018299      127.98772031289820      117.89162982734011
N          108.04472596177997      128.11852368948530      117.49124265015118
O          109.35971176045818      130.44369537733999      122.24953190782958
O          109.58159221569504      128.71951869607878      123.61871971198610
H          108.52841003163871      130.60598706382413      122.81753078867774
H          111.18146594481806      127.82079749618417      121.86559940777222
H          112.03281311150317      129.27217998185586      122.35684291999986
C          106.77886981962409      128.02807629666279      116.79229862004645
H          108.34269082921693      127.29888357084546      118.02038252311685
C          106.22191393814342      126.61034077493436      116.86096416657043
H          106.06670038139366      128.72230414509502      117.25581266943514
H          106.92128223087438      128.34348982648953      115.75409197421887
C          107.07855126413537      125.58495652249165      116.11794672859097
H          106.15559784841763      126.31990856418561      117.91175769086357
H          105.21039579047552      126.61430488995262      116.44997947194365
C          106.62234321202284      124.15657166657465      116.41084736123109
H          107.03151111613948      125.77638765391463      115.04386182472480
H          108.11804533201153      125.68355977507669      116.43143761561869
C          107.47480326420381      123.12209733045763      115.67605898001646
H          106.70697701257508      123.98031067209553      117.48529194549131
H          105.57171647475930      124.03821879931128      116.13788751413681
C          107.29081301420317      121.71530308136170      116.22693678186144
H          107.22539124367445      123.12091905307855      114.61348082436366
H          108.52953782801139      123.38546674500869      115.77628343852788
N          105.96986194514886      121.18922217426396      115.94762044407481
H          108.04472905640854      121.04730284858923      115.79304447858131
H          107.43308982446408      121.72021083965311      117.31287094524350
C          105.57689267435281      119.99285968146010      116.38757727920176
H          105.41500762546431      121.67340370946098      115.24190009188769
O          108.82763776418992      129.91300449749653      116.37006422283760
C          104.19880592254806      119.55436998011101      115.92370958771239
C          103.23481341888674      119.47366538668294      117.10968256787922
H          103.82088190483178      120.24243318029984      115.16875847203484
H          104.31057494149829      118.56290649652549      115.48335678076999
C          101.83294322698102      119.00912830481467      116.71360181137410
H          103.64709740019157      118.78563382696544      117.85130703989994
H          103.15408674333854      120.46157119670652      117.56995153101414
C          101.83241154013633      117.57015354807247      116.19400973761638
H          101.18816546310376      119.08940419782959      117.59162699297860
H          101.43146235446471      119.67793990142644      115.94983874355273
C          100.45649636568238      117.03135279607331      115.86607961037900
H          102.42156398155004      117.50502346023691      115.27860297641887
H          102.29252210004651      116.90873144485238      116.93435149168121
N           99.57832685018028      117.01662483709075      116.88089018326509
C           98.26267584105101      116.42649395921143      116.77267234270889
H           99.86469592655637      117.34541224860921      117.78961375850648
O          106.26645496678096      119.29299477161852      117.12456125637344
C           97.18962116504559      117.25702351415669      117.47048561197214
H           98.04692229079468      116.33035671969122      115.70752626335613
H           98.28304640326661      115.41877765979042      117.21031415338771
C           96.89134779885033      118.59651043388848      116.79846050982189
H           96.27422090762722      116.66229324399164      117.49961803734580
H           97.49554887466985      117.44099949422855      118.50304635890286
C           96.32850316968171      118.44812654427169      115.38152574272554
H           96.15439535608313      119.11229987758158      117.41861919336216
H           97.79450875508702      119.20724200291262      116.77505121690707
C           95.35544565289055      119.57005430509125      115.01726922189330
H           97.14267121500691      118.43241256261483      114.65622910240273
H           95.79156021270138      117.49977750907217      115.30179610351647
C           95.97276078652519      120.96628571331590      115.09479979545574
N           97.06673590340280      121.10131976363014      114.16425507732995
H           95.20581786392160      121.70460489529680      114.83973133404132
H           96.35240507837793      121.17420197580250      116.09697555116509
C           98.30700977059408      121.45209839034952      114.49170465090043
H           96.84916185568366      120.86917251257611      113.19669087053691
O          100.17504949024372      116.60233782583812      114.75580113051335
C           99.28027052387010      121.43949428450367      113.32851286660498
C           99.69488106173503      119.99682907164232      113.02116444054782
H           98.81773318680837      121.88329819103268      112.44716813879383
H          100.15507671397195      122.03150538369046      113.60240080079177
C          100.87627719773624      119.93970137837780      112.05633863505983
H           99.96912347579979      119.49567055791793      113.95430027249223
H           98.84234448125342      119.46762440475612      112.59265733297482
C          101.38071682306371      118.50652781297677      111.85592551324036
H          100.59039512773354      120.36013592230721      111.09062257852214
H          101.69823181781744      120.54176523486322      112.45322393159728
C          100.35169959496989      117.65876695708209      111.13473763240611
H          102.27820783714932      118.53783249767231      111.23735499591520
H          101.62038004649659      118.05695151637133      112.82000380897158
N           99.65728520841105      116.81798254590147      111.90775125378035
C           98.63626411433408      115.94445234938642      111.37568704475800
H           99.80622802690736      116.79613648545138      112.90921694451562
H           94.99762333055708      119.40903580336733      113.99864332551250
H           94.49332881890315      119.53752472574168      115.68672310331677
O           98.66285340124055      121.73791458775814      115.63492153393689
O          100.17945793102551      117.73151240758810      109.92364247813750
C           98.56221616479665      114.63790740800013      112.15944807700311
H           97.65988101120166      116.44544839482623      111.41998967656966
H           98.87324188745897      115.76528472960672      110.32379982657331
C           99.84858553123323      113.81097829261581      112.13638482030596
H           98.33145486509838      114.87699777881137      113.19975920179955
H           97.73887610146845      114.04310802776706      111.75928162617726
C          100.23081890213953      113.28791176540575      110.75222551537901
H          100.66495763811574      114.41008126262000      112.54220903872017
H           99.70376013430429      112.95653920926507      112.80056559663554
C          101.31186392894058      112.20911946641789      110.83586881648070
H           99.34547247079459      112.86663640816455      110.26963185582593
H          100.59131373221251      114.10825124013695      110.12960930092490
C          101.71736587778196      111.73099827758556      109.43985713894010
H          102.18897379424212      112.60484776397018      111.34984036454037
H          100.94095105872248      111.35818284985092      111.41273978378901
N          102.69479988389126      110.66816115379198      109.45166548944498
H          100.82434780253939      111.37630638328396      108.91427041080567
H          102.15108268983579      112.56247374732118      108.87884567867395
C          103.97751962335413      110.84864020189697      109.10985506569484
H          102.41097092843077      109.75576409353609      109.79688609280456
C          104.80923314262014      109.58532755984807      109.08640872196452
C          104.82138145742992      108.94023137935392      107.69644162603869
H          105.83392272754436      109.84378324919487      109.35933485093457
H          104.40113747501915      108.87435953142398      109.80210323904977
C          103.43656084050863      108.46665099931590      107.26815936624975
H          105.21412469723468      109.64839030723620      106.96409177772330
H          105.49698145648324      108.08267232487952      107.73219240272708
C          103.50982941407173      107.48249778508503      106.10042983793171
H          102.94720417671977      107.97942097139376      108.11442533594332
H          102.82558825672892      109.32111508841641      106.97980569604324
C          102.12225336450946      107.10970171373489      105.62685459451397
H          104.04563114708638      107.93711288462090      105.26364430100232
H          104.04258755496991      106.57932766835188      106.39686110305357
N          101.89721450689578      105.79851542791732      105.52410648958140
C          100.63843090036951      105.26560144256895      105.04919625809876
H          102.62741177699617      105.14349387310480      105.77705055670333
O          104.44623118765797      111.94928732939535      108.83201977965858
C          100.43220633569703      103.82806077713086      105.50761042330056
H           99.83985622708204      105.91526288742287      105.41891013905213
H          100.61323328228649      105.30591854376719      103.95239862984614
C          100.43657348145462      103.67392069003787      107.02827174440934
H           99.48035650536920      103.47418513238539      105.10639235647260
H          101.22541253684284      103.20598196166685      105.08738653013774
C          100.10836140099666      102.23382644704618      107.42305509946756
H          101.42414052620352      103.93756903842059      107.40782891369986
H           99.71092018715355      104.36158354823269      107.46564748711509
C          100.46076749470039      101.89707137980363      108.87153836076365
H           99.04737119479647      102.03749354995293      107.25221138241629
H          100.66999040812328      101.56322843700728      106.76889426331118
C           99.52701931281636      102.56459445128873      109.87808122425564
H          100.39792202209675      100.81379688369046      109.00869299661576
H          101.48899405751368      102.20031885213447      109.07910417758896
N           99.85548830670228      102.16411860035211      111.22844472418477
H           99.62038192291622      103.65097412371333      109.83826995679028
H           98.48713937536262      102.29453060836097      109.65783771773903
O          101.26175144543103      107.94910204733512      105.36389002093159
C          100.08984889411397      103.02745848173366      112.23217330969516
H           99.94982024021130      101.17492128188488      111.39563694805169
C          100.46982067674820      102.38782582514244      113.55228308924360
C          101.97613835387793      102.51223503591369      113.81579696394384
H           99.93545876698366      102.91908021278194      114.34170864129955
H          100.17206532010864      101.33858296702626      113.57099474889353
C          102.82881249114619      101.70437581895855      112.83954073312100
H          102.25530176769962      103.56571230130660      113.75721806122530
H          102.17840505111270      102.17298863385899      114.83367157374086
C          104.31605529276844      101.87481157187949      113.14827005283571
H          102.56793671219874      100.64538405653643      112.90470061066165
H          102.64198606303174      102.03110084758859      111.81480904150956
C          105.21153359850332      101.28948323223551      112.06660902744947
H          104.54090737609980      102.94399121627588      113.20847542437029
H          104.56335070729443      101.42426211725790      114.10854390204830
N          106.38407181269845      100.82480426437691      112.50691661349904
O          100.00689364705225      104.23675129981723      112.08622750677749
C          107.35843889891584      100.21729998888344      111.62475022487197
H          106.65023700358999      100.94525306714409      113.48162470125186
C          107.30021929201885       98.68752760452060      111.67631755939584
H          107.12471010658219      100.54618511838355      110.60817912428206
H          108.35042819089111      100.57497753051130      111.90321218845928
C          108.11666568155282       98.05106383559678      110.55076383382089
H          107.65451420894178       98.33682317757342      112.64663798494144
H          106.25544002782912       98.38675040795206      111.57007032718663
C          109.62827410288496       98.09909966664050      110.78229138596217
H          107.81305146984582       97.00779986560993      110.43620518467618
H          107.87076648331569       98.56268346793806      109.61764572262872
C          110.41135155520007       97.85930330242667      109.48808832554069
H          109.92171941451279       99.06521874069374      111.19008521098081
H          109.89575091792489       97.33420195769514      111.51367715919436
C          110.52422311813497       99.12894032761096      108.64200159903510
H          111.41889582422272       97.51324520716986      109.72293908365710
H          109.91940333464301       97.07855283740261      108.90449475980881
N          111.61224499404106       99.96234353733031      109.10242143323015
H          110.72952021407006       98.88550320569814      107.59510903086017
H          109.58207972669450       99.68775427965973      108.69304484496371
C          112.39532179298988      100.65735099991294      108.27604734815466
H          111.71587164732355      100.06395370209957      110.10995095104963
O          104.88440487489362      101.28508513291926      110.88312624298473
C          113.57186205789066      101.35182364948857      108.94095948971780
C          114.87462398334402      100.75170197672334      108.40230953687681
H          113.53852493213955      102.41719493989940      108.70586908731671
H          113.51518729256959      101.22094651641936      110.02069131664790
C          116.12179743191624      101.19850841873993      109.16334797660136
H          114.81026689490906       99.66220703866883      108.46461131531682
H          114.97331040160751      101.01500276057307      107.34820020676200
C          116.35484078807308      102.71484238644861      109.13657594387563
H          116.05881638786623      100.86803302992614      110.20191766653042
H          116.98623905955442      100.70392362849127      108.71201595713158
C          117.76891074609446      102.99345166555939      109.60601169360618
H          116.22959063942572      103.09378660333482      108.12320049653410
H          115.64983365198364      103.20952418676684      109.80582460311935
N          118.63136726202650      103.28684983424597      108.62714460248424
C          120.05078463664192      103.46076475156265      108.83253076363846
H          118.29722343988837      103.31487448823137      107.66877507346250
O          112.20922737819383      100.70322762198775      107.06158728799885
C          120.85206707008426      102.35954355220285      108.13825374215563
H          120.35072921532533      104.44018305765330      108.44736264924003
H          120.23149262792043      103.42391933106911      109.90937047306474
C          122.35379006011681      102.45607606498221      108.41045109147007
H          120.49343893247134      101.39465913457600      108.50421028160015
H          120.66072413108654      102.39867821736330      107.06529627197293
C          123.04077624222015      103.68851484010405      107.81790589704778
H          122.51795207331274      102.44755919914967      109.49070840546975
H          122.83200013753422      101.56402946388592      107.99902866334783
C          122.84816453361879      103.80303555504489      106.30455211609970
H          122.67181887955638      104.59325685738308      108.30134334498236
H          124.10849527391751      103.61586519146753      108.03745149751667
C          123.94212339398183      104.62831002168039      105.63504467988702
H          122.86337979001378      102.80698724106753      105.85818336649059
H          121.88498676598860      104.26403010174023      106.08673655167979
N          123.96142493842292      105.99347672138255      106.11175516156960
H          124.92843017410952      104.20316910549639      105.83947571463253
H          123.78601302456613      104.62582534664048      104.54899767822219
C          125.10397231024908      106.62547484686664      106.41361351683484
H          123.05991924330795      106.45730567672823      106.17291318795561
O          118.09906385063827      102.93160662380707      110.78704418543816
C          124.94120444995613      108.08043742679961      106.81806492085666
C          126.17879528666424      108.62374542845184      107.53050827661468
H          124.77027890435483      108.65722992666726      105.90440727302150
H          124.05601988205899      108.17784610978993      107.44924601438241
C          126.04081468113354      110.11824967252150      107.81579834159007
H          126.33252302786528      108.07032523622543      108.45620047416408
H          127.04454127858179      108.44248246210292      106.89654531560178
C          126.91572819845275      110.62220854350011      108.96949788430784
H          126.26419203309878      110.68112720893934      106.91025210435907
H          125.00371084314926      110.32976429001900      108.09194637147388
C          128.41424008558639      110.53521487932012      108.74218186132596
H          126.68268766831397      111.67783085928149      109.12878531257113
H          126.67033440550132      110.06268335766180      109.87352809220377
N          128.98539781858119      109.41605251543676      109.18996953475049
O          126.19705921009343      106.07921704069003      106.35018634911266
C          130.41798290011965      109.19002739476257      109.19074221095832
H          128.41240752021065      108.67290943634741      109.57538689492834
C          130.76079048630987      107.70024522251997      109.21693789317604
H          130.84362714684775      109.67611230590263      108.30867946882761
H          130.84706925847772      109.67818738389171      110.07663012213806
C          130.84765134180688      107.05563711383546      107.83203144755296
H          131.72090735207198      107.57340740984655      109.72005333488561
H          130.00248350720000      107.18488970356290      109.80883563900107
C          129.53028750966152      107.15913151247817      107.07194689990712
H          131.64137682496434      107.54098778078317      107.25682912091705
H          131.12460497735015      106.00740679424260      107.95453324245224
C          129.57611712387131      106.58479772151901      105.65624688141293
H          128.74202275309133      106.65720577409515      107.63329584632284
H          129.26044466457552      108.21361044600317      107.00391576262628
C          129.71303528734717      105.06488480254313      105.61186317927549
H          128.64411974953904      106.84967594325532      105.15025915970594
H          130.40668673973568      107.02557707936300      105.09949767437651
N          128.62379071307890      104.42351106894074      106.30966283316705
H          129.72603109942256      104.73671409638517      104.56379036654161
H          130.64149111471821      104.72787792297777      106.07930373837968
C          128.82076430992805      103.38578110890927      107.13919499448332
H          127.72009804655407      104.87575321324685      106.25366916408338
O          129.05186726385426      111.46005967240664      108.23927574687559
C          127.56338895424305      102.91564493745705      107.86021002678667
C          127.12681851799665      103.92244530467016      108.92897793396078
H          126.76102510114566      102.76968716664665      107.13468292523218
H          127.79394480959068      101.95701380626080      108.32737998803825
C          128.29245750686675      104.28523000778790      109.84811476696234
H          126.74609121536021      104.82459372831478      108.44532570298428
H          126.31274874295430      103.48732764711679      109.51531571693739
C          127.85603101637982      105.03285929394788      111.11552092953671
H          128.81854863214548      103.37626780032716      110.14474073490221
H          128.99894236761142      104.90203218262855      109.29141322980267
C          126.95107434735552      106.19109088607117      110.76799514204463
H          127.35727600476166      104.35609938165001      111.80531394545977
H          128.74970322110298      105.42807953728635      111.60167169677186
N          125.64451120496854      106.00652527561424      111.00629458805817
C          124.67342209257490      107.01365559276910      110.63555536621162
H          125.30803589093482      105.13003903830418      111.41171190106527
O          129.90585946573700      102.85900722243986      107.30635514228874
C          123.55258413503739      107.17138319944567      111.65947648534934
H          125.22557536397842      107.95284713996433      110.53490325951287
H          124.24301794209092      106.76762723616810      109.65672846091188
C          122.46956410443129      106.10789429240714      111.50297295065243
H          123.97255706880613      107.12976054258537      112.66653085834884
H          123.10069078979043      108.15694445193444      111.52909224582190
C          121.30189203799631      106.34339245173688      112.45926268908359
H          122.09391113297899      106.12599795365742      110.47747499090401
H          122.90115321367124      105.12343696430736      111.68121486927518
C          120.28310588505856      105.21107748597818      112.38386165867961
H          121.67955248901086      106.42685882475887      113.48153128514157
H          120.81500292132071      107.28977837858390      112.20969991671221
C          119.06511473584220      105.46425877088669      113.26462177845832
H          119.94158907995966      105.10089039163877      111.35398618535507
H          120.75460201369339      104.27475637374040      112.68405685431739
N          118.17559776936002      104.32713409115166      113.22275189843613
H          119.35514881051472      105.62552688392167      114.30759677957684
H          118.54889072237810      106.36453955308271      112.91075098167371
C          117.43994278432945      103.91418783487950      114.25585590078308
H          118.12093425029583      103.81939467021820      112.34200572937206
O          127.38517731011102      107.24141354819359      110.29910351193388
C          116.63218185467251      102.66432092647052      113.98793994445937
C          115.22530028263492      103.04229024550484      113.51850926166608
H          117.12800810610022      102.06203352663755      113.22655899691178
H          116.55670490621530      102.09365929000985      114.91551177978454
C          114.36092790888425      101.81024687964749      113.26290591457132
H          114.75118970272283      103.65448865829791      114.28730577480002
H          115.28562814865737      103.63736165842862      112.60619893661203
C          112.94386874749713      102.24182974559579      112.88054658253716
H          114.80045052726976      101.20488723026011      112.46720853323633
H          114.32497307279785      101.20073181221981      114.16725111475324
C          111.96402468483858      101.08827125626661      112.86823949334608
H          112.60143065733902      102.96045886330367      113.62221015349941
H          112.96313552400386      102.73025749840012      111.90764117256123
N          111.51736272709839      100.75506350206027      114.07567490257547
O          117.41026573500527      104.50447532965394      115.33496538135584
C          110.54966549478638       99.71068059238918      114.33280054832926
H          111.85864223749338      101.28375989735021      114.88097467913748
C          110.94299847167019       98.91387313923667      115.57428181246921
H          109.56084426510431      100.16335626162929      114.48065926355626
H          110.51030743091704       99.07159352783093      113.44916530159637
C          109.83306998359075       97.99805322417859      116.08534860064660
H          111.83363336962094       98.31921055394156      115.35908597784767
H          111.19624762027796       99.62054592671923      116.36586288512643
C          109.59464919979357       96.79011630563951      115.18277438194826
H          110.11346065126541       97.65882797456349      117.08183377196924
H          108.90536391275772       98.56870488752915      116.17157038227937
C          108.52350282992482       95.84760066246523      115.72919806782809
H          109.28460057983915       97.13342216315014      114.19271690848012
H          110.53001355339818       96.23747338096685      115.06415072793206
C          108.96554718205854       95.10384400044771      116.98819386225033
H          107.61718020330315       96.40925525867220      115.95939382993522
H          108.26921860611374       95.10965083431584      114.96234961704914
N          107.88256144798797       94.24791513855472      117.45485062927253
H          109.89196417489595       94.54494740944173      116.76882537248855
H          109.18667905661250       95.81436530366192      117.78619389504581
H          107.69242399127806       93.52071959430009      116.77184730758111
H          108.14441012184029       93.79446271771496      118.32315776240367
O          111.60132367043128      100.52296644195292      111.83582982706382
C          128.98040383199162      108.55698153528593      113.17728629176374
C          129.71157294123523      109.20685361345521      114.33031635047394
C          127.66797781282878      107.92154741329563      113.64989126001187
C          127.90546310500424      106.66646793475159      114.48715068098015
H          127.10593084572881      108.65919611938719      114.22551130365682
H          127.07731132259657      107.65997873577396      112.77313226902392
C          126.59080112970572      105.99636737526397      114.91064134192713
H          128.48395753190010      105.95413811969576      113.89658538926001
H          128.49158594337632      106.91258040041659      115.37564270163935
C          126.87537887032509      104.55300503447927      115.28457186965551
H          126.15044882874123      106.52513402907137      115.75389875505897
H          125.90265163710073      105.99684332280877      114.06246559532114
N          126.93280046760196      104.30618260115268      116.59966406967122
O          130.84945334921454      108.63172095590194      114.61211572102317
O          129.26314088259693      110.16135858209437      114.93822612620502
H          131.35890866147426      109.08451013311705      115.35180241291830
H          129.62648466985857      107.80783729098097      112.72316112783469
H          128.75759413339244      109.32860030564967      112.43748095022428
C          127.37958873666742      103.03976478172703      117.13451679321848
H          126.61146749440128      105.01023184319907      117.25310859346766
C          126.40138212058288      102.41441944294777      118.12680638821405
H          127.53451995373042      102.37564837728276      116.28024967423814
H          128.34603934730842      103.19168782755784      117.63264706158694
C          125.07850948439817      102.00124507119025      117.48124725500578
H          126.88468941712354      101.53277413890038      118.55276065274492
H          126.21669786999729      103.12367456731700      118.93450100645273
C          124.32728457880665      100.94212019191225      118.29253040831165
H          124.45414615222755      102.88313386415342      117.33738022441598
H          125.28396757130419      101.58364749835161      116.49309354325577
C          123.96908029282105      101.35858750932955      119.72009875899754
H          123.41005063709228      100.67544907902646      117.76252765080419
H          124.94898729490484      100.04532257971209      118.34240493490915
C          122.87907917200336      102.42715063981414      119.76579609359082
H          123.62221184584385      100.48152365169504      120.26972621635208
H          124.85605484271743      101.73494101322767      120.23161675286785
N          122.70763373762081      102.94777463879836      121.10048925399246
H          123.14129673333332      103.25266381912010      119.09371794536401
H          121.91854301352046      102.01301254632243      119.45247989693472