3795
 energy: -5103.077373740538 gnorm: 0.000938133100 xtb: 6.6.1 (8d0f1dd)
C          109.18965629634529      113.99939622683927      116.22474072106543
C          109.34887746871442      114.32636920040783      114.75795572498625
C          110.09382083956523      114.93063187610335      117.04089988504136
C          110.21490506108209      114.50289454678214      118.50144035003247
H          111.09217600178130      114.93302455354750      116.59920064066874
H          109.71506982068625      115.95117221476958      116.97298857711931
C          108.89477541591617      114.53519275181797      119.27667993948714
H          110.64245920252253      113.50230627685688      118.55154605511319
H          110.91141430462906      115.18445882970536      118.99411781301892
C          107.93437124479057      113.40495457252779      118.96378852910151
H          109.12514570270476      114.44843081937151      120.34022166521876
H          108.38384120826346      115.48253589585995      119.10200274730076
N          108.44049545234319      112.18366684575390      119.09666859973927
O          110.23265852396329      113.54894866529887      114.17298106639183
O          108.74797376649136      115.21358273795164      114.19298515984910
H          110.39606923025413      113.78373579742882      113.21284610046533
H          109.48861993672875      112.96355203691500      116.38866480087563
H          108.14840356514095      114.13538135921567      116.51275290688037
C          107.73082766007296      110.96677189022265      118.79056352972597
H          109.42052840234035      112.05766380930042      119.32121844839604
C          108.06016440731375      109.89541707029193      119.82545555127540
H          106.66080353353834      111.18885563036434      118.76357258746518
H          108.03786625663729      110.61548254401343      117.79673365656880
C          107.25158030135410      110.02580315889135      121.11139466978382
H          107.88229794918023      108.91085411645706      119.39168279730168
H          109.12376801713064      109.97688892681118      120.04720763265509
C          107.83182446063933      109.14525822913664      122.21948182575755
H          107.24972203034891      111.06658890786926      121.43017779713151
H          106.21687023604186      109.74005650197357      120.91250328275645
C          106.80190467495768      108.78596595597415      123.28433098237529
H          108.21133738919659      108.22372273831252      121.77323181744239
H          108.67099204305497      109.65739222330737      122.68706793487976
C          107.40075239066545      107.92928149297033      124.39302596984574
H          106.37099204565700      109.69318054349833      123.70678915175347
H          105.99688384843822      108.21313905201067      122.82555924265131
N          106.34899043714074      107.20170686427282      125.07359495888757
H          108.10858336587809      107.21280588988161      123.96071328532813
H          107.93905653409190      108.54171286106680      125.12154533479243
C          106.44969051254961      106.75497884583157      126.32527784246606
H          105.53301894896639      106.97969012162653      124.51367780746585
O          106.75390881530915      113.60304040746981      118.67060558351922
C          105.21236903547231      106.04074730888966      126.84322960146905
C          104.46814395882849      106.92885981137759      127.84755178805557
H          104.55752601242156      105.78905257798904      126.00910611485335
H          105.52390539432538      105.12099521194166      127.34072668613528
C          104.11544422473426      108.28354627514159      127.24134775709986
H          103.55933496457509      106.41747422672839      128.17176352459705
H          105.10249904071887      107.07918927486877      128.72335906705374
C          103.31314921650035      109.16584087268245      128.20224070611289
H          105.03628741470526      108.80599895512189      126.97501591140318
H          103.54125237550029      108.14641818641985      126.32388946381317
C          103.21759197239192      110.57149060749379      127.64010282968657
H          102.30085816888726      108.76913751928817      128.31166339633768
H          103.77739587473049      109.17938151689224      129.18989331707650
N          103.29491513389354      111.56580074205476      128.54153641227009
C          103.31891726620118      112.97470992163476      128.18901271366039
H          103.44634762087613      111.34395770053527      129.51309690887737
O          107.44362258907266      106.93909329472802      127.02259167697554
C          102.74768274382870      113.84595811143458      129.30506732559292
H          104.35731506036447      113.27355840601066      128.00060917889954
H          102.75362692887201      113.08458257200128      127.26324167559021
C          103.10977600281775      115.33325518624736      129.17643463464748
H          101.66394362850089      113.72980512445169      129.35154519643214
H          103.15731830283636      113.48054573670898      130.25094599110395
C          102.12832736261105      116.19464710132220      128.38006657505184
H          103.15787250400129      115.75356315254602      130.18295642601933
H          104.10244384204705      115.43260144889022      128.73662965191420
C          102.10858463908805      115.92925607400799      126.87754085484569
H          101.12127264434530      116.06327965870209      128.78344476581739
H          102.41237472693491      117.23738487866730      128.53693242872660
C          101.22918820258889      116.95392421972920      126.15639551655711
N          101.08857326216906      116.62830253927731      124.75852474586334
H          100.23727077532368      116.97929374219541      126.62370172976165
H          101.67291054939705      117.94918421516083      126.21794219411505
C          101.40284763811032      117.45040085582312      123.75809158943456
H          100.75789436795608      115.68562932931292      124.54679468697206
O          103.08519157636586      110.77619487043808      126.44383951940357
C          101.25345209418799      116.84273326128941      122.37371658571671
C           99.85026187657019      116.31278337878801      122.05890164266339
H          101.55771797402186      117.58136813373909      121.63185776890957
H          101.95587594699015      116.00865563184264      122.31734244862619
C           99.90255963290903      115.24301423980302      120.96671374991155
H           99.40815657679633      115.86495000023800      122.94835858114607
H           99.20729341427487      117.13591602945615      121.73999858745997
C           98.49859234614040      114.73556097973800      120.62361750293930
H          100.39412477954200      115.65222659292955      120.08174878243429
H          100.50020740384252      114.40473004799279      121.33089017447600
C           98.51309257348292      113.57464971408511      119.64619025214439
H           98.01273927205042      114.39202416543633      121.53790381363761
H           97.90365354835696      115.54776801612344      120.19945190301821
N           98.93770021973708      113.88524913530108      118.41017722120378
C           98.98852536311097      112.91581384553059      117.33382257814678
H           99.26311490909015      114.81773585977250      118.21042318983504
H          103.12193714541925      115.98393290072489      126.47564549458413
H          101.70954570672342      114.93432193552694      126.67760483814952
O          101.82122388375960      118.59217461118131      123.93683866775551
O           98.15688558394105      112.44549603653421      119.94602979768476
C           98.82344708164531      113.60154620506043      115.98356542289713
H           99.94217114732747      112.37940790995650      117.37479586884012
H           98.18482908337209      112.19576613215740      117.50818106602806
C           98.72563482172794      112.62745878365693      114.80837535152202
H           97.91715850980496      114.21090390350079      115.99981556109299
H           99.67077218101713      114.26843125266490      115.82439780887201
C           99.89599602566186      111.64853645366797      114.69483037652856
H           97.80018598845926      112.05420421996902      114.89353804490030
H           98.67103255995166      113.21840158559574      113.89209948766207
C          101.25059402152313      112.34849009860889      114.64613635375544
H           99.87762516143060      110.94926835496031      115.53141419329471
H           99.76332543436156      111.06548076018895      113.78021007145018
C          102.39100462253764      111.37289980072099      114.37510932100670
H          101.23705632344517      113.11186520449786      113.86669491542905
H          101.44984318112922      112.84383853476282      115.59680695525756
N          103.66525818692209      111.99727256472211      114.64485699471240
H          102.31362408551989      110.48755038617381      115.01527216677952
H          102.34845817581129      111.03468448383965      113.32984920400843
C          104.71817621103148      111.32949433351828      115.13619686189209
H          103.72999961446888      112.99958879741664      114.48790927901567
C          105.96209917579789      112.16898664430077      115.32228820384738
C          106.86033176174162      112.00388546120296      114.08953153962463
H          105.70073359103579      113.21760458409480      115.46024420904111
H          106.48686913120356      111.81471104496654      116.20972885077666
C          106.38711778743186      112.85031334595486      112.91242097637141
H          107.88086005311757      112.28820498700351      114.34507044113481
H          106.85859267172130      110.95606473921065      113.79187341342490
C          107.18525046200067      112.57068105175676      111.64089171183952
H          105.33320324538114      112.64174490173791      112.72007195741675
H          106.48551666613892      113.90502072997347      113.17340401969420
C          106.88990774206164      111.20619100260734      111.03807918032992
H          106.95486435567157      113.32348402431326      110.88501099620525
H          108.25655171407618      112.64169515874842      111.84036648056114
N          107.44916296648472      111.02449885604298      109.83487921943986
C          107.25196858663011      109.80799060136833      109.07830488528219
H          108.02730012120789      111.75359566635854      109.42571191633748
O          104.68954314847093      110.12801723126211      115.38243005836308
C          107.25583281518809      110.06322379773619      107.57396144919679
H          108.03662428066767      109.08377328076926      109.32574709561909
H          106.29105792604614      109.38963294358352      109.39293145905650
C          108.67375133962206      110.10463674626034      107.01054863469125
H          106.68699551363044      109.26854947365695      107.09256890681465
H          106.75887258571046      111.01413446344274      107.37688381496619
C          108.73980150027290      110.45172419510085      105.52207300262734
H          109.23870618511924      110.86209111251233      107.55629357083595
H          109.14925930797244      109.13705817021325      107.18127693909717
C          107.86478996090734      109.58982189854777      104.60920415598136
H          108.43631617954040      111.49276214792944      105.39228231195436
H          109.78194944560143      110.37632291257567      105.19922323311918
C          108.12060125094531      108.09001467670920      104.72799953028813
H          106.81325927326785      109.77393607037897      104.82414508706641
H          108.04042054489716      109.89261975940980      103.57361482870721
N          107.24718146881310      107.38511139075962      103.81292285918968
H          109.15358802498180      107.84917959776666      104.46583631910052
H          107.92869349783489      107.74065861849100      105.74805395877901
O          106.19280946405530      110.35393662673998      111.57660859228614
C          107.56768142932965      106.27322261736030      103.16385120456941
H          106.28574508475060      107.72868159837405      103.77311043553330
C          106.49329315867240      105.78376660545013      102.21423741544899
C          106.45549469175585      106.62858853200981      100.92358729540851
H          106.67350692860936      104.73582608755710      101.97045330634491
H          105.53025627522383      105.86529698828078      102.71749992497787
C          107.15317756118549      105.95681826010254       99.74138640376087
H          105.41371215390302      106.79981921919655      100.64883711654731
H          106.90530293069688      107.60570916795419      101.10863354211959
C          108.65355692552161      105.74184554397064       99.96065829520909
H          106.67996641516969      104.98987393014190       99.55323937157311
H          107.01787231918082      106.57307774030788       98.85041422772848
C          109.41050755111912      107.05607684949435       99.87049420051299
H          108.82709202869242      105.26489545749158      100.92339974837969
H          109.03432720700744      105.09670213965327       99.16743680044311
N          109.76537932866225      107.58787019429889      101.05996468903679
O          108.66147073185077      105.70776831101482      103.29240884694130
C          110.55108646106690      108.80167936609566      101.14307686180804
H          109.53067844410675      107.11193775416955      101.91703984786041
C          111.30584399510657      108.87422411181640      102.46603237195559
H          111.23724637352900      108.79692796094439      100.29142089163118
H          109.89995246844919      109.67870904381304      101.03101202374390
C          112.45507333820343      109.88302067678808      102.44741369041553
H          110.60506530020356      109.15854900255636      103.25363026554975
H          111.69762217672442      107.88691726052934      102.71281286438705
C          113.66878032179257      109.44054071999273      101.62568368748036
H          112.08859756362023      110.83682046096355      102.06126966300251
H          112.78075296223136      110.04966608257631      103.47638165920281
C          114.22681469139850      108.08751751574717      102.07122163000992
H          113.41452441409254      109.40121529810880      100.56624419633920
H          114.44539155596071      110.19952309762327      101.74417890869745
C          115.69743075186285      107.92193778761290      101.69921402316923
H          114.13533672920900      107.99310916245946      103.15534308282848
H          113.65602242835291      107.27854177568578      101.61665822384447
N          116.24321368882968      106.72153414740015      102.29080967499345
H          115.82554304483411      107.84114857008348      100.61778055104924
H          116.26672096742149      108.79311321786240      102.05227025778868
C          117.15383622301636      105.92803439007390      101.70078971424634
H          116.02068787517096      106.55935179527692      103.26100579074173
O          109.67814946611117      107.59213124822277       98.81360335300570
C          117.66039811905554      104.80524820896319      102.57260341013691
C          116.62718483173545      103.69603365164866      102.77318571834813
H          118.52381596163359      104.37127367387639      102.06926883820387
H          117.99283520572040      105.19445480472652      103.53542760478039
C          117.22443604755254      102.57045905957035      103.62493971641021
H          115.72568352896286      104.09026162693856      103.24559148745479
H          116.33912278328560      103.30738575222162      101.79430668103350
C          116.64668086371123      101.19770407852549      103.26842223209749
H          118.30375564133385      102.54048344863243      103.47002976751064
H          117.05443864506447      102.76729674752951      104.68252083682891
C          116.94511508569136      100.91030505349742      101.80936675472650
H          117.10584128444732      100.44472732031407      103.90925894466265
H          115.56771010290561      101.19682924884347      103.42853136501341
N          118.23394641245335      100.66819122172203      101.54694711295109
C          118.72792700046331      100.60598793270439      100.18684329972558
H          118.88976857009385      100.54449903926154      102.30656131674634
O          117.54260988569619      106.09195789866878      100.55303066594580
C          120.24271409467325      100.43912191935237      100.11825952100828
H          118.24550189139786       99.76866491248816       99.66676399222759
H          118.41853379271629      101.52185576805563       99.67147390575890
C          121.05231961981328      101.48630002912121      100.88943571390449
H          120.50634461382140       99.44881547785633      100.49765133099356
H          120.52395636589752      100.47275804503853       99.06365366549970
C          120.69635442949682      102.93430851708230      100.55329664037609
H          120.92404241130127      101.33724462047334      101.96234616838019
H          122.10945834864100      101.32436993634546      100.67038690276100
C          121.77417681607351      103.89346479514815      101.07185051386351
H          120.58921744562262      103.04984467723780       99.47275496039481
H          119.73473811818313      103.17667960319422      101.00723662575091
C          121.24482014364503      105.29011609398339      101.41623383075567
H          122.23502619366792      103.47733926659858      101.96891613300927
H          122.56252128276621      103.98699263356465      100.32356520812476
N          120.57369374183865      105.91876494032567      100.29811850941300
H          120.55424035283974      105.23483063545518      102.26031678310495
H          122.08919183667228      105.92768965961064      101.68967487718881
C          121.16857495025135      106.81406094342047       99.50023763981707
H          119.60396404495204      105.67760868875565      100.13347093858408
O          116.09376992157949      100.96417787011062      100.92864985449667
C          120.37486029394864      107.19947161170877       98.26577397884250
C          119.83044294360413      108.62926150225155       98.32766051156739
H          121.05398225456311      107.12096037314878       97.41369452078544
H          119.54852550487060      106.50247747325726       98.12490533507807
C          118.78532170268670      108.80487899478450       99.42877288685936
H          120.65912644625607      109.32196829962393       98.48252870426511
H          119.37917981291618      108.86558849297174       97.36177418145061
C          117.85986946833066      109.99643728181471       99.16262308430527
H          118.17742403958644      107.90215630522349       99.50090296018357
H          119.28838993341684      108.94433548579475      100.38666374452663
C          118.64455663385890      111.28423088237410       99.03591720835033
H          117.30864729358431      109.83816264088266       98.23449187802441
H          117.14800812166911      110.09749416390940       99.98394670650293
N          119.25750516714676      111.66860991506799      100.15698601391706
O          122.28237470051531      107.27485010244766       99.73011409181235
C          120.10514578481779      112.83826375573800      100.22746171034946
H          119.06617097335869      111.19570318130631      101.03644103713123
C          121.02915587901560      112.71952528273934      101.43229279919444
H          120.67905472236323      112.90178301447023       99.29751371412732
H          119.48516092118450      113.73913828762646      100.30085113554797
C          121.95733786775700      113.91741075051043      101.62209727987165
H          120.40779074913708      112.57874700471044      102.31733239182888
H          121.64488500806105      111.82424401362859      101.31270156034033
C          121.25521553494131      115.27367568446660      101.72523683739182
H          122.55198835860681      113.74934547090086      102.52156093339144
H          122.65181825651311      113.96125759147127      100.77919945226385
C          120.09119193506764      115.34259193998955      102.71127475090317
H          122.00123207507566      116.01662874897218      102.01504864940726
H          120.88054947256845      115.55384496654057      100.74132409043744
C          120.47490073110451      114.94286721638734      104.12717390779089
H          119.72036089123458      116.36986573455927      102.73309081886218
H          119.26948645861970      114.70855486797024      102.37622311866325
N          119.39391812443353      115.24959503956001      105.04029675206803
H          120.69476104169783      113.87333395567418      104.17429897187399
H          121.37014572451602      115.48273285084140      104.45282760700630
C          119.61161011629920      115.50073766424175      106.33613239380544
H          118.49557515688944      115.48421862362035      104.62315167576787
O          118.72361389167148      111.90980636224519       97.98205551653278
C          118.37055477526808      115.89563914220864      107.11698958190527
C          117.94778946733121      114.80103491222748      108.09998716884726
H          118.60951014981735      116.79280513833064      107.68767768684118
H          117.56294576391200      116.12227672542021      106.42122018495635
C          116.75959873507918      115.25116905057254      108.94987512196755
H          117.68079144002358      113.89701499228261      107.54932914449614
H          118.79279631243969      114.56386616920561      108.74958447901203
C          116.50449152011822      114.31981229244593      110.13870686441511
H          116.95654997803412      116.24981525062572      109.34198458993305
H          115.86091239849956      115.30086383667749      108.33136486633097
C          116.06817087739897      112.95471438261966      109.66390075247267
H          117.42107121604009      114.21335065220326      110.71366900966592
H          115.72867956388343      114.74498969343286      110.77425743933485
N          117.06333834920424      112.06634090000949      109.62713940167006
C          116.90307418554418      110.70099684122690      109.19058179280350
H          117.98581225686794      112.35431305153642      109.93637378408894
O          120.71887254920888      115.39945895067802      106.85065261307366
C          117.95476074694780      109.81025674145445      109.83222394109757
H          115.89175968756636      110.38094240255872      109.45669966488629
H          116.99618793923521      110.64398636702700      108.09834367774843
C          117.94232669763636      108.40105713127700      109.25084580760740
H          118.93550340618620      110.25878675414020      109.65962479715760
H          117.79678285781507      109.77447951638472      110.91096268632806
C          119.06320301235412      107.56484834711233      109.85756004493467
H          116.97902377959694      107.92724860201429      109.44747428909797
H          118.06347293437464      108.45531450776747      108.17061512286135
C          119.26427909893907      106.20998604361634      109.18790729457373
H          119.99627045099466      108.12453885032718      109.77952117088684
H          118.85246813419390      107.41684698048772      110.91718588210229
C          119.77643901546284      106.33735186048357      107.75503764559799
H          120.00817268831837      105.64375949601103      109.75183836913517
H          118.33225062496599      105.64295404273565      109.19947363474100
N          120.23933296421151      105.05277852184268      107.28290879519493
H          119.00290729068460      106.68707004995937      107.06974811738202
H          120.60787324794002      107.05171425476954      107.73671728171297
C          120.03998022284716      104.60165990020225      106.04196694417274
H          120.79046142042517      104.52674422840276      107.95476394034968
O          114.91981851453352      112.69046581181671      109.31763625437704
C          120.63841674715887      103.23288177706948      105.77045760166624
C          122.15634014278643      103.33356165618764      105.60943198935486
H          120.39206645302804      102.55956428165398      106.59373688608068
H          120.20098745409665      102.83443054474016      104.85495569286910
C          122.77307780070973      101.97162664720723      105.30410958355013
H          122.38917982254645      104.02174988987450      104.79404846088792
H          122.59860062140881      103.74068102677170      106.52172292299302
C          124.29822547281978      102.04233278756371      105.26952208484140
H          122.45195536762866      101.24268736073719      106.05232829689238
H          122.41544763527725      101.63039873211220      104.33126026904148
C          124.76564075083769      102.74876667032233      104.00570737368494
H          124.68846516296909      102.54778734306383      106.15249405093228
H          124.70922578255247      101.03020928490801      105.23530309887269
N          125.72293233093347      103.66857206485497      104.19893827350121
O          119.43257790003517      105.23015555074200      105.18441008276375
C          126.34970525408882      104.34136856147774      103.07937984955664
H          126.04947243011189      103.86637014048000      105.13755129968067
C          127.27531937176857      105.46458389035058      103.52781087307328
H          126.91888154789297      103.60505624090604      102.49681859316949
H          125.56108918633157      104.72951582987912      102.42458898351794
C          126.52729632032424      106.64391312540167      104.14610339197937
H          127.99432580138014      105.06883358239244      104.24865005301537
H          127.83462662414462      105.81083226805659      102.65550442377878
C          127.44854290775899      107.83471240714482      104.40161718908951
H          125.72733971513090      106.95581180352454      103.46986558877212
H          126.06962217890919      106.33298419746258      105.08362149185875
C          126.71812453152900      108.99575665154106      105.07783345847417
H          128.29391781852567      107.52383808287985      105.01986496478823
H          127.85262091038899      108.16448312466986      103.44005610408928
C          127.42747218268534      110.34217572401178      104.87857682526689
H          125.71603201938399      109.08467093690393      104.65139640693674
H          126.61727406274129      108.80419411268753      106.14660348438323
N          127.41613567596879      110.82869223009816      103.50532871176995
H          126.92296554727575      111.09602782529251      105.49078304066514
H          128.46613105217830      110.27647960173779      105.21409093906375
H          128.02676308162219      110.25657399879994      102.93069846022740
H          126.47286210545563      110.71147920759648      103.13519425190566
O          124.31090435989175      102.48195861610868      102.90479986309452
C          117.27531357625152      131.98556769950937      120.68426316447162
C          115.76931117292077      131.90485377610867      120.76236460841569
C          117.80880153519645      131.34327098232544      119.39609183802929
C          117.11549975624513      131.85238805039506      118.13101845398258
H          118.87482579898364      131.56087631335635      119.33560571339099
H          117.67666873756929      130.26237068132301      119.46188489932349
C          117.50879746232724      133.29733693596401      117.79039087565855
H          117.38259636343071      131.20257937820585      117.29591237225425
H          116.03310461115805      131.77559663720658      118.25940398105466
C          116.36491979949386      134.10864334533929      117.22254195078453
H          117.86743197206077      133.79862522519429      118.68976729873846
H          118.33217175216780      133.30312143726874      117.07672025599176
N          115.34197787478126      134.29015976507264      118.06490474069818
O          115.31358157788186      130.68476001275980      120.88130806063029
O          115.05072385605953      132.88652409502538      120.70467198391648
H          114.30157593534709      130.65830580352323      120.89373974826387
H          117.69176290624490      131.44091399629610      121.53298541341969
H          117.57923373148346      133.02986325097208      120.75424041589612
C          114.20162112672713      135.13578916944977      117.77265890844987
H          115.37702843399239      133.89608650736653      118.99740351117623
C          113.51660014770916      135.58360070848394      119.06017085891520
H          114.55172865857986      135.99197422496601      117.18795569929357
H          113.48689049004921      134.58210442779844      117.15034854757332
C          114.25738957131921      136.68954958471357      119.81552003309994
H          112.51590852974392      135.93961602638572      118.80931239445812
H          113.40714950512498      134.71481755320772      119.71122017711647
C          115.65761577016141      136.28073979883254      120.27033556729300
H          114.32902978275202      137.57694273710058      119.18254856026304
H          113.66278979331419      136.96110387400535      120.69148067968547
C          116.29597563796479      137.31082500530098      121.19821123513101
H          115.60461961880110      135.32138115319637      120.78899004610399
H          116.29329731912459      136.16490169572225      119.39228100668588
C          117.74725448854176      136.94715418633140      121.53515178026073
H          116.28434465685498      138.29530093195694      120.72617987403420
H          115.72632240668257      137.37863233656540      122.12701198978736
N          118.60738144124250      137.04109783427950      120.37591955047925
H          118.13390579124301      137.66098999592774      122.26617475838144
H          117.79932776964297      135.93756768357812      121.94931530855393