3536
 energy: -3716.262702154581 gnorm: 0.000848891313 xtb: 6.6.1 (8d0f1dd)
C           45.29297386751354       69.63610023846381       42.85650153222331
C           46.68068925171552       69.12221818087789       43.23234047156466
C           47.71804386561374       69.67665643811333       42.25565696618708
C           46.74675806353785       67.59041349580798       43.22326297586024
C           45.78920519831036       66.86782222634481       44.17853578875882
C           45.96707101983061       67.35431291920136       45.61654539550975
C           46.02515230301640       65.34989726502040       44.13988688760324
C           45.83820481348973       64.66329645569900       42.78162931943740
C           44.42116672973680       64.87573290033170       42.24733010143725
C           46.10135912871790       63.15313504651418       42.88926304901390
C           47.54447513314900       62.73292182834368       43.19413660192442
C           48.47289310915396       63.06268839335501       42.02562879666132
C           47.61789311959468       61.22636694187388       43.49000965266816
C           47.03168594921391       60.80750598220875       44.84297028953493
C           47.93786891330180       61.25544996619269       45.98864719354828
C           46.83260878226957       59.28856485255181       44.93739445642448
C           45.80605789914283       58.66291396908054       43.98565795412465
C           44.44320384265938       59.34744325769205       44.09933750858360
C           45.62472384702582       57.16819401146057       44.29053954549968
C           46.82256343743338       56.24361775851264       44.02485308292795
C           47.11960215059835       56.15066985196703       42.53074524201717
C           46.48184943435383       54.86965087348175       44.62071863811999
C           47.47607232183114       53.72467731070977       44.38618989738671
C           46.85818635442590       52.44123083076159       44.94085335557164
C           48.83759117657068       54.00838255305139       45.02943962709943
C           49.91493893999020       52.95032455580980       44.72086203015809
C           50.22349837959202       52.10848744309707       45.95959652915472
C           51.22209899687264       53.57843326030543       44.22005890354185
C           51.16457889838712       54.27415680315334       42.85457068390047
C           50.72552279795288       53.31988123685923       41.74590526287449
C           52.55091970683664       54.85086638581325       42.52458003327159
C           52.54054011423781       55.98084972355178       41.47774630355032
C           53.58920622898435       55.72267154575616       40.39481020403474
C           52.80775140256253       57.34648422320259       42.12529570047148
C           51.74248885201232       57.79588156386160       43.13361452510448
C           50.48458682244661       58.28107904083217       42.41699580130047
C           52.29698409192910       58.88894203677219       44.05886021575877
C           51.57296619301712       58.99177670601672       45.41034955741674
C           51.90187538397910       60.33162709264269       46.06653842937358
C           51.98128954960177       57.81880796186423       46.31000373247394
C           51.17635847501376       57.62781875634003       47.60296744124962
C           51.88338485879201       56.58226399729033       48.46529534179871
C           49.73324526501973       57.20139083684447       47.30978962966422
C           48.77303821386106       57.29296947708211       48.50324278964396
C           47.49802032717979       56.50912792824103       48.19658881980240
C           48.41622074474824       58.74878232434346       48.81893042931922
C           47.78701342622160       58.95530569553218       50.20914997222246
C           46.38231561296212       59.54395192245044       50.07474526259250
C           48.63039210113814       59.88534894386171       51.09186520733870
C           50.04173951055180       59.39229410436969       51.42842159039049
C           49.99478190362225       58.14023246260580       52.30437895513710
C           50.85685719020830       60.46853193362075       52.16489774872306
C           51.03094842907204       61.81855130727664       51.45622094019151
C           51.72503372409779       61.65035581695365       50.10641547319963
C           51.84111255979166       62.78995702189759       52.32945264553071
C           51.08679243365110       63.33546164005545       53.55117819809318
C           50.08589091382069       64.40896778449856       53.13629697644880
C           52.08559295794482       63.88368927910798       54.57698893067172
C           51.50398427385892       64.37356015660831       55.91357190758117
C           52.66527661625221       64.77502091536475       56.82289853790117
C           50.62483269384384       63.30124878357753       56.56737120004679
C           49.92442907172540       63.70056948718614       57.87341978337668
C           49.20126561197233       62.47646203783199       58.43592787778041
C           48.94453523346813       64.87208637211285       57.67342989354842
C           49.18822853967150       66.04390961604111       58.63413407781119
C           48.69707939828118       65.69970086664037       60.03797791584327
C           48.51184988424249       67.32293291308532       58.12104656708159
C           49.01904514709279       68.62892498408691       58.75746628855455
C           47.84631600356402       69.58957582719975       58.96121872163726
C           50.08216446007983       69.32789273700604       57.89656031714888
C           51.36755284295178       68.53207419254264       57.64963349523255
C           52.13497635458177       68.31490051747660       58.95254660791512
C           52.30968017688414       69.24184188719710       56.66719782130687
C           51.75774225721219       69.55273316036580       55.27221726809065
C           51.30625728742616       68.28813380461243       54.54734975726692
C           52.82147645167531       70.30613404013926       54.44768187964215
C           52.29946815967677       71.57993799084055       53.76904805510024
C           53.33938823317960       72.08878232194505       52.77241688010804
C           51.99565108500919       72.65553820751775       54.82076321458815
C           51.10796725847292       73.82613044088450       54.36929131670766
C           51.47644797078959       75.07001951042297       55.18326844680735
C           49.60500131262420       73.55087502363025       54.54930368953182
C           48.90001567875176       72.79222851900415       53.41822477299166
C           48.84831664161726       73.64289997732983       52.14874550613271
C           47.46446337767360       72.42748378206302       53.82909947019185
C           47.32612083958980       71.31247580812168       54.87232723921532
C           47.77575195240045       69.96717201859235       54.30355644582247
C           45.87156670553714       71.17789269607479       55.34802641449728
C           45.26934731573704       72.39790917440082       56.04877159432614
C           46.04377436093975       72.83527901066057       57.28661514035099
H           44.99233430944100       69.24214165476572       41.88730987905588
H           44.55019066177338       69.34183305145315       43.59326006192638
H           45.29666233360381       70.72256562315768       42.79633185264048
H           47.02947918276251       73.20576060460931       57.01672064602178
H           45.51261399835074       73.63380683135134       57.80077375779437
H           46.16264741289820       72.00287291040770       57.97667478463698
H           45.24504779828055       70.93350361991111       54.48544726598499
H           45.81788108526001       70.33063054023633       56.03773426149741
H           46.99136342982985       73.33601458154831       54.20639229923059
H           46.91180063970288       72.12035918888932       52.93721992274364
H           49.44862583671420       71.87550699712293       53.19336987766899
H           48.32999180158144       73.11365881920864       51.35225819170150
H           48.31736811602021       74.57427901903890       52.33828810586528
H           49.84646346282435       73.88551777465121       51.79356502472324
H           49.47089771978144       73.00705675306567       55.48666971627110
H           49.09033068160544       74.50977660787377       54.66225825152586
H           51.53189014090339       72.19303048456565       55.69386349983392
H           52.95561591783142       73.06118913098649       55.15154602296943
H           47.95094683614486       71.54281498864766       55.74008461111895
H           47.62599776332814       69.17439174442745       55.03389717543414
H           47.19988423704374       69.72223509224047       53.41385180139006
H           48.82788531250285       69.98330903595918       54.03591678303076
H           51.31238592239394       74.04577916304832       53.31830792386794
H           50.88595563617025       75.92830421098719       54.86907070513090
H           51.29133588908403       74.89662958677492       56.24193912198635
H           52.52715915842390       75.32072063209695       55.05426193866604
H           51.38761278770401       71.33087513042456       53.21875409426814
H           53.54582559158722       71.33929783295264       52.01102724207623
H           52.99900321722435       72.99508937341606       52.27686967919884
H           54.27256272879310       72.31315062039486       53.28554420737817
H           53.65853118234911       70.58774916814303       55.09121011650930
H           53.22079835836647       69.63876044467358       53.68085956670264
H           50.88548475249324       70.20391033019031       55.37939129677771
H           52.11771799445650       67.56526750252684       54.49420089375004
H           50.46573823428508       67.82510624144635       55.05786343031468
H           50.99125749592054       68.53003417806318       53.53555403232848
H           52.63153632488741       70.18094521171031       57.12349172316772
H           53.20035726828365       68.61769704846951       56.54915015661552
H           51.10780311216450       67.55904172438149       57.22818752024151
H           53.03660462233549       67.73754951455487       58.76536232079555
H           52.42314033213488       69.27354049878488       59.38108051747164
H           51.54057545032614       67.78107655240174       59.68742604484370
H           49.61689122886066       69.56749246591210       56.93832684312896
H           50.34997076929501       70.27488915163059       58.37566324805218
H           49.44478571025984       68.41300703848697       59.74142150665006
H           47.10120909465992       69.15650060777000       59.62636943317244
H           48.18191517428793       70.52872125770722       59.39574190289153
H           47.36944844905240       69.80681683021045       58.00694499635036
H           48.64719187445667       67.39512855596701       57.03881335038712
H           47.43772652696694       67.23160840504245       58.30120337273677
H           50.26572181202789       66.21857544759247       58.68205322230644
H           47.62891817551915       65.48930047648751       60.02732360793849
H           49.21330885843508       64.82517022737312       60.42677591226690
H           48.87033614639828       66.52361706525282       60.72679474267727
H           49.02793691014063       65.23850540379205       56.64903866014770
H           47.91848214035797       64.51740433074629       57.79520776295221
H           50.68588415668204       64.00091873979284       58.59916734121081
H           49.90156575852172       61.66342305994301       58.61909846224096
H           48.70264384656890       62.71254513178508       59.37313608006399
H           48.45060537962416       62.12203416618121       57.73203753455471
H           49.84410197528220       63.00161277456146       55.86635044707965
H           51.24872072585712       62.42468999825243       56.76163643842393
H           50.90394244557369       65.26773710428122       55.72131899041829
H           53.31680316142654       65.48330787752832       56.31411846682672
H           52.31027035174139       65.24636308655444       57.73448258696205
H           53.25436465745163       63.90158411540010       57.09621236952987
H           52.81828034039987       63.10578529106560       54.79545683512630
H           52.62447535924922       64.71646336004152       54.11507893203113
H           50.53983131507086       62.50649952502405       54.00653338297585
H           49.47638007631168       64.72028855728263       53.98053400218782
H           50.60473578722292       65.28241268506498       52.74612194306117
H           49.41770172745969       64.03652484325156       52.36510761252622
H           52.74747407629485       62.27760434531487       52.66070789786224
H           52.15774532738624       63.63605702936665       51.71419124486301
H           50.04669525413109       62.26311109543504       51.28161733270975
H           52.69641960417977       61.17759465958630       50.23325584277157
H           51.12820759597262       61.03975298854645       49.43367218225017
H           51.87444714199507       62.61879129918565       49.63417813908011
H           50.38199356670201       60.63942089744009       53.13433510205747
H           51.85300291924194       60.05884447065326       52.35718057738034
H           50.56382868570973       59.12983902778641       50.50455533820936
H           49.50375939886756       57.31799721520219       51.78997487093442
H           51.00314160173119       57.82084720684450       52.56172770623432
H           49.45152111974616       58.33822286189505       53.22728261091866
H           48.69912635029414       60.84565898007006       50.57680275554082
H           48.09454746008181       60.05469970291224       52.03058567502973
H           47.69289132319872       57.98665704712387       50.70969534149233
H           46.42223498953743       60.51967392896854       49.59281570905325
H           45.74608715562917       58.89504921666198       49.47717530643940
H           45.91925726948394       59.66661586774374       51.05094838785842
H           49.30690515712558       59.37003057500626       48.73084331770937
H           47.72181173984665       59.09450974321774       48.05177422756426
H           49.25163569377342       56.84483005604051       49.37886454800848
H           46.78757089163928       56.58827419815093       49.01613087404094
H           47.02674322422086       56.89734736712100       47.29558433878803
H           47.71391253489428       55.45481815411453       48.03761659371055
H           49.32309957543217       57.81789384140069       46.50785873997699
H           49.75330862712507       56.17048395599056       46.94850346133740
H           51.17336062163255       58.57286920685166       48.15311189387138
H           51.88446632479956       55.61505030877908       47.96590709477688
H           52.91697973684064       56.87285173949687       48.64330766630230
H           51.39475205163958       56.46992653466098       49.42895332595158
H           51.91893739165789       56.88918168465182       45.74012767314059
H           53.03205221570468       57.96114142209653       46.57710651496068
H           50.49489798416119       58.95585524780859       45.22701218802888
H           52.96938848212605       60.40565381525623       46.26458427212209
H           51.61643709897564       61.15712059159722       45.41715594697310
H           51.37206382537332       60.45000222915649       47.00776764909385
H           53.35456039747930       58.69732839573183       44.25775274756111
H           52.23657220489282       59.84961068684878       43.54093906402263
H           51.47150716055494       56.93432831984267       43.74752502471024
H           50.71098347668223       59.13607876157091       41.78173271136595
H           50.06482545537995       57.49629768483904       41.79237373948108
H           49.72182936984287       58.58072703139219       43.13184162644729
H           53.77607457497462       57.29105071881808       42.63047760306622
H           52.89689469441226       58.10483654054872       41.34260657486811
H           51.56085697135887       56.01031553007917       40.99006239976806
H           53.57822278531108       56.51483292668416       39.64851396067721
H           54.58530859285346       55.68212547363033       40.83195382885899
H           53.39836439576715       54.77777916512771       39.89009342925436
H           53.01325904740825       55.22540158359359       43.44030083370439
H           53.17929068585023       54.03126416396906       42.16801075487703
H           50.44408448551749       55.09700062290499       42.90297032431285
H           51.34172512508375       52.42288666073203       41.75043819317939
H           49.68633514107544       53.02406077666880       41.86530792373846
H           50.82475236134653       53.79611936598471       40.77247062538317
H           51.56134485211692       54.30320445447126       44.96638991749180
H           51.97966136107622       52.79251072178818       44.16566100373833
H           49.54273716527035       52.27717361873819       43.94309350015789
H           49.32293830127696       51.64324725365250       46.34893424215671
H           50.93648295682848       51.32207251605919       45.72166602407903
H           50.64932803226078       52.73254076663920       46.74300389264931
H           49.18181716292554       54.98345777307748       44.68506826175385
H           48.69928193800136       54.07952079367902       46.11053965525674
H           47.61876066239707       53.59281684681761       43.30833797647731
H           46.65836250543824       52.54792019507835       46.00549896684493
H           45.91576225346998       52.22317958939847       44.44129929601313
H           47.52079924370101       51.59215254234450       44.79691881162026
H           46.34959045639501       54.98710326002124       45.69954085940934
H           45.51663457986037       54.56169978783510       44.20916015125829
H           47.70423133288996       56.64182504487589       44.53467316843712
H           46.28707279300612       55.68533410327898       42.00610674788138
H           47.28335748694239       57.13838315391030       42.10700019563248
H           48.01418467047561       55.56118561228352       42.34780998875186
H           45.33794843238092       57.07371136066129       45.34221287197911
H           44.78615019890632       56.79790011440949       43.69523699666153
H           46.15296108690088       58.77146741708979       42.95353395712985
H           44.10283585196271       59.34630922461267       45.13311804355668
H           44.48536321683384       60.37471873061814       43.74869259316668
H           43.70384052529008       58.82218540814753       43.49714303635150
H           47.79982707652378       58.80877830263893       44.77084074668954
H           46.52243340460110       59.05747748839914       45.96024704107541
H           46.06142519732977       61.28954005975497       44.97783401794017
H           47.46451136570136       61.05794614920769       46.94683625391074
H           48.88847315633918       60.72845765488213       45.95566150065035
H           48.13981310084127       62.32069544661444       45.93444026789154
H           47.09900795867272       60.70156270564011       42.68551559780150
H           48.66515773332917       60.91430810121447       43.46019397190278
H           47.90001636988632       63.27885354922208       44.07153509830419
H           48.48287930367384       64.12979332748107       41.81857027109373
H           49.49199661122747       62.75610013246406       42.25228039632370
H           48.15192297987618       62.54146178333951       41.12550919996382
H           45.44136004221681       62.75878909888842       43.66480906519754
H           45.80822956413505       62.68436263486317       41.94533287060723
H           46.54169878552420       65.08868345894987       42.06101641779987
H           44.22377098172245       65.92754843924003       42.05868365169434
H           44.28247043640094       64.33708620994426       41.31190999504806
H           43.68705030356396       64.50916192106573       42.96271788476150
H           47.04122628942895       65.16420117938344       44.49467858028510
H           45.33874833432633       64.87965718290518       44.85031507611419
H           44.75814242322558       67.06941747777361       43.87455988847338
H           45.63855577399602       68.38408715257651       45.72869736531095
H           45.38483755373993       66.74074763342773       46.30047384775948
H           47.01319741644577       67.29285699196767       45.90632310119492
H           46.54601504411681       67.25777791149547       42.20250498137026
H           47.76897666789760       67.29117668077946       43.47231049226415
H           46.93212645884331       69.48787291979835       44.23259457391134
H           47.49103300991634       69.36049981410991       41.23916234596349
H           47.72647288198113       70.76411293690383       42.28166293608827
H           48.71433915060775       69.31979829801459       42.50844826435625
H           45.19812104050698       73.23545606467844       55.35223535602221
H           44.24783052338783       72.14250464804898       56.34432662930396
C           39.19088029402587       58.78921604527876       58.38711578250383
C           38.94950977162228       60.23895006540674       58.79841827330654
C           37.91085117260615       60.29103952522746       59.91815141743087
C           38.47697760986730       61.08513989543185       57.61004790802279
C           39.53595736672911       61.32639301513665       56.52632114742200
C           40.60180696517532       62.30363231245290       57.01535918568327
C           38.87445501148477       61.85321784187604       55.24432257746831
C           39.72063760864889       61.66079901089974       53.98085814779444
C           39.14656075746601       62.49759568544651       52.83444109130581
C           39.95206813046654       60.18442092614642       53.59092538184236
C           38.84269281061428       59.14609921288784       53.82430093199346
C           39.42446167169923       57.76460965293127       53.51639319806370
C           37.60557678219146       59.41178462973847       52.96149942088633
C           36.36493867556631       58.56617657460866       53.28649463572128
C           35.35488393224063       58.72840488112929       52.14947660044947
C           35.74401433754924       58.99328611910030       54.62304113789948
C           34.64935142876384       58.04956983449171       55.15505146667473
C           33.41832780819753       58.85164369501188       55.58205755236961
C           35.12733007553360       57.20386611768512       56.34331354502098
C           36.26651779491866       56.21476251315116       56.05784220937754
C           35.81700037664441       55.10921333080484       55.10571327581594
C           36.74016777581039       55.63296951144353       57.39845397182501
C           37.84983530846520       54.57277865759309       57.34749253843919
C           38.08470994810206       54.05005515199492       58.76465074736570
C           39.14702994654728       55.13537867931851       56.75578403437268
C           40.21507751406072       54.09321590624109       56.38640818509993
C           41.53575403240308       54.81181563007760       56.11342689780217
C           39.76349060636078       53.27756222755048       55.16781458677347
C           40.75619341564678       52.24049618471575       54.62005335303138
C           40.13884435199238       51.58540144442161       53.38420169413986
C           41.10973633039453       51.20208300207612       55.69066985122642
C           42.00376812915587       50.03293438822340       55.24795783980652
C           42.17755640741044       49.08611555839304       56.43564735411495
C           43.35754240837558       50.53664655153550       54.73980349757340
C           44.33744450869645       49.46603571147555       54.24102451736191
C           45.70385976536991       50.11927196426918       54.02499163717577
C           43.87593668642178       48.79681993401543       52.93497316823125
C           43.14577404269217       47.44997751896977       53.06571135754899
C           44.08328600886543       46.37119033462118       53.59837187228619
C           42.61047218269498       47.07829446142429       51.67464948575692
C           41.92485024522080       45.71592377787754       51.50393648022291
C           41.65156003434485       45.49834252592019       50.01460171176127
C           40.63371730927317       45.62903588956409       52.32309827168505
C           40.01459119094923       44.22701591677179       52.41276497837874
C           38.56166585268552       44.33932428465538       52.87439328095437
C           40.80852766339134       43.33438106501372       53.37323356549000
C           40.45334674487110       41.83936080856328       53.27615084392249
C           40.03639413746405       41.29139585880983       54.64230750202614
C           41.61798507493533       41.00013457919601       52.73617903720768
C           42.05882807754433       41.29306089604871       51.29489953458302
C           40.97835516081318       40.87805045579467       50.29862719443572
C           43.37577896777816       40.54293726951069       51.04272170787948
C           44.00392727002600       40.70261627336519       49.65280210372996
C           45.10237564917576       39.65554995598534       49.46899568438025
C           44.50842128818103       42.12814907903105       49.37863919552827
C           45.74419360759823       42.58897767883915       50.17958337835760
C           45.53796142295621       44.01621028672499       50.68357609636558
C           46.99868823379286       42.48034232435988       49.30210825669553
C           48.32872935084793       42.95375642098165       49.90763489883472
C           49.41546059080407       42.76078682425147       48.85142917991453
C           48.64314080228441       42.20401229527708       51.20760915347339
C           50.03563034423844       42.42272925252018       51.82340481499136
C           50.10105212332106       41.63590675388119       53.13362885365495
C           50.31076638187040       43.91353916536666       52.05753136040374
C           51.71730284455402       44.28625309798091       52.55783504623172
C           51.61989386064744       45.48331965415035       53.50664581843937
C           52.68384473486557       44.65377997328773       51.42408874035998
C           53.14459810995839       43.51550616163519       50.50401417890713
C           53.99563574852397       42.50138622813860       51.26228734659388
C           53.90788678229201       44.13812145435708       49.32716470404638
C           54.42887529903227       43.18962465102854       48.23722101544640
C           55.21097030229188       44.02313291570618       47.22341087283863
C           53.28480477471768       42.42571685574280       47.56067085414178
C           53.69239680963287       41.32864088905286       46.56499692471541
C           52.44599225106230       40.87791790920192       45.80267449547791
C           54.35098349011272       40.15293020640131       47.29476314536507
C           54.99333312131422       39.08545913838586       46.39940023899124
C           55.43927889313895       37.91174802913824       47.27402343266832
C           56.18447721697843       39.64512040363928       45.59846243327361
C           55.93244705700796       39.77447368132474       44.09120094852963
C           55.99633657751428       38.39858787250991       43.42761183366104
C           56.95489632736559       40.71363707720100       43.43072446091572
C           56.67094573698436       42.20757393664856       43.62888793326280
C           55.46344001446626       42.64335153218979       42.79832880999434
C           57.87591081146346       43.07313472419050       43.23073654376391
C           59.08858472501429       43.03684001328072       44.16902701257911
C           58.73086644728539       43.54744429278544       45.56457420593007
C           60.23475099835804       43.89009712474682       43.60669845616650
C           60.85106111768627       43.35571690902326       42.31549536799418
C           62.11211793708431       44.12649876524215       41.94103009475803
H           39.45706679470178       58.18982877204971       59.25455768164949
H           38.29127320923875       58.36992465637366       57.94091864446903
H           39.99828106518864       58.71023568794805       57.66453480501940
H           62.86313348571539       44.03814963780372       42.72297694513208
H           62.53623447439747       43.74424597076156       41.01486590922487
H           61.88643738104435       45.18162123804195       41.80670634023864
H           59.87599456229561       44.90817132711307       43.43846171080965
H           61.02428712996448       43.94179285594289       44.36014680814604
H           58.18931211269258       42.76389856558688       42.23137076876687
H           57.54119526351929       44.11160462680384       43.16145667015093
H           56.43881198441506       42.38817660689408       44.68090564681678
H           55.22817923782223       43.68821927183280       42.98592236366583
H           55.67136016030913       42.52565715819338       41.73628038381609
H           54.58343867303796       42.05201044038941       43.03828540501836
H           57.94439407560917       40.47179361138262       43.82459048824960
H           56.97875117865639       40.51273310112813       42.35610820560655
H           56.45727452436782       40.61926682361864       46.00528535447488
H           57.04673233077421       38.99078439052700       45.73530392231905
H           59.45040459598366       42.00621540844244       44.25528072203876
H           58.05865344658706       42.86597352864326       46.07821485265690
H           59.62849997318196       43.64892490986782       46.17099051254286