      -----------------------------------------------------------      
     |                   =====================                   |     
     |                           x T B                           |     
     |                   =====================                   |     
     |                         S. Grimme                         |     
     |          Mulliken Center for Theoretical Chemistry        |     
     |                    University of Bonn                     |     
      -----------------------------------------------------------      

   * xtb version 6.6.1 (8d0f1dd) compiled by 'stahn@M-Bot' on 2023-08-01

   xtb is free software: you can redistribute it and/or modify it under
   the terms of the GNU Lesser General Public License as published by
   the Free Software Foundation, either version 3 of the License, or
   (at your option) any later version.
   
   xtb is distributed in the hope that it will be useful,
   but WITHOUT ANY WARRANTY; without even the implied warranty of
   MERCHANTABILITY or FITNESS FOR A PARTICULAR PURPOSE.  See the
   GNU Lesser General Public License for more details.
   
   Cite this work as:
   * C. Bannwarth, E. Caldeweyher, S. Ehlert, A. Hansen, P. Pracht,
     J. Seibert, S. Spicher, S. Grimme, WIREs Comput. Mol. Sci., 2020, 11,
     e01493. DOI: 10.1002/wcms.1493
   
   for GFN2-xTB:
   * C. Bannwarth, S. Ehlert and S. Grimme., J. Chem. Theory Comput., 2019,
     15, 1652-1671. DOI: 10.1021/acs.jctc.8b01176
   for GFN1-xTB:
   * S. Grimme, C. Bannwarth, P. Shushkov, J. Chem. Theory Comput., 2017,
     13, 1989-2009. DOI: 10.1021/acs.jctc.7b00118
   for GFN0-xTB:
   * P. Pracht, E. Caldeweyher, S. Ehlert, S. Grimme, ChemRxiv, 2019, preprint.
     DOI: 10.26434/chemrxiv.8326202.v1
   for GFN-FF:
   * S. Spicher and S. Grimme, Angew. Chem. Int. Ed., 2020, 59, 15665-15673.
     DOI: 10.1002/anie.202004239
   
   for ALPB and GBSA implicit solvation:
   * S. Ehlert, M. Stahn, S. Spicher, S. Grimme, J. Chem. Theory Comput.,
     2021, 17, 4250-4261. DOI: 10.1021/acs.jctc.1c00471
   
   for DFT-D4:
   * E. Caldeweyher, C. Bannwarth and S. Grimme, J. Chem. Phys., 2017,
     147, 034112. DOI: 10.1063/1.4993215
   * E. Caldeweyher, S. Ehlert, A. Hansen, H. Neugebauer, S. Spicher,
     C. Bannwarth and S. Grimme, J. Chem. Phys., 2019, 150, 154122.
     DOI: 10.1063/1.5090222
   * E. Caldeweyher, J.-M. Mewes, S. Ehlert and S. Grimme, Phys. Chem. Chem. Phys.
     2020, 22, 8499-8512. DOI: 10.1039/D0CP00502A
   
   for sTDA-xTB:
   * S. Grimme and C. Bannwarth, J. Chem. Phys., 2016, 145, 054103.
     DOI: 10.1063/1.4959605
   
   in the mass-spec context:
   * V. Asgeirsson, C. Bauer and S. Grimme, Chem. Sci., 2017, 8, 4879.
     DOI: 10.1039/c7sc00601b
   * J. Koopman and S. Grimme, ACS Omega 2019, 4, 12, 15120-15133.
     DOI: 10.1021/acsomega.9b02011
   
   for metadynamics refer to:
   * S. Grimme, J. Chem. Theory Comput., 2019, 155, 2847-2862
     DOI: 10.1021/acs.jctc.9b00143
   
   for SPH calculations refer to:
   * S. Spicher and S. Grimme, J. Chem. Theory Comput., 2021, 17, 1701-1714
     DOI: 10.1021/acs.jctc.0c01306
   
   with help from (in alphabetical order)
   P. Atkinson, C. Bannwarth, F. Bohle, G. Brandenburg, E. Caldeweyher
   M. Checinski, S. Dohm, S. Ehlert, S. Ehrlich, I. Gerasimov, C. Hölzer
   A. Katbashev, J. Koopman, C. Lavigne, S. Lehtola, F. März, M. Müller,
   F. Musil, H. Neugebauer, J. Pisarek, C. Plett, P. Pracht, F. Pultar,
   J. Seibert, P. Shushkov, S. Spicher, M. Stahn, M. Steiner, T. Strunk,
   J. Stückrath, T. Rose, and J. Unsleber
   
 * started run on 2024/06/20 at 08:47:03.642     

           -------------------------------------------------
          |                Calculation Setup                |
           -------------------------------------------------

          program call               : /home/abt-grimme/AK-bin/xtb input.xyz --input input.inp --opt --gbsa water
          hostname                   : boar096.thch.uni-bonn.de
          coordinate file            : input.xyz
          omp threads                :                     8

   ID    Z sym.   atoms
    1    6 C      1-90, 273-362, 545-634, 817-906, 1089-1178, 1361-1450,
                  1633-1722, 1905-1994, 2177-2266, 2449-2538, 2721-2810,
                  2993-3082, 3265-3354
    2    1 H      91-272, 363-544, 635-816, 907-1088, 1179-1360, 1451-1632,
                  1723-1904, 1995-2176, 2267-2448, 2539-2720, 2811-2992,
                  3083-3264, 3355-3536

molecular fragmentation (1/2 indicates fragments):
111111111111111111111111111111111111111111111111111111111111111111111111
111111111111111111111111111111111111111111111111111111111111111111111111
111111111111111111111111111111111111111111111111111111111111111111111111
111111111111111111111111111111111111111111111111111111112222222222222222
222222222222222222222222222222222222222222222222222222222222222222222222
222222222222222222222222222222222222222222222222222222222222222222222222
222222222222222222222222222222222222222222222222222222222222222222222222
222222222222222222222222222222222222222222222222222222222222222222222222
222222222222222222222222222222222222222222222222222222222222222222222222
222222222222222222222222222222222222222222222222222222222222222222222222
222222222222222222222222222222222222222222222222222222222222222222222222
222222222222222222222222222222222222222222222222222222222222222222222222
222222222222222222222222222222222222222222222222222222222222222222222222
222222222222222222222222222222222222222222222222222222222222222222222222
222222222222222222222222222222222222222222222222222222222222222222222222
222222222222222222222222222222222222222222222222222222222222222222222222
222222222222222222222222222222222222222222222222222222222222222222222222
222222222222222222222222222222222222222222222222222222222222222222222222
222222222222222222222222222222222222222222222222222222222222222222222222
222222222222222222222222222222222222222222222222222222222222222222222222
222222222222222222222222222222222222222222222222222222222222222222222222
222222222222222222222222222222222222222222222222222222222222222222222222
222222222222222222222222222222222222222222222222222222222222222222222222
222222222222222222222222222222222222222222222222222222222222222222222222
222222222222222222222222222222222222222222222222222222222222222222222222
222222222222222222222222222222222222222222222222222222222222222222222222
222222222222222222222222222222222222222222222222222222222222222222222222
222222222222222222222222222222222222222222222222222222222222222222222222
222222222222222222222222222222222222222222222222222222222222222222222222
222222222222222222222222222222222222222222222222222222222222222222222222
222222222222222222222222222222222222222222222222222222222222222222222222
222222222222222222222222222222222222222222222222222222222222222222222222
222222222222222222222222222222222222222222222222222222222222222222222222
222222222222222222222222222222222222222222222222222222222222222222222222
222222222222222222222222222222222222222222222222222222222222222222222222
222222222222222222222222222222222222222222222222222222222222222222222222
222222222222222222222222222222222222222222222222222222222222222222222222
222222222222222222222222222222222222222222222222222222222222222222222222
222222222222222222222222222222222222222222222222222222222222222222222222
222222222222222222222222222222222222222222222222222222222222222222222222
222222222222222222222222222222222222222222222222222222222222222222222222
222222222222222222222222222222222222222222222222222222222222222222222222
222222222222222222222222222222222222222222222222222222222222222222222222
222222222222222222222222222222222222222222222222222222222222222222222222
222222222222222222222222222222222222222222222222222222222222222222222222
222222222222222222222222222222222222222222222222222222222222222222222222
222222222222222222222222222222222222222222222222222222222222222222222222
222222222222222222222222222222222222222222222222222222222222222222222222
222222222222222222222222222222222222222222222222222222222222222222222222
22222222
# atoms in fragment 1/2:   272  3264
 fragment masses (1/2) :     1264.41    15172.94
CMA distance (Bohr)    :  32.273
constraining FC (au)   :  0.0500

           -------------------------------------------------
          |                 G F N 2 - x T B                 |
           -------------------------------------------------

        Reference                      10.1021/acs.jctc.8b01176
      * Hamiltonian:
        H0-scaling (s, p, d)           1.850000    2.230000    2.230000
        zeta-weighting                 0.500000
      * Dispersion:
        s8                             2.700000
        a1                             0.520000
        a2                             5.000000
        s9                             5.000000
      * Repulsion:
        kExp                           1.500000    1.000000
        rExp                           1.000000
      * Coulomb:
        alpha                          2.000000
        third order                    shell-resolved
        anisotropic                    true
        a3                             3.000000
        a5                             4.000000
        cn-shift                       1.200000
        cn-exp                         4.000000
        max-rad                        5.000000

      * Solvation model:               GBSA
        Solvent                        water
        Parameter file                 internal GFN2-xTB/GBSA
        Dielectric constant                8.0200E+01
        Reference state                gsolv [1 M gas/solution]
        Free energy shift                  1.8574E-03 Eh       1.1656E+00 kcal/mol
        Temperature                        2.9815E+02 K
        Density                            1.0000E+00 kg/L
        Solvent mass                       1.8000E+01 g/mol
        Interaction kernel             Still
        Born radius scaling (c1)           1.5524E+00
        Born radii integrator          GBOBC
        Born offset                        2.4628E-02 a0       4.6540E-02 AA
        H-bond correction              true
        Ion screening                  false
        Surface tension                    1.0000E-05 Eh       1.5569E+01 dyn/cm
        Grid points                               230 per atom
q/qsh data taken from xtbrestart
CAMM data taken from xtbrestart

          ...................................................
          :                      SETUP                      :
          :.................................................:
          :  # basis functions                7046          :
          :  # atomic orbitals                7046          :
          :  # shells                         4706          :
          :  # electrons                      7046          :
          :  max. iterations                   250          :
          :  Hamiltonian                  GFN2-xTB          :
          :  restarted?                       true          :
          :  GBSA solvation                   true          :
          :  PC potential                    false          :
          :  electronic temp.          300.0000000     K    :
          :  accuracy                    1.0000000          :
          :  -> integral cutoff          0.2500000E+02      :
          :  -> integral neglect         0.1000000E-07      :
          :  -> SCF convergence          0.1000000E-05 Eh   :
          :  -> wf. convergence          0.1000000E-03 e    :
          :  Broyden damping             0.4000000          :
          ...................................................

 iter      E             dE          RMSdq      gap      omega  full diag
   1  -3764.1974274 -0.376420E+04  0.367E-05   10.53       0.0  T
   2  -3764.1974274 -0.793079E-09  0.273E-05   10.53      61.5  T
   3  -3764.1974274 -0.952241E-09  0.136E-05   10.53     124.1  T

   *** convergence criteria satisfied after 3 iterations ***

         #    Occupation            Energy/Eh            Energy/eV
      -------------------------------------------------------------
         1        2.0000           -0.6166987             -16.7812
       ...           ...                  ...                  ...
      3517        2.0000           -0.3761770             -10.2363
      3518        2.0000           -0.3760231             -10.2321
      3519        2.0000           -0.3757315             -10.2242
      3520        2.0000           -0.3747622             -10.1978
      3521        2.0000           -0.3741648             -10.1815
      3522        2.0000           -0.3733815             -10.1602
      3523        2.0000           -0.3715444             -10.1102 (HOMO)
      3524                          0.0153987               0.4190 (LUMO)
      3525                          0.0162602               0.4425
      3526                          0.0171516               0.4667
      3527                          0.0183369               0.4990
      3528                          0.0184152               0.5011
       ...                                ...                  ...
      7046                          0.3766000              10.2478
      -------------------------------------------------------------
                  HL-Gap            0.3869432 Eh           10.5293 eV
             Fermi-level           -0.1780728 Eh           -4.8456 eV

 SCC (total)                   0 d,  0 h,  8 min, 20.128 sec
 SCC setup                      ...        0 min,  1.957 sec (  0.391%)
 Dispersion                     ...        0 min,  4.262 sec (  0.852%)
 classical contributions        ...        0 min,  0.161 sec (  0.032%)
 integral evaluation            ...        0 min,  7.224 sec (  1.444%)
 iterations                     ...        3 min, 41.621 sec ( 44.313%)
 molecular gradient             ...        4 min, 14.038 sec ( 50.795%)
 printout                       ...        0 min, 10.865 sec (  2.172%)

         :::::::::::::::::::::::::::::::::::::::::::::::::::::
         ::                     SUMMARY                     ::
         :::::::::::::::::::::::::::::::::::::::::::::::::::::
         :: total energy           -3715.345900573428 Eh    ::
         :: total w/o Gsasa/hb     -3715.236159121179 Eh    ::
         :: gradient norm              0.667329813514 Eh/a0 ::
         :: HOMO-LUMO gap             10.529259444181 eV    ::
         ::.................................................::
         :: SCC energy             -3764.197427431145 Eh    ::
         :: -> isotropic ES            0.438375172760 Eh    ::
         :: -> anisotropic ES          1.498119446456 Eh    ::
         :: -> anisotropic XC          2.303119379075 Eh    ::
         :: -> dispersion             -4.699254327307 Eh    ::
         :: -> Gsolv                  -0.046284631965 Eh    ::
         ::    -> Gelec                0.063456820283 Eh    ::
         ::    -> Gsasa               -0.105257898370 Eh    ::
         ::    -> Ghb                 -0.006340997005 Eh    ::
         ::    -> Gshift               0.001857443127 Eh    ::
         :: repulsion energy          48.120696690397 Eh    ::
         :: add. restraining           0.000000000000 Eh    ::
         :: total charge              -0.000000000010 e     ::
         :::::::::::::::::::::::::::::::::::::::::::::::::::::

      ----------------------------------------------------------- 
     |              Fast Inertial Relaxation Engine              |
      ----------------------------------------------------------- 

          ...................................................
          :                      SETUP                      :
          :.................................................:
          :   energy convergence        0.5000000E-05 Eh    :
          :   grad. convergence         0.1000000E-02 Eh/a0 :
          :   optimization log               true           :
          :   writing optlog all                1     steps :
          :   Hessian reset                    20     steps :
          :   time step scaling                 5     steps :
          :   maximium step len.        1.0000000     a0    :
          :   initial time step         0.2500000     fs    :
          :   maximum time step         1.2500000     fs    :
          :   power reset thr           0.0000000     au    :
          :   alpha parameter           0.1000000           :
          :   BFGS update                   false           :
          :   preconditioning               false           :
          ...................................................

........................................................................
.............................. CYCLE    1 ..............................
........................................................................

 iter      E             dE          RMSdq      gap      omega  full diag
   1  -3764.4605024 -0.376446E+04  0.763E-03   10.54       0.0  T
   2  -3764.4605462 -0.438606E-04  0.414E-03   10.54       1.0  T
   3  -3764.4605469 -0.683267E-06  0.180E-03   10.54       1.0  T
   4  -3764.4605474 -0.514399E-06  0.440E-04   10.54       3.8  T
   5  -3764.4605477 -0.269682E-06  0.177E-04   10.54       9.5  T
     SCC iter.                  ...        6 min, 16.839 sec
     gradient                   ...        4 min, 13.919 sec
 * total energy  : -3715.3965625 Eh     change    :  -0.5066190E-01 Eh
   gradient norm :     0.6344644 Eh/a0  converged?    E=F G=F D=F
   time step     :     0.2500000 fs     power     :   0.2621895E-05
   step length   :     0.0782096 a0     speed     :   0.7567202E-02

........................................................................
.............................. CYCLE    2 ..............................
........................................................................

 iter      E             dE          RMSdq      gap      omega  full diag
   1  -3764.8485212 -0.376485E+04  0.112E-02   10.56       0.0  T
   2  -3764.8486155 -0.942425E-04  0.607E-03   10.56       1.0  T
   3  -3764.8486170 -0.152526E-05  0.263E-03   10.56       1.0  T
   4  -3764.8486181 -0.111641E-05  0.653E-04   10.56       2.6  T
   5  -3764.8486187 -0.588506E-06  0.274E-04   10.56       6.1  T
   6  -3764.8486188 -0.471273E-07  0.125E-04   10.56      13.4  T
     SCC iter.                  ...        7 min, 16.497 sec
     gradient                   ...        4 min, 13.348 sec
 * total energy  : -3715.4668656 Eh     change    :  -0.7030315E-01 Eh
   gradient norm :     0.5882713 Eh/a0  converged?    E=F G=F D=F
   time step     :     0.2500000 fs     power     :   0.3586272E-05
   step length   :     0.1152644 a0     speed     :   0.1115245E-01

........................................................................
.............................. CYCLE    3 ..............................
........................................................................

 iter      E             dE          RMSdq      gap      omega  full diag
   1  -3765.3516030 -0.376535E+04  0.144E-02   10.58       0.0  T
   2  -3765.3517572 -0.154190E-03  0.782E-03   10.58       1.0  T
   3  -3765.3517597 -0.253320E-05  0.335E-03   10.58       1.0  T
   4  -3765.3517616 -0.181277E-05  0.839E-04   10.57       2.0  T
   5  -3765.3517625 -0.967870E-06  0.355E-04   10.57       4.7  T
   6  -3765.3517626 -0.770315E-07  0.158E-04   10.57      10.6  T
     SCC iter.                  ...        7 min, 28.632 sec
     gradient                   ...        4 min, 12.450 sec
 * total energy  : -3715.5502115 Eh     change    :  -0.8334585E-01 Eh
   gradient norm :     0.5300839 Eh/a0  converged?    E=F G=F D=F
   time step     :     0.2500000 fs     power     :   0.4180990E-05
   step length   :     0.1496233 a0     speed     :   0.1447686E-01

........................................................................
.............................. CYCLE    4 ..............................
........................................................................

 iter      E             dE          RMSdq      gap      omega  full diag
   1  -3765.9570434 -0.376596E+04  0.173E-02   10.60       0.0  T
   2  -3765.9572581 -0.214639E-03  0.933E-03   10.59       1.0  T
   3  -3765.9572617 -0.364774E-05  0.395E-03   10.59       1.0  T
   4  -3765.9572642 -0.247932E-05  0.989E-04   10.59       1.7  T
   5  -3765.9572655 -0.133168E-05  0.430E-04   10.59       3.9  T
   6  -3765.9572657 -0.110493E-06  0.187E-04   10.59       9.0  T
   7  -3765.9572657 -0.505211E-07  0.124E-04   10.59      13.5  T
     SCC iter.                  ...        8 min, 34.890 sec
     gradient                   ...        4 min, 13.121 sec
 * total energy  : -3715.6390319 Eh     change    :  -0.8882045E-01 Eh
   gradient norm :     0.4635429 Eh/a0  converged?    E=F G=F D=F
   time step     :     0.2500000 fs     power     :   0.4366180E-05
   step length   :     0.1804510 a0     speed     :   0.1745960E-01

........................................................................
.............................. CYCLE    5 ..............................
........................................................................

 iter      E             dE          RMSdq      gap      omega  full diag
   1  -3766.6493823 -0.376665E+04  0.196E-02   10.61       0.0  T
   2  -3766.6496476 -0.265255E-03  0.105E-02   10.61       1.0  T
   3  -3766.6496522 -0.468448E-05  0.438E-03   10.61       1.0  T
   4  -3766.6496552 -0.290313E-05  0.108E-03   10.61       1.6  T
   5  -3766.6496567 -0.156845E-05  0.480E-04   10.61       3.5  T
   6  -3766.6496568 -0.114245E-06  0.192E-04   10.61       8.8  T
   7  -3766.6496569 -0.500122E-07  0.127E-04   10.61      13.3  T
     SCC iter.                  ...        8 min, 39.756 sec
     gradient                   ...        4 min, 12.862 sec
 * total energy  : -3715.7257489 Eh     change    :  -0.8671700E-01 Eh
   gradient norm :     0.3940995 Eh/a0  converged?    E=F G=F D=F
   time step     :     0.2500000 fs     power     :   0.4156822E-05
   step length   :     0.2070268 a0     speed     :   0.2003096E-01

........................................................................
.............................. CYCLE    6 ..............................
........................................................................

 iter      E             dE          RMSdq      gap      omega  full diag
   1  -3767.4939163 -0.376749E+04  0.236E-02   10.63       0.0  T
   2  -3767.4942802 -0.363920E-03  0.127E-02   10.63       1.0  T
   3  -3767.4942873 -0.713048E-05  0.512E-03   10.63       1.0  T
   4  -3767.4942911 -0.377497E-05  0.125E-03   10.63       1.3  T
   5  -3767.4942931 -0.198977E-05  0.588E-04   10.63       2.9  T
   6  -3767.4942933 -0.157206E-06  0.218E-04   10.63       7.7  T
   7  -3767.4942933 -0.627178E-07  0.146E-04   10.62      11.5  T
     SCC iter.                  ...        8 min, 41.629 sec
     gradient                   ...        4 min, 14.122 sec
 * total energy  : -3715.8113494 Eh     change    :  -0.8560053E-01 Eh
   gradient norm :     0.3228104 Eh/a0  converged?    E=F G=F D=F
   time step     :     0.2750000 fs     power     :   0.3546306E-05
   step length   :     0.2540364 a0     speed     :   0.2234489E-01

........................................................................
.............................. CYCLE    7 ..............................
........................................................................

 iter      E             dE          RMSdq      gap      omega  full diag
   1  -3768.4868765 -0.376849E+04  0.275E-02   10.65       0.0  T
   2  -3768.4873229 -0.446347E-03  0.147E-02   10.65       1.0  T
   3  -3768.4873334 -0.105455E-04  0.566E-03   10.65       1.0  T
   4  -3768.4873377 -0.425833E-05  0.134E-03   10.64       1.3  T
   5  -3768.4873397 -0.201592E-05  0.695E-04   10.64       2.4  T
   6  -3768.4873399 -0.200631E-06  0.232E-04   10.64       7.3  T
   7  -3768.4873400 -0.685754E-07  0.160E-04   10.64      10.5  T
     SCC iter.                  ...        8 min, 28.304 sec
     gradient                   ...        4 min, 15.804 sec
 * total energy  : -3715.8863608 Eh     change    :  -0.7501138E-01 Eh
   gradient norm :     0.2658880 Eh/a0  converged?    E=F G=F D=F
   time step     :     0.3025000 fs     power     :   0.2590273E-05
   step length   :     0.3023886 a0     speed     :   0.2417994E-01

........................................................................
.............................. CYCLE    8 ..............................
........................................................................

 iter      E             dE          RMSdq      gap      omega  full diag
   1  -3769.5936843 -0.376959E+04  0.307E-02   10.66       0.0  T
   2  -3769.5941484 -0.464086E-03  0.164E-02   10.66       1.0  T
   3  -3769.5941634 -0.149840E-04  0.581E-03   10.66       1.0  T
   4  -3769.5941673 -0.393704E-05  0.132E-03   10.66       1.3  T
   5  -3769.5941686 -0.123402E-05  0.764E-04   10.66       2.2  T
   6  -3769.5941688 -0.232986E-06  0.219E-04   10.66       7.7  T
   7  -3769.5941689 -0.591890E-07  0.159E-04   10.66      10.6  T
     SCC iter.                  ...        8 min, 32.846 sec
     gradient                   ...        4 min, 15.712 sec
 * total energy  : -3715.9425566 Eh     change    :  -0.5619581E-01 Eh
   gradient norm :     0.2433219 Eh/a0  converged?    E=F G=F D=F
   time step     :     0.3327500 fs     power     :   0.1494902E-05
   step length   :     0.3466581 a0     speed     :   0.2519987E-01

........................................................................
.............................. CYCLE    9 ..............................
........................................................................

 iter      E             dE          RMSdq      gap      omega  full diag
   1  -3770.7316524 -0.377073E+04  0.326E-02   10.67       0.0  T
   2  -3770.7320346 -0.382203E-03  0.176E-02   10.67       1.0  T
   3  -3770.7320535 -0.188228E-04  0.541E-03   10.67       1.0  T
   4  -3770.7320568 -0.333747E-05  0.130E-03   10.67       1.3  T
   5  -3770.7320573 -0.486358E-06  0.750E-04   10.67       2.2  T
   6  -3770.7320575 -0.215151E-06  0.173E-04   10.67       9.7  T
     SCC iter.                  ...        7 min, 22.673 sec
     gradient                   ...        4 min, 15.007 sec
 * total energy  : -3715.9773096 Eh     change    :  -0.3475294E-01 Eh
   gradient norm :     0.2514111 Eh/a0  converged?    E=F G=F D=F
   time step     :     0.3660250 fs     power     :   0.5650310E-06
   step length   :     0.3792121 a0     speed     :   0.2506032E-01

........................................................................
.............................. CYCLE   10 ..............................
........................................................................

 iter      E             dE          RMSdq      gap      omega  full diag
   1  -3771.7872620 -0.377179E+04  0.334E-02   10.68       0.0  T
   2  -3771.7875087 -0.246689E-03  0.186E-02   10.68       1.0  T
   3  -3771.7875247 -0.159541E-04  0.476E-03   10.68       1.0  T
   4  -3771.7875331 -0.843378E-05  0.146E-03   10.68       1.2  T
   5  -3771.7875342 -0.109696E-05  0.821E-04   10.68       2.0  T
   6  -3771.7875344 -0.139854E-06  0.143E-04   10.68      11.7  T
   7  -3771.7875344 -0.229297E-07  0.109E-04   10.68      15.5  T
     SCC iter.                  ...        8 min, 47.936 sec
     gradient                   ...        4 min, 14.668 sec
 * total energy  : -3715.9943119 Eh     change    :  -0.1700229E-01 Eh
   gradient norm :     0.2610537 Eh/a0  converged?    E=F G=F D=F
   time step     :     0.4026275 fs     power     :  -0.4395498E-07
   step length   :     0.3974367 a0     speed     :   0.2387699E-01

........................................................................
.............................. CYCLE   11 ..............................
........................................................................
 * reset velocities

 iter      E             dE          RMSdq      gap      omega  full diag
   1  -3771.7686812 -0.377177E+04  0.105E-03   10.68       0.0  T
   2  -3771.7686820 -0.843477E-06  0.644E-04   10.68       2.6  T
   3  -3771.7686821 -0.114283E-07  0.271E-04   10.68       6.2  T
     SCC iter.                  ...        3 min, 41.659 sec
     gradient                   ...        4 min, 14.970 sec
 * total energy  : -3715.9968699 Eh     change    :  -0.2558027E-02 Eh
   gradient norm :     0.2547914 Eh/a0  converged?    E=F G=F D=F
   time step     :     0.2013138 fs     power     :   0.1665847E-06
   step length   :     0.0099194 a0     speed     :   0.1191868E-02

........................................................................
.............................. CYCLE   12 ..............................
........................................................................

 iter      E             dE          RMSdq      gap      omega  full diag
   1  -3771.7314555 -0.377173E+04  0.211E-03   10.68       0.0  T
   2  -3771.7314587 -0.316540E-05  0.129E-03   10.68       1.3  T
   3  -3771.7314587 -0.286059E-07  0.523E-04   10.68       3.2  T
   4  -3771.7314588 -0.810342E-07  0.136E-04   10.68      12.4  T
     SCC iter.                  ...        4 min, 57.920 sec
     gradient                   ...        4 min, 14.410 sec
 * total energy  : -3716.0017439 Eh     change    :  -0.4873986E-02 Eh
   gradient norm :     0.2425936 Eh/a0  converged?    E=F G=F D=F
   time step     :     0.2013138 fs     power     :   0.3133421E-06
   step length   :     0.0196007 a0     speed     :   0.2355121E-02

........................................................................
.............................. CYCLE   13 ..............................
........................................................................

 iter      E             dE          RMSdq      gap      omega  full diag
   1  -3771.6768058 -0.377168E+04  0.303E-03   10.68       0.0  T
   2  -3771.6768130 -0.712250E-05  0.186E-03   10.68       1.0  T
   3  -3771.6768131 -0.103078E-06  0.788E-04   10.68       2.1  T
   4  -3771.6768133 -0.183386E-06  0.207E-04   10.68       8.1  T
     SCC iter.                  ...        4 min, 58.593 sec
     gradient                   ...        4 min, 13.646 sec
 * total energy  : -3716.0084772 Eh     change    :  -0.6733312E-02 Eh
   gradient norm :     0.2249289 Eh/a0  converged?    E=F G=F D=F
   time step     :     0.2013138 fs     power     :   0.4268129E-06
   step length   :     0.0288169 a0     speed     :   0.3462492E-02

........................................................................
.............................. CYCLE   14 ..............................
........................................................................

 iter      E             dE          RMSdq      gap      omega  full diag
   1  -3771.6061674 -0.377161E+04  0.392E-03   10.68       0.0  T
   2  -3771.6061794 -0.119100E-04  0.241E-03   10.68       1.0  T
   3  -3771.6061795 -0.178284E-06  0.102E-03   10.68       1.7  T
   4  -3771.6061798 -0.305849E-06  0.269E-04   10.68       6.3  T
   5  -3771.6061799 -0.904543E-07  0.700E-05   10.68      24.0  T
     SCC iter.                  ...        6 min, 10.670 sec
     gradient                   ...        4 min, 14.208 sec
 * total energy  : -3716.0164493 Eh     change    :  -0.7972103E-02 Eh
   gradient norm :     0.2025665 Eh/a0  converged?    E=F G=F D=F
   time step     :     0.2013138 fs     power     :   0.4972576E-06
   step length   :     0.0373557 a0     speed     :   0.4488471E-02

........................................................................
.............................. CYCLE   15 ..............................
........................................................................

 iter      E             dE          RMSdq      gap      omega  full diag
   1  -3771.5214815 -0.377152E+04  0.468E-03   10.68       0.0  T
   2  -3771.5214987 -0.171881E-04  0.288E-03   10.68       1.0  T
   3  -3771.5214990 -0.261608E-06  0.122E-03   10.68       1.4  T
   4  -3771.5214994 -0.425915E-06  0.322E-04   10.69       5.2  T
   5  -3771.5214995 -0.129050E-06  0.829E-05   10.69      20.3  T
     SCC iter.                  ...        6 min, 10.777 sec
     gradient                   ...        4 min, 13.273 sec
 * total energy  : -3716.0249450 Eh     change    :  -0.8495679E-02 Eh
   gradient norm :     0.1765581 Eh/a0  converged?    E=F G=F D=F
   time step     :     0.2013138 fs     power     :   0.5196751E-06
   step length   :     0.0450267 a0     speed     :   0.5410187E-02

........................................................................
.............................. CYCLE   16 ..............................
........................................................................

 iter      E             dE          RMSdq      gap      omega  full diag
   1  -3771.4252531 -0.377143E+04  0.532E-03   10.68       0.0  T
   2  -3771.4252754 -0.222894E-04  0.328E-03   10.69       1.0  T
   3  -3771.4252757 -0.343386E-06  0.139E-03   10.69       1.2  T
   4  -3771.4252763 -0.541194E-06  0.366E-04   10.69       4.6  T
   5  -3771.4252764 -0.166319E-06  0.944E-05   10.69      17.8  T
     SCC iter.                  ...        6 min, 14.987 sec
     gradient                   ...        4 min, 17.359 sec
 * total energy  : -3716.0332365 Eh     change    :  -0.8291545E-02 Eh
   gradient norm :     0.1484832 Eh/a0  converged?    E=F G=F D=F
   time step     :     0.2013138 fs     power     :   0.4947446E-06
   step length   :     0.0516628 a0     speed     :   0.6207545E-02

........................................................................
.............................. CYCLE   17 ..............................
........................................................................

 iter      E             dE          RMSdq      gap      omega  full diag
   1  -3771.3091727 -0.377131E+04  0.643E-03   10.69       0.0  T
   2  -3771.3092054 -0.327231E-04  0.397E-03   10.69       1.0  T
   3  -3771.3092060 -0.506813E-06  0.168E-03   10.69       1.0  T
   4  -3771.3092067 -0.774250E-06  0.443E-04   10.69       3.8  T
   5  -3771.3092070 -0.241678E-06  0.112E-04   10.69      15.0  T
     SCC iter.                  ...        6 min, 13.311 sec
     gradient                   ...        4 min, 14.343 sec
 * total energy  : -3716.0413866 Eh     change    :  -0.8150131E-02 Eh
   gradient norm :     0.1179116 Eh/a0  converged?    E=F G=F D=F
   time step     :     0.2214451 fs     power     :   0.4199835E-06
   step length   :     0.0634391 a0     speed     :   0.6929565E-02

........................................................................
.............................. CYCLE   18 ..............................
........................................................................

 iter      E             dE          RMSdq      gap      omega  full diag
   1  -3771.1754515 -0.377118E+04  0.747E-03   10.69       0.0  T
   2  -3771.1754958 -0.442226E-04  0.463E-03   10.69       1.0  T
   3  -3771.1754964 -0.684398E-06  0.195E-03   10.69       1.0  T
   4  -3771.1754975 -0.102214E-05  0.516E-04   10.69       3.3  T
   5  -3771.1754978 -0.324441E-06  0.130E-04   10.69      13.0  T
   6  -3771.1754978 -0.134442E-07  0.886E-05   10.69      19.0  T
     SCC iter.                  ...        7 min, 22.020 sec
     gradient                   ...        4 min, 14.657 sec
 * total energy  : -3716.0484004 Eh     change    :  -0.7013808E-02 Eh
   gradient norm :     0.0910343 Eh/a0  converged?    E=F G=F D=F
   time step     :     0.2435896 fs     power     :   0.2989649E-06
   step length   :     0.0756404 a0     speed     :   0.7511217E-02

........................................................................
.............................. CYCLE   19 ..............................
........................................................................

 iter      E             dE          RMSdq      gap      omega  full diag
   1  -3771.0325859 -0.377103E+04  0.819E-03   10.69       0.0  T
   2  -3771.0326384 -0.524619E-04  0.510E-03   10.69       1.0  T
   3  -3771.0326392 -0.768470E-06  0.212E-03   10.69       1.0  T
   4  -3771.0326404 -0.120154E-05  0.561E-04   10.69       3.0  T
   5  -3771.0326408 -0.380105E-06  0.132E-04   10.69      12.8  T
   6  -3771.0326408 -0.115506E-07  0.856E-05   10.69      19.6  T
     SCC iter.                  ...        7 min, 22.044 sec
     gradient                   ...        4 min, 12.453 sec
 * total energy  : -3716.0533564 Eh     change    :  -0.4956001E-02 Eh
   gradient norm :     0.0812750 Eh/a0  converged?    E=F G=F D=F
   time step     :     0.2679486 fs     power     :   0.1565065E-06
   step length   :     0.0868626 a0     speed     :   0.7841453E-02

........................................................................
.............................. CYCLE   20 ..............................
........................................................................

 iter      E             dE          RMSdq      gap      omega  full diag
   1  -3770.8989949 -0.377090E+04  0.820E-03   10.69       0.0  T
   2  -3770.8990448 -0.498951E-04  0.516E-03   10.69       1.0  T
   3  -3770.8990454 -0.622219E-06  0.206E-03   10.69       1.0  T
   4  -3770.8990466 -0.123163E-05  0.550E-04   10.69       3.1  T
   5  -3770.8990470 -0.363586E-06  0.130E-04   10.69      12.9  T
   6  -3770.8990470 -0.948194E-08  0.789E-05   10.70      21.3  T
     SCC iter.                  ...        7 min, 33.744 sec
     gradient                   ...        4 min, 13.773 sec
 * total energy  : -3716.0560685 Eh     change    :  -0.2712034E-02 Eh
   gradient norm :     0.0949126 Eh/a0  converged?    E=F G=F D=F
   time step     :     0.2947435 fs     power     :   0.4451326E-07
   step length   :     0.0944663 a0     speed     :   0.7752607E-02
 * RMSD in coord.:     0.0375169 a0     energy gain  -0.7101679E+00 Eh

........................................................................
.............................. CYCLE   21 ..............................
........................................................................

 iter      E             dE          RMSdq      gap      omega  full diag
   1  -3770.8180013 -0.377082E+04  0.582E-03   10.70       0.0  T
   2  -3770.8180228 -0.215759E-04  0.370E-03   10.70       1.0  T
   3  -3770.8180230 -0.139978E-06  0.135E-03   10.70       1.2  T
   4  -3770.8180237 -0.682995E-06  0.364E-04   10.70       4.6  T
   5  -3770.8180238 -0.160440E-06  0.937E-05   10.70      17.9  T
     SCC iter.                  ...        6 min,  9.831 sec
     gradient                   ...        4 min, 13.226 sec
 * total energy  : -3716.0573251 Eh     change    :  -0.1256586E-02 Eh
   gradient norm :     0.1114976 Eh/a0  converged?    E=F G=F D=F
   time step     :     0.2500000 fs     power     :   0.2482167E-07
   step length   :     0.0748364 a0     speed     :   0.7240821E-02

........................................................................
.............................. CYCLE   22 ..............................
........................................................................

 iter      E             dE          RMSdq      gap      omega  full diag
   1  -3770.7721089 -0.377077E+04  0.480E-03   10.70       0.0  T
   2  -3770.7721190 -0.100612E-04  0.305E-03   10.71       1.0  T
   3  -3770.7721189  0.928549E-07  0.873E-04   10.71       1.9  T
   4  -3770.7721194 -0.522288E-06  0.249E-04   10.71       6.8  T
     SCC iter.                  ...        5 min,  7.686 sec
     gradient                   ...        4 min, 12.757 sec
 * total energy  : -3716.0588685 Eh     change    :  -0.1543425E-02 Eh
   gradient norm :     0.1234785 Eh/a0  converged?    E=F G=F D=F
   time step     :     0.2500000 fs     power     :   0.5847928E-07
   step length   :     0.0695608 a0     speed     :   0.6730377E-02

........................................................................
.............................. CYCLE   23 ..............................
........................................................................

 iter      E             dE          RMSdq      gap      omega  full diag
   1  -3770.7606076 -0.377076E+04  0.418E-03   10.71       0.0  T
   2  -3770.7606106 -0.306873E-05  0.261E-03   10.71       1.0  T
   3  -3770.7606105  0.102304E-06  0.397E-04   10.71       4.2  T
   4  -3770.7606108 -0.311496E-06  0.148E-04   10.71      11.4  T
     SCC iter.                  ...        4 min, 59.088 sec
     gradient                   ...        4 min, 14.628 sec
 * total energy  : -3716.0613701 Eh     change    :  -0.2501628E-02 Eh
   gradient norm :     0.1283940 Eh/a0  converged?    E=F G=F D=F
   time step     :     0.2500000 fs     power     :   0.1198669E-06
   step length   :     0.0659446 a0     speed     :   0.6380490E-02

........................................................................
.............................. CYCLE   24 ..............................
........................................................................

 iter      E             dE          RMSdq      gap      omega  full diag
   1  -3770.7810646 -0.377078E+04  0.409E-03   10.72       0.0  T
   2  -3770.7810651 -0.499105E-06  0.246E-03   10.72       1.0  T
   3  -3770.7810652 -0.947871E-07  0.182E-04   10.72       9.2  T
   4  -3770.7810653 -0.443970E-07  0.101E-04   10.72      16.6  T
     SCC iter.                  ...        4 min, 57.683 sec
     gradient                   ...        4 min, 12.515 sec
 * total energy  : -3716.0650351 Eh     change    :  -0.3665022E-02 Eh
   gradient norm :     0.1261855 Eh/a0  converged?    E=F G=F D=F
   time step     :     0.2500000 fs     power     :   0.1849255E-06
   step length   :     0.0645658 a0     speed     :   0.6247088E-02

........................................................................
.............................. CYCLE   25 ..............................
........................................................................

 iter      E             dE          RMSdq      gap      omega  full diag
   1  -3770.8301257 -0.377083E+04  0.442E-03   10.73       0.0  T
   2  -3770.8301270 -0.133906E-05  0.257E-03   10.73       1.0  T
   3  -3770.8301271 -0.228724E-07  0.367E-04   10.73       4.6  T
   4  -3770.8301272 -0.156933E-06  0.117E-04   10.73      14.3  T
     SCC iter.                  ...        5 min,  5.030 sec
     gradient                   ...        4 min, 13.352 sec
 * total energy  : -3716.0697008 Eh     change    :  -0.4665634E-02 Eh
   gradient norm :     0.1178387 Eh/a0  converged?    E=F G=F D=F
   time step     :     0.2500000 fs     power     :   0.2359917E-06
   step length   :     0.0652449 a0     speed     :   0.6312798E-02

........................................................................
.............................. CYCLE   26 ..............................
........................................................................

 iter      E             dE          RMSdq      gap      omega  full diag
   1  -3770.9128574 -0.377091E+04  0.550E-03   10.74       0.0  T
   2  -3770.9128630 -0.558801E-05  0.314E-03   10.74       1.0  T
   3  -3770.9128629  0.107346E-06  0.763E-04   10.74       2.2  T
   4  -3770.9128634 -0.465394E-06  0.174E-04   10.74       9.7  T
     SCC iter.                  ...        5 min,  3.636 sec
     gradient                   ...        4 min, 13.928 sec
 * total energy  : -3716.0755400 Eh     change    :  -0.5839205E-02 Eh
   gradient norm :     0.1034567 Eh/a0  converged?    E=F G=F D=F
   time step     :     0.2750000 fs     power     :   0.2626558E-06
   step length   :     0.0746579 a0     speed     :   0.6566867E-02

........................................................................
.............................. CYCLE   27 ..............................
........................................................................

 iter      E             dE          RMSdq      gap      omega  full diag
   1  -3771.0307832 -0.377103E+04  0.679E-03   10.75       0.0  T
   2  -3771.0307965 -0.132096E-04  0.385E-03   10.75       1.0  T
   3  -3771.0307963  0.149910E-06  0.113E-03   10.75       1.5  T
   4  -3771.0307971 -0.778075E-06  0.250E-04   10.75       6.7  T
   5  -3771.0307972 -0.968853E-07  0.123E-04   10.75      13.7  T
     SCC iter.                  ...        6 min, 10.213 sec
     gradient                   ...        4 min, 13.615 sec
 * total energy  : -3716.0820237 Eh     change    :  -0.6483753E-02 Eh
   gradient norm :     0.0854001 Eh/a0  converged?    E=F G=F D=F
   time step     :     0.3025000 fs     power     :   0.2547108E-06
   step length   :     0.0868209 a0     speed     :   0.6942472E-02

........................................................................
.............................. CYCLE   28 ..............................
........................................................................

 iter      E             dE          RMSdq      gap      omega  full diag
   1  -3771.1815019 -0.377118E+04  0.806E-03   10.76       0.0  T
   2  -3771.1815244 -0.224662E-04  0.455E-03   10.76       1.0  T
   3  -3771.1815242  0.136628E-06  0.143E-03   10.76       1.2  T
   4  -3771.1815252 -0.100838E-05  0.317E-04   10.76       5.3  T
   5  -3771.1815254 -0.159339E-06  0.135E-04   10.76      12.4  T
   6  -3771.1815254 -0.193654E-07  0.817E-05   10.76      20.6  T
     SCC iter.                  ...        7 min, 17.443 sec
     gradient                   ...        4 min, 13.708 sec
 * total energy  : -3716.0883542 Eh     change    :  -0.6330514E-02 Eh
   gradient norm :     0.0702123 Eh/a0  converged?    E=F G=F D=F
   time step     :     0.3327500 fs     power     :   0.2126999E-06
   step length   :     0.1010535 a0     speed     :   0.7345961E-02

........................................................................
.............................. CYCLE   29 ..............................
........................................................................

 iter      E             dE          RMSdq      gap      omega  full diag
   1  -3771.3538226 -0.377135E+04  0.893E-03   10.77       0.0  T
   2  -3771.3538503 -0.277044E-04  0.501E-03   10.77       1.0  T
   3  -3771.3538502  0.107514E-06  0.153E-03   10.77       1.1  T
   4  -3771.3538512 -0.103978E-05  0.347E-04   10.77       4.8  T
   5  -3771.3538514 -0.191221E-06  0.135E-04   10.77      12.4  T
   6  -3771.3538514 -0.158416E-07  0.775E-05   10.77      21.7  T
     SCC iter.                  ...        7 min, 30.832 sec
     gradient                   ...        4 min, 13.241 sec
 * total energy  : -3716.0938517 Eh     change    :  -0.5497501E-02 Eh
   gradient norm :     0.0674988 Eh/a0  converged?    E=F G=F D=F
   time step     :     0.3660250 fs     power     :   0.1562915E-06
   step length   :     0.1158349 a0     speed     :   0.7654977E-02

........................................................................
.............................. CYCLE   30 ..............................
........................................................................

 iter      E             dE          RMSdq      gap      omega  full diag
   1  -3771.5239914 -0.377152E+04  0.899E-03   10.78       0.0  T
   2  -3771.5240139 -0.224778E-04  0.503E-03   10.78       1.0  T
   3  -3771.5240139 -0.272389E-07  0.133E-03   10.78       1.3  T
   4  -3771.5240146 -0.703771E-06  0.304E-04   10.78       5.5  T
   5  -3771.5240148 -0.139956E-06  0.129E-04   10.78      13.0  T
     SCC iter.                  ...        6 min, 10.406 sec
     gradient                   ...        4 min, 13.613 sec
 * total energy  : -3716.0985827 Eh     change    :  -0.4730995E-02 Eh
   gradient norm :     0.0757400 Eh/a0  converged?    E=F G=F D=F
   time step     :     0.4026275 fs     power     :   0.1202266E-06
   step length   :     0.1289575 a0     speed     :   0.7747443E-02

........................................................................
.............................. CYCLE   31 ..............................
........................................................................

 iter      E             dE          RMSdq      gap      omega  full diag
   1  -3771.6646570 -0.377166E+04  0.839E-03   10.79       0.0  T
   2  -3771.6646673 -0.102927E-04  0.472E-03   10.79       1.0  T
   3  -3771.6646676 -0.294021E-06  0.858E-04   10.79       2.0  T
   4  -3771.6646678 -0.210237E-06  0.198E-04   10.79       8.5  T
     SCC iter.                  ...        5 min,  3.347 sec
     gradient                   ...        4 min, 13.295 sec
 * total energy  : -3716.1034600 Eh     change    :  -0.4877276E-02 Eh
   gradient norm :     0.0819442 Eh/a0  converged?    E=F G=F D=F
   time step     :     0.4428903 fs     power     :   0.1210773E-06
   step length   :     0.1409185 a0     speed     :   0.7696386E-02

........................................................................
.............................. CYCLE   32 ..............................
........................................................................

 iter      E             dE          RMSdq      gap      omega  full diag
   1  -3771.7530382 -0.377175E+04  0.776E-03   10.80       0.0  T
   2  -3771.7530410 -0.272989E-05  0.454E-03   10.80       1.0  T
   3  -3771.7530408  0.129994E-06  0.620E-04   10.79       2.7  T
   4  -3771.7530415 -0.684046E-06  0.186E-04   10.79       9.0  T
     SCC iter.                  ...        4 min, 53.611 sec
     gradient                   ...        4 min, 13.468 sec
 * total energy  : -3716.1093895 Eh     change    :  -0.5929444E-02 Eh
   gradient norm :     0.0778310 Eh/a0  converged?    E=F G=F D=F
   time step     :     0.4871793 fs     power     :   0.1399962E-06
   step length   :     0.1549869 a0     speed     :   0.7695222E-02

........................................................................
.............................. CYCLE   33 ..............................
........................................................................

 iter      E             dE          RMSdq      gap      omega  full diag
   1  -3771.7745227 -0.377177E+04  0.775E-03   10.80       0.0  T
   2  -3771.7745332 -0.104502E-04  0.485E-03   10.80       1.0  T
   3  -3771.7745318  0.136357E-05  0.113E-03   10.80       1.5  T
   4  -3771.7745343 -0.254801E-05  0.223E-04   10.80       7.5  T
   5  -3771.7745344 -0.344121E-07  0.126E-04   10.80      13.4  T
   6  -3771.7745344 -0.811951E-08  0.536E-05   10.80      31.4  T
     SCC iter.                  ...        7 min, 19.454 sec
     gradient                   ...        4 min, 17.614 sec
 * total energy  : -3716.1162407 Eh     change    :  -0.6851258E-02 Eh
   gradient norm :     0.0649861 Eh/a0  converged?    E=F G=F D=F
   time step     :     0.5358972 fs     power     :   0.1413094E-06
   step length   :     0.1735274 a0     speed     :   0.7832522E-02

........................................................................
.............................. CYCLE   34 ..............................
........................................................................

 iter      E             dE          RMSdq      gap      omega  full diag
   1  -3771.7319244 -0.377173E+04  0.835E-03   10.81       0.0  T
   2  -3771.7319545 -0.300593E-04  0.543E-03   10.81       1.0  T
   3  -3771.7319539  0.582430E-06  0.167E-03   10.81       1.0  T
   4  -3771.7319562 -0.229254E-05  0.393E-04   10.81       4.3  T
   5  -3771.7319564 -0.213135E-06  0.156E-04   10.81      10.8  T
   6  -3771.7319564 -0.170230E-07  0.819E-05   10.81      20.5  T
     SCC iter.                  ...        7 min, 24.792 sec
     gradient                   ...        4 min, 14.093 sec
 * total energy  : -3716.1228086 Eh     change    :  -0.6567835E-02 Eh
   gradient norm :     0.0576946 Eh/a0  converged?    E=F G=F D=F
   time step     :     0.5894869 fs     power     :   0.1106389E-06
   step length   :     0.1957745 a0     speed     :   0.8033357E-02

........................................................................
.............................. CYCLE   35 ..............................
........................................................................

 iter      E             dE          RMSdq      gap      omega  full diag
   1  -3771.6635898 -0.377166E+04  0.888E-03   10.82       0.0  T
   2  -3771.6636245 -0.347419E-04  0.569E-03   10.82       1.0  T
   3  -3771.6636244  0.766649E-07  0.160E-03   10.82       1.0  T
   4  -3771.6636259 -0.151512E-05  0.486E-04   10.82       3.5  T
   5  -3771.6636262 -0.291321E-06  0.172E-04   10.82       9.8  T
   6  -3771.6636263 -0.164096E-07  0.763E-05   10.82      22.0  T
     SCC iter.                  ...        7 min, 26.154 sec
     gradient                   ...        4 min, 15.113 sec
 * total energy  : -3716.1285282 Eh     change    :  -0.5719613E-02 Eh
   gradient norm :     0.0636764 Eh/a0  converged?    E=F G=F D=F
   time step     :     0.6484356 fs     power     :   0.8342577E-07
   step length   :     0.2175159 a0     speed     :   0.8114081E-02

........................................................................
.............................. CYCLE   36 ..............................
........................................................................

 iter      E             dE          RMSdq      gap      omega  full diag
   1  -3771.6312353 -0.377163E+04  0.989E-03   10.84       0.0  T
   2  -3771.6312506 -0.153359E-04  0.594E-03   10.84       1.0  T
   3  -3771.6312514 -0.794387E-06  0.894E-04   10.84       1.9  T
   4  -3771.6312518 -0.403441E-06  0.313E-04   10.84       5.4  T
     SCC iter.                  ...        4 min, 53.540 sec
     gradient                   ...        4 min, 14.737 sec
 * total energy  : -3716.1345412 Eh     change    :  -0.6013037E-02 Eh
   gradient norm :     0.0637138 Eh/a0  converged?    E=F G=F D=F
   time step     :     0.7132792 fs     power     :   0.8618845E-07
   step length   :     0.2381829 a0     speed     :   0.8077299E-02

........................................................................
.............................. CYCLE   37 ..............................
........................................................................

 iter      E             dE          RMSdq      gap      omega  full diag
   1  -3771.6807999 -0.377168E+04  0.120E-02   10.87       0.0  T
   2  -3771.6808080 -0.808976E-05  0.691E-03   10.87       1.0  T
   3  -3771.6808078  0.193795E-06  0.123E-03   10.87       1.4  T
   4  -3771.6808098 -0.207043E-05  0.348E-04   10.87       4.8  T
   5  -3771.6808099 -0.160317E-07  0.124E-04   10.87      13.6  T
   6  -3771.6808099 -0.650152E-08  0.346E-05   10.87      48.6  T
     SCC iter.                  ...        7 min, 23.008 sec
     gradient                   ...        4 min, 12.380 sec
 * total energy  : -3716.1411569 Eh     change    :  -0.6615720E-02 Eh
   gradient norm :     0.0521355 Eh/a0  converged?    E=F G=F D=F
   time step     :     0.7846071 fs     power     :   0.8034791E-07
   step length   :     0.2632558 a0     speed     :   0.8115978E-02

........................................................................
.............................. CYCLE   38 ..............................
........................................................................

 iter      E             dE          RMSdq      gap      omega  full diag
   1  -3771.8109850 -0.377181E+04  0.132E-02   10.91       0.0  T
   2  -3771.8110087 -0.237874E-04  0.761E-03   10.91       1.0  T
   3  -3771.8110077  0.106460E-05  0.171E-03   10.91       1.0  T
   4  -3771.8110110 -0.331074E-05  0.363E-04   10.91       4.6  T
   5  -3771.8110111 -0.109245E-06  0.182E-04   10.91       9.3  T
   6  -3771.8110111 -0.104337E-07  0.617E-05   10.91      27.2  T
     SCC iter.                  ...        7 min, 30.474 sec
     gradient                   ...        4 min, 13.880 sec
 * total energy  : -3716.1466783 Eh     change    :  -0.5521340E-02 Eh
   gradient norm :     0.0534263 Eh/a0  converged?    E=F G=F D=F
   time step     :     0.8630678 fs     power     :   0.4674985E-07
   step length   :     0.2912838 a0     speed     :   0.8163691E-02

........................................................................
.............................. CYCLE   39 ..............................
........................................................................

 iter      E             dE          RMSdq      gap      omega  full diag
   1  -3771.9454827 -0.377195E+04  0.118E-02   10.93       0.0  T
   2  -3771.9454975 -0.147327E-04  0.685E-03   10.93       1.0  T
   3  -3771.9454978 -0.317918E-06  0.105E-03   10.93       1.6  T
   4  -3771.9454986 -0.843316E-06  0.274E-04   10.93       6.1  T
   5  -3771.9454987 -0.477498E-07  0.143E-04   10.93      11.8  T
     SCC iter.                  ...        6 min, 22.918 sec
     gradient                   ...        4 min, 14.597 sec
 * total energy  : -3716.1516892 Eh     change    :  -0.5010985E-02 Eh
   gradient norm :     0.0582349 Eh/a0  converged?    E=F G=F D=F
   time step     :     0.9493746 fs     power     :   0.4268528E-07
   step length   :     0.3149172 a0     speed     :   0.8023684E-02

........................................................................
.............................. CYCLE   40 ..............................
........................................................................

 iter      E             dE          RMSdq      gap      omega  full diag
   1  -3772.0146999 -0.377201E+04  0.115E-02   10.95       0.0  T
   2  -3772.0147152 -0.153219E-04  0.685E-03   10.95       1.0  T
   3  -3772.0147133  0.191492E-05  0.156E-03   10.95       1.1  T
   4  -3772.0147178 -0.446463E-05  0.330E-04   10.95       5.1  T
   5  -3772.0147178 -0.359100E-07  0.178E-04   10.95       9.4  T
   6  -3772.0147178 -0.168957E-07  0.687E-05   10.96      24.5  T
     SCC iter.                  ...        7 min, 28.376 sec
     gradient                   ...        4 min, 12.922 sec
 * total energy  : -3716.1576143 Eh     change    :  -0.5925081E-02 Eh
   gradient norm :     0.0497608 Eh/a0  converged?    E=F G=F D=F
   time step     :     1.0443120 fs     power     :   0.4530159E-07
   step length   :     0.3428322 a0     speed     :   0.7940840E-02

........................................................................
.............................. CYCLE   41 ..............................
........................................................................

 iter      E             dE          RMSdq      gap      omega  full diag
   1  -3772.0359526 -0.377204E+04  0.125E-02   10.97       0.0  T
   2  -3772.0359833 -0.306664E-04  0.773E-03   10.97       1.0  T
   3  -3772.0359815  0.180958E-05  0.174E-03   10.97       1.0  T
   4  -3772.0359862 -0.472958E-05  0.424E-04   10.97       4.0  T
   5  -3772.0359864 -0.167935E-06  0.225E-04   10.97       7.5  T
   6  -3772.0359864 -0.327173E-07  0.102E-04   10.97      16.5  T
     SCC iter.                  ...        7 min, 26.622 sec
     gradient                   ...        4 min, 14.675 sec
 * total energy  : -3716.1627681 Eh     change    :  -0.5153786E-02 Eh
   gradient norm :     0.0498316 Eh/a0  converged?    E=F G=F D=F
   time step     :     1.1487432 fs     power     :   0.2356938E-07
   step length   :     0.3757442 a0     speed     :   0.7911967E-02

........................................................................
.............................. CYCLE   42 ..............................
........................................................................

 iter      E             dE          RMSdq      gap      omega  full diag
   1  -3772.1035907 -0.377210E+04  0.139E-02   11.00       0.0  T
   2  -3772.1035989 -0.824707E-05  0.811E-03   11.00       1.0  T
   3  -3772.1035992 -0.249502E-06  0.101E-03   11.00       1.7  T
   4  -3772.1036004 -0.120688E-05  0.318E-04   11.00       5.3  T
   5  -3772.1036004 -0.264472E-07  0.153E-04   11.00      11.0  T
   6  -3772.1036004 -0.952923E-08  0.456E-05   11.00      36.8  T
     SCC iter.                  ...        7 min, 24.585 sec
     gradient                   ...        4 min, 13.189 sec
 * total energy  : -3716.1669592 Eh     change    :  -0.4191100E-02 Eh
   gradient norm :     0.0473857 Eh/a0  converged?    E=F G=F D=F
   time step     :     1.2500000 fs     power     :   0.1033922E-07
   step length   :     0.4004097 a0     speed     :   0.7748358E-02
 * RMSD in coord.:     0.0596402 a0     energy gain  -0.1108907E+00 Eh

........................................................................
.............................. CYCLE   43 ..............................
........................................................................

 iter      E             dE          RMSdq      gap      omega  full diag
   1  -3772.1174763 -0.377212E+04  0.235E-03   11.01       0.0  T
   2  -3772.1174765 -0.269680E-06  0.135E-03   11.01       1.2  T
   3  -3772.1174765  0.151454E-07  0.207E-04   11.01       8.1  T
   4  -3772.1174766 -0.593550E-07  0.506E-05   11.01      33.3  T
     SCC iter.                  ...        4 min, 56.332 sec
     gradient                   ...        4 min, 12.595 sec
 * total energy  : -3716.1675665 Eh     change    :  -0.6072692E-03 Eh
   gradient norm :     0.0477639 Eh/a0  converged?    E=F G=F D=F
   time step     :     0.2500000 fs     power     :   0.2803858E-07
   step length   :     0.0734217 a0     speed     :   0.7103942E-02

........................................................................
.............................. CYCLE   44 ..............................
........................................................................

 iter      E             dE          RMSdq      gap      omega  full diag
   1  -3772.1306571 -0.377213E+04  0.225E-03   11.02       0.0  T
   2  -3772.1306576 -0.548288E-06  0.132E-03   11.02       1.3  T
   3  -3772.1306576  0.219716E-07  0.242E-04   11.02       6.9  T
   4  -3772.1306577 -0.686309E-07  0.495E-05   11.02      34.0  T
     SCC iter.                  ...        4 min, 54.100 sec
     gradient                   ...        4 min, 14.290 sec
 * total energy  : -3716.1684465 Eh     change    :  -0.8799684E-03 Eh
   gradient norm :     0.0443313 Eh/a0  converged?    E=F G=F D=F
   time step     :     0.2500000 fs     power     :   0.4246818E-07
   step length   :     0.0683464 a0     speed     :   0.6612878E-02

........................................................................
.............................. CYCLE   45 ..............................
........................................................................

 iter      E             dE          RMSdq      gap      omega  full diag
   1  -3772.1415173 -0.377214E+04  0.241E-03   11.02       0.0  T
   2  -3772.1415182 -0.889465E-06  0.145E-03   11.02       1.2  T
   3  -3772.1415182  0.984846E-08  0.275E-04   11.02       6.1  T
   4  -3772.1415182 -0.726013E-07  0.615E-05   11.02      27.3  T
     SCC iter.                  ...        4 min, 57.051 sec
     gradient                   ...        4 min, 14.378 sec
 * total energy  : -3716.1694754 Eh     change    :  -0.1028987E-02 Eh
   gradient norm :     0.0381686 Eh/a0  converged?    E=F G=F D=F
   time step     :     0.2500000 fs     power     :   0.4881473E-07
   step length   :     0.0646459 a0     speed     :   0.6254839E-02

........................................................................
.............................. CYCLE   46 ..............................
........................................................................

 iter      E             dE          RMSdq      gap      omega  full diag
   1  -3772.1483614 -0.377215E+04  0.267E-03   11.03       0.0  T
   2  -3772.1483625 -0.110220E-05  0.162E-03   11.03       1.0  T
   3  -3772.1483626 -0.682803E-08  0.289E-04   11.03       5.8  T
   4  -3772.1483626 -0.776527E-07  0.728E-05   11.03      23.1  T
     SCC iter.                  ...        4 min, 58.632 sec
     gradient                   ...        4 min, 13.420 sec
 * total energy  : -3716.1704894 Eh     change    :  -0.1013962E-02 Eh
   gradient norm :     0.0309885 Eh/a0  converged?    E=F G=F D=F
   time step     :     0.2500000 fs     power     :   0.4606255E-07
   step length   :     0.0619529 a0     speed     :   0.5994275E-02

........................................................................
.............................. CYCLE   47 ..............................
........................................................................

 iter      E             dE          RMSdq      gap      omega  full diag
   1  -3772.1494795 -0.377215E+04  0.286E-03   11.04       0.0  T
   2  -3772.1494806 -0.108506E-05  0.174E-03   11.04       1.0  T
   3  -3772.1494806 -0.200034E-07  0.284E-04   11.04       5.9  T
   4  -3772.1494807 -0.854457E-07  0.813E-05   11.04      20.7  T
     SCC iter.                  ...        4 min, 55.571 sec
     gradient                   ...        4 min, 15.200 sec
 * total energy  : -3716.1713486 Eh     change    :  -0.8591780E-03 Eh
   gradient norm :     0.0253667 Eh/a0  converged?    E=F G=F D=F
   time step     :     0.2500000 fs     power     :   0.3656237E-07
   step length   :     0.0598074 a0     speed     :   0.5786685E-02

........................................................................
.............................. CYCLE   48 ..............................
........................................................................

 iter      E             dE          RMSdq      gap      omega  full diag
   1  -3772.1429312 -0.377214E+04  0.320E-03   11.04       0.0  T
   2  -3772.1429323 -0.103914E-05  0.192E-03   11.04       1.0  T
   3  -3772.1429323 -0.208711E-07  0.301E-04   11.04       5.6  T
   4  -3772.1429324 -0.123348E-06  0.956E-05   11.04      17.6  T
     SCC iter.                  ...        5 min,  0.108 sec
     gradient                   ...        4 min, 14.027 sec
 * total energy  : -3716.1720428 Eh     change    :  -0.6942404E-03 Eh
   gradient norm :     0.0240307 Eh/a0  converged?    E=F G=F D=F
   time step     :     0.2750000 fs     power     :   0.2382714E-07
   step length   :     0.0634536 a0     speed     :   0.5581341E-02

........................................................................
.............................. CYCLE   49 ..............................
........................................................................

 iter      E             dE          RMSdq      gap      omega  full diag
   1  -3772.1279519 -0.377213E+04  0.327E-03   11.04       0.0  T
   2  -3772.1279527 -0.856771E-06  0.193E-03   11.04       1.0  T
   3  -3772.1279527  0.194041E-08  0.321E-04   11.04       5.2  T
   4  -3772.1279529 -0.168912E-06  0.101E-04   11.04      16.6  T
     SCC iter.                  ...        4 min, 58.724 sec
     gradient                   ...        4 min, 14.821 sec
 * total energy  : -3716.1725632 Eh     change    :  -0.5204017E-03 Eh
   gradient norm :     0.0272669 Eh/a0  converged?    E=F G=F D=F
   time step     :     0.3025000 fs     power     :   0.1471834E-07
   step length   :     0.0663395 a0     speed     :   0.5304717E-02

........................................................................
.............................. CYCLE   50 ..............................
........................................................................

 iter      E             dE          RMSdq      gap      omega  full diag
   1  -3772.1067060 -0.377211E+04  0.314E-03   11.05       0.0  T
   2  -3772.1067068 -0.789805E-06  0.182E-03   11.05       1.0  T
   3  -3772.1067067  0.166492E-07  0.330E-04   11.05       5.1  T
   4  -3772.1067069 -0.173231E-06  0.945E-05   11.05      17.8  T
     SCC iter.                  ...        4 min, 59.488 sec
     gradient                   ...        4 min, 14.316 sec
 * total energy  : -3716.1730276 Eh     change    :  -0.4643747E-03 Eh
   gradient norm :     0.0311738 Eh/a0  converged?    E=F G=F D=F
   time step     :     0.3327500 fs     power     :   0.1289990E-07
   step length   :     0.0683803 a0     speed     :   0.4970823E-02

........................................................................
.............................. CYCLE   51 ..............................
........................................................................

 iter      E             dE          RMSdq      gap      omega  full diag
   1  -3772.0825810 -0.377208E+04  0.301E-03   11.05       0.0  T
   2  -3772.0825819 -0.911597E-06  0.172E-03   11.05       1.0  T
   3  -3772.0825819  0.105529E-07  0.324E-04   11.05       5.2  T
   4  -3772.0825820 -0.132142E-06  0.808E-05   11.05      20.8  T
     SCC iter.                  ...        4 min, 58.527 sec
     gradient                   ...        4 min, 15.437 sec
 * total energy  : -3716.1735930 Eh     change    :  -0.5654056E-03 Eh
   gradient norm :     0.0328393 Eh/a0  converged?    E=F G=F D=F
   time step     :     0.3660250 fs     power     :   0.1666518E-07
   step length   :     0.0704985 a0     speed     :   0.4658912E-02

........................................................................
.............................. CYCLE   52 ..............................
........................................................................

 iter      E             dE          RMSdq      gap      omega  full diag
   1  -3772.0594860 -0.377206E+04  0.308E-03   11.05       0.0  T
   2  -3772.0594871 -0.111569E-05  0.176E-03   11.05       1.0  T
   3  -3772.0594871  0.176169E-08  0.315E-04   11.05       5.3  T
   4  -3772.0594872 -0.891919E-07  0.676E-05   11.05      24.9  T
     SCC iter.                  ...        4 min, 55.967 sec
     gradient                   ...        4 min, 14.069 sec
 * total energy  : -3716.1743547 Eh     change    :  -0.7616779E-03 Eh
   gradient norm :     0.0313447 Eh/a0  converged?    E=F G=F D=F
   time step     :     0.4026275 fs     power     :   0.2166902E-07
   step length   :     0.0735865 a0     speed     :   0.4420890E-02

........................................................................
.............................. CYCLE   53 ..............................
........................................................................

 iter      E             dE          RMSdq      gap      omega  full diag
   1  -3772.0419044 -0.377204E+04  0.339E-03   11.05       0.0  T
   2  -3772.0419056 -0.119755E-05  0.197E-03   11.05       1.0  T
   3  -3772.0419057 -0.573982E-08  0.300E-04   11.05       5.6  T
   4  -3772.0419057 -0.731370E-07  0.613E-05   11.05      27.4  T
     SCC iter.                  ...        4 min, 56.403 sec
     gradient                   ...        4 min, 14.421 sec
 * total energy  : -3716.1752876 Eh     change    :  -0.9329606E-03 Eh
   gradient norm :     0.0273985 Eh/a0  converged?    E=F G=F D=F
   time step     :     0.4428903 fs     power     :   0.2364925E-07
   step length   :     0.0781574 a0     speed     :   0.4268635E-02

........................................................................
.............................. CYCLE   54 ..............................
........................................................................

 iter      E             dE          RMSdq      gap      omega  full diag
   1  -3772.0346956 -0.377203E+04  0.379E-03   11.05       0.0  T
   2  -3772.0346966 -0.100960E-05  0.224E-03   11.05       1.0  T
   3  -3772.0346966 -0.191994E-08  0.288E-04   11.05       5.8  T
   4  -3772.0346967 -0.104761E-06  0.765E-05   11.05      22.0  T
     SCC iter.                  ...        5 min,  2.245 sec
     gradient                   ...        4 min, 13.403 sec
 * total energy  : -3716.1762564 Eh     change    :  -0.9687522E-03 Eh
   gradient norm :     0.0234190 Eh/a0  converged?    E=F G=F D=F
   time step     :     0.4871793 fs     power     :   0.2075530E-07
   step length   :     0.0841503 a0     speed     :   0.4178132E-02

........................................................................
.............................. CYCLE   55 ..............................
........................................................................

 iter      E             dE          RMSdq      gap      omega  full diag
   1  -3772.0414642 -0.377204E+04  0.400E-03   11.06       0.0  T
   2  -3772.0414650 -0.800279E-06  0.237E-03   11.06       1.0  T
   3  -3772.0414650  0.249252E-07  0.317E-04   11.06       5.3  T
   4  -3772.0414652 -0.183402E-06  0.101E-04   11.06      16.7  T
     SCC iter.                  ...        4 min, 56.014 sec
     gradient                   ...        4 min, 13.231 sec
 * total energy  : -3716.1771162 Eh     change    :  -0.8598096E-03 Eh
   gradient norm :     0.0223565 Eh/a0  converged?    E=F G=F D=F
   time step     :     0.5358972 fs     power     :   0.1509149E-07
   step length   :     0.0907629 a0     speed     :   0.4096774E-02

........................................................................
.............................. CYCLE   56 ..............................
........................................................................

 iter      E             dE          RMSdq      gap      omega  full diag
   1  -3772.0607477 -0.377206E+04  0.384E-03   11.06       0.0  T
   2  -3772.0607488 -0.114375E-05  0.226E-03   11.06       1.0  T
   3  -3772.0607488  0.139958E-07  0.364E-04   11.06       4.6  T
   4  -3772.0607490 -0.191421E-06  0.113E-04   11.06      14.9  T
     SCC iter.                  ...        4 min, 58.710 sec
     gradient                   ...        4 min, 16.105 sec
 * total energy  : -3716.1778528 Eh     change    :  -0.7366075E-03 Eh
   gradient norm :     0.0241056 Eh/a0  converged?    E=F G=F D=F
   time step     :     0.5894869 fs     power     :   0.1115417E-07
   step length   :     0.0968680 a0     speed     :   0.3974855E-02

........................................................................
.............................. CYCLE   57 ..............................
........................................................................

 iter      E             dE          RMSdq      gap      omega  full diag
   1  -3772.0851329 -0.377209E+04  0.352E-03   11.06       0.0  T
   2  -3772.0851346 -0.170620E-05  0.206E-03   11.06       1.0  T
   3  -3772.0851346 -0.293235E-07  0.393E-04   11.06       4.3  T
   4  -3772.0851348 -0.119674E-06  0.107E-04   11.06      15.7  T
     SCC iter.                  ...        5 min,  3.064 sec
     gradient                   ...        4 min, 15.190 sec
 * total energy  : -3716.1786119 Eh     change    :  -0.7590664E-03 Eh
   gradient norm :     0.0260724 Eh/a0  converged?    E=F G=F D=F
   time step     :     0.6484356 fs     power     :   0.1143779E-07
   step length   :     0.1026393 a0     speed     :   0.3828793E-02

........................................................................
.............................. CYCLE   58 ..............................
........................................................................

 iter      E             dE          RMSdq      gap      omega  full diag
   1  -3772.1046510 -0.377210E+04  0.340E-03   11.06       0.0  T
   2  -3772.1046525 -0.146768E-05  0.199E-03   11.06       1.0  T
   3  -3772.1046526 -0.463233E-07  0.348E-04   11.06       4.8  T
   4  -3772.1046526 -0.773298E-07  0.923E-05   11.06      18.2  T
     SCC iter.                  ...        4 min, 58.944 sec
     gradient                   ...        4 min, 15.467 sec
 * total energy  : -3716.1795844 Eh     change    :  -0.9725360E-03 Eh
   gradient norm :     0.0259078 Eh/a0  converged?    E=F G=F D=F
   time step     :     0.7132792 fs     power     :   0.1479445E-07
   step length   :     0.1096821 a0     speed     :   0.3719559E-02

........................................................................
.............................. CYCLE   59 ..............................
........................................................................

 iter      E             dE          RMSdq      gap      omega  full diag
   1  -3772.1099894 -0.377211E+04  0.373E-03   11.06       0.0  T
   2  -3772.1099902 -0.776413E-06  0.219E-03   11.06       1.0  T
   3  -3772.1099903 -0.642203E-07  0.289E-04   11.06       5.8  T
   4  -3772.1099903 -0.829814E-07  0.987E-05   11.06      17.0  T
     SCC iter.                  ...        4 min, 59.964 sec
     gradient                   ...        4 min, 13.778 sec
 * total energy  : -3716.1808183 Eh     change    :  -0.1233839E-02 Eh
   gradient norm :     0.0225602 Eh/a0  converged?    E=F G=F D=F
   time step     :     0.7846071 fs     power     :   0.1697608E-07
   step length   :     0.1196391 a0     speed     :   0.3688384E-02

........................................................................
.............................. CYCLE   60 ..............................
........................................................................

 iter      E             dE          RMSdq      gap      omega  full diag
   1  -3772.0957577 -0.377210E+04  0.438E-03   11.06       0.0  T
   2  -3772.0957591 -0.148974E-05  0.255E-03   11.06       1.0  T
   3  -3772.0957592 -0.929977E-07  0.407E-04   11.06       4.1  T
   4  -3772.0957594 -0.128544E-06  0.119E-04   11.06      14.1  T
     SCC iter.                  ...        5 min,  1.282 sec
     gradient                   ...        4 min, 12.800 sec
 * total energy  : -3716.1820961 Eh     change    :  -0.1277845E-02 Eh
   gradient norm :     0.0202492 Eh/a0  converged?    E=F G=F D=F
   time step     :     0.8630678 fs     power     :   0.1430527E-07
   step length   :     0.1326016 a0     speed     :   0.3716371E-02

........................................................................
.............................. CYCLE   61 ..............................
........................................................................

 iter      E             dE          RMSdq      gap      omega  full diag
   1  -3772.0668211 -0.377207E+04  0.455E-03   11.06       0.0  T
   2  -3772.0668237 -0.255911E-05  0.262E-03   11.06       1.0  T
   3  -3772.0668238 -0.979389E-07  0.516E-04   11.06       3.3  T
   4  -3772.0668239 -0.147179E-06  0.124E-04   11.06      13.5  T
     SCC iter.                  ...        5 min,  3.384 sec
     gradient                   ...        4 min, 12.983 sec
 * total energy  : -3716.1833013 Eh     change    :  -0.1205160E-02 Eh
   gradient norm :     0.0229367 Eh/a0  converged?    E=F G=F D=F
   time step     :     0.9493746 fs     power     :   0.1216852E-07
   step length   :     0.1461457 a0     speed     :   0.3723605E-02

........................................................................
.............................. CYCLE   62 ..............................
........................................................................

 iter      E             dE          RMSdq      gap      omega  full diag
   1  -3772.0410163 -0.377204E+04  0.427E-03   11.06       0.0  T
   2  -3772.0410181 -0.178644E-05  0.245E-03   11.06       1.0  T
   3  -3772.0410182 -0.969094E-07  0.449E-04   11.06       3.7  T
   4  -3772.0410184 -0.129325E-06  0.121E-04   11.06      13.9  T
     SCC iter.                  ...        4 min, 58.566 sec
     gradient                   ...        4 min, 13.208 sec
 * total energy  : -3716.1847480 Eh     change    :  -0.1446703E-02 Eh
   gradient norm :     0.0215772 Eh/a0  converged?    E=F G=F D=F
   time step     :     1.0443120 fs     power     :   0.1473897E-07
   step length   :     0.1606300 a0     speed     :   0.3720587E-02

........................................................................
.............................. CYCLE   63 ..............................
[...]
  3286   6 C     3287   6 C                                       1.5359710
  3287   6 C     3288   6 C                                       1.5265854
  3287   6 C     3289   6 C                                       1.5346162
  3289   6 C     3290   6 C                                       1.5368956
  3290   6 C     3291   6 C                                       1.5293662
  3290   6 C     3292   6 C                                       1.5335072
  3292   6 C     3293   6 C                                       1.5362243
  3293   6 C     3294   6 C                                       1.5294352
  3293   6 C     3295   6 C                                       1.5329545
  3295   6 C     3296   6 C                                       1.5356678
  3296   6 C     3297   6 C                                       1.5286409
  3296   6 C     3298   6 C                                       1.5356687
  3298   6 C     3299   6 C                                       1.5371582
  3299   6 C     3300   6 C                                       1.5267125
  3299   6 C     3301   6 C                                       1.5325334
  3301   6 C     3302   6 C                                       1.5362741
  3302   6 C     3303   6 C                                       1.5285485
  3302   6 C     3304   6 C                                       1.5336615
  3304   6 C     3305   6 C                                       1.5393181
  3305   6 C     3306   6 C                                       1.5274807
  3305   6 C     3307   6 C                                       1.5364708
  3307   6 C     3308   6 C                                       1.5343342
  3308   6 C     3309   6 C                                       1.5289749
  3310   6 C     3311   6 C                                       1.5370130
  3311   6 C     3312   6 C                                       1.5285691
  3311   6 C     3313   6 C                                       1.5360816
  3313   6 C     3314   6 C                                       1.5318720
  3314   6 C     3315   6 C                                       1.5287229
  3314   6 C     3316   6 C                                       1.5364276
  3316   6 C     3317   6 C                                       1.5332629
  3317   6 C     3318   6 C                                       1.5282890
  3317   6 C     3319   6 C                                       1.5351417
  3319   6 C     3320   6 C                                       1.5318584
  3320   6 C     3321   6 C                                       1.5288202
  3320   6 C     3322   6 C                                       1.5372086
  3322   6 C     3323   6 C                                       1.5347724
  3323   6 C     3324   6 C                                       1.5264679
  3323   6 C     3325   6 C                                       1.5348293
  3325   6 C     3326   6 C                                       1.5352462
  3326   6 C     3327   6 C                                       1.5298040
  3328   6 C     3329   6 C                                       1.5343190
  3329   6 C     3330   6 C                                       1.5302342
  3329   6 C     3331   6 C                                       1.5372113
  3331   6 C     3332   6 C                                       1.5329293
  3332   6 C     3333   6 C                                       1.5266270
  3332   6 C     3334   6 C                                       1.5367127
  3334   6 C     3335   6 C                                       1.5318028
  3335   6 C     3336   6 C                                       1.5295440
  3335   6 C     3337   6 C                                       1.5352235
  3337   6 C     3338   6 C                                       1.5339871
  3338   6 C     3339   6 C                                       1.5285514
  3338   6 C     3340   6 C                                       1.5366672
  3340   6 C     3341   6 C                                       1.5357339
  3341   6 C     3342   6 C                                       1.5259350
  3341   6 C     3343   6 C                                       1.5350739
  3343   6 C     3344   6 C                                       1.5322651
  3344   6 C     3345   6 C                                       1.5286854
  3344   6 C     3346   6 C                                       1.5366442
  3347   6 C     3348   6 C                                       1.5273398
  3347   6 C     3349   6 C                                       1.5346130
  3349   6 C     3350   6 C                                       1.5370058
  3350   6 C     3351   6 C                                       1.5282150
  3350   6 C     3352   6 C                                       1.5321391
  3352   6 C     3353   6 C                                       1.5254042
  3353   6 C     3354   6 C                                       1.5217767
  3265   6 C     3355   1 H                                       1.0878971
  3265   6 C     3356   1 H                                       1.0885515
  3265   6 C     3357   1 H                                       1.0883803
  3354   6 C     3358   1 H                                       1.0876817
  3354   6 C     3359   1 H                                       1.0881251
  3354   6 C     3360   1 H                                       1.0875241
  3352   6 C     3361   1 H                                       1.0920945
  3352   6 C     3362   1 H                                       1.0936066
  3349   6 C     3363   1 H                                       1.0920061
  3349   6 C     3364   1 H                                       1.0922729
  3347   6 C     3365   1 H                                       1.0937311
  3348   6 C     3366   1 H                                       1.0888014
  3348   6 C     3367   1 H                                       1.0863466
  3348   6 C     3368   1 H                                       1.0879570
  3346   6 C     3369   1 H                                       1.0929558
  3346   6 C     3370   1 H                                       1.0912631
  3343   6 C     3371   1 H                                       1.0926219
  3343   6 C     3372   1 H                                       1.0939409
  3350   6 C     3373   1 H                                       1.0947707
  3351   6 C     3374   1 H                                       1.0868537
  3351   6 C     3375   1 H                                       1.0869421
  3351   6 C     3376   1 H                                       1.0879429
  3344   6 C     3377   1 H                                       1.0961909
  3345   6 C     3378   1 H                                       1.0880720
  3345   6 C     3379   1 H                                       1.0872690
  3345   6 C     3380   1 H                                       1.0870093
  3341   6 C     3381   1 H                                       1.0916266
  3342   6 C     3382   1 H                                       1.0873090
  3342   6 C     3383   1 H                                       1.0867995
  3342   6 C     3384   1 H                                       1.0881346
  3340   6 C     3385   1 H                                       1.0931781
  3340   6 C     3386   1 H                                       1.0938932
  3338   6 C     3387   1 H                                       1.0940625
  3339   6 C     3388   1 H                                       1.0886321
  3339   6 C     3389   1 H                                       1.0867090
  3339   6 C     3390   1 H                                       1.0887981
  3337   6 C     3391   1 H                                       1.0922002
  3337   6 C     3392   1 H                                       1.0934417
  3335   6 C     3393   1 H                                       1.0934462
  3336   6 C     3394   1 H                                       1.0882418
  3336   6 C     3395   1 H                                       1.0883230
  3336   6 C     3396   1 H                                       1.0867272
  3334   6 C     3397   1 H                                       1.0915855
  3334   6 C     3398   1 H                                       1.0934768
  3332   6 C     3399   1 H                                       1.0936395
  3333   6 C     3400   1 H                                       1.0884208
  3333   6 C     3401   1 H                                       1.0850977
  3333   6 C     3402   1 H                                       1.0876688
  3331   6 C     3403   1 H                                       1.0918386
  3331   6 C     3404   1 H                                       1.0937447
  3329   6 C     3405   1 H                                       1.0934800
  3330   6 C     3406   1 H                                       1.0885431
  3330   6 C     3407   1 H                                       1.0869241
  3330   6 C     3408   1 H                                       1.0884690
  3328   6 C     3409   1 H                                       1.0904313
  3328   6 C     3410   1 H                                       1.0929337
  3326   6 C     3411   1 H                                       1.0924241
  3327   6 C     3412   1 H                                       1.0883306
  3327   6 C     3413   1 H                                       1.0878980
  3327   6 C     3414   1 H                                       1.0884387
  3325   6 C     3415   1 H                                       1.0933645
  3325   6 C     3416   1 H                                       1.0934442
  3323   6 C     3417   1 H                                       1.0914969
  3324   6 C     3418   1 H                                       1.0870579
  3324   6 C     3419   1 H                                       1.0884736
  3324   6 C     3420   1 H                                       1.0868549
  3322   6 C     3421   1 H                                       1.0928447
  3322   6 C     3422   1 H                                       1.0939831
  3320   6 C     3423   1 H                                       1.0937451
  3321   6 C     3424   1 H                                       1.0867744
  3321   6 C     3425   1 H                                       1.0883647
  3321   6 C     3426   1 H                                       1.0880983
  3319   6 C     3427   1 H                                       1.0915678
  3319   6 C     3428   1 H                                       1.0932764
  3317   6 C     3429   1 H                                       1.0925062
  3318   6 C     3430   1 H                                       1.0880005
  3318   6 C     3431   1 H                                       1.0859937
  3318   6 C     3432   1 H                                       1.0880556
  3316   6 C     3433   1 H                                       1.0926944
  3316   6 C     3434   1 H                                       1.0948204
  3314   6 C     3435   1 H                                       1.0925670
  3315   6 C     3436   1 H                                       1.0887416
  3315   6 C     3437   1 H                                       1.0869529
  3315   6 C     3438   1 H                                       1.0891672
  3313   6 C     3439   1 H                                       1.0904872
  3313   6 C     3440   1 H                                       1.0945173
  3311   6 C     3441   1 H                                       1.0968345
  3312   6 C     3442   1 H                                       1.0869127
  3312   6 C     3443   1 H                                       1.0878267
  3312   6 C     3444   1 H                                       1.0888500
  3310   6 C     3445   1 H                                       1.0929484
  3310   6 C     3446   1 H                                       1.0912811
  3308   6 C     3447   1 H                                       1.0933457
  3309   6 C     3448   1 H                                       1.0875457
  3309   6 C     3449   1 H                                       1.0882529
  3309   6 C     3450   1 H                                       1.0864995
  3307   6 C     3451   1 H                                       1.0907661
  3307   6 C     3452   1 H                                       1.0921212
  3305   6 C     3453   1 H                                       1.0942339
  3306   6 C     3454   1 H                                       1.0884892
  3306   6 C     3455   1 H                                       1.0850649
  3306   6 C     3456   1 H                                       1.0875557
  3304   6 C     3457   1 H                                       1.0905084
  3304   6 C     3458   1 H                                       1.0927178
  3302   6 C     3459   1 H                                       1.0961922
  3303   6 C     3460   1 H                                       1.0879452
  3303   6 C     3461   1 H                                       1.0863319
  3303   6 C     3462   1 H                                       1.0884570
  3301   6 C     3463   1 H                                       1.0921641
  3301   6 C     3464   1 H                                       1.0935077
  3299   6 C     3465   1 H                                       1.0942319
  3300   6 C     3466   1 H                                       1.0866813
  3300   6 C     3467   1 H                                       1.0877024
  3300   6 C     3468   1 H                                       1.0888217
  3298   6 C     3469   1 H                                       1.0910501
  3298   6 C     3470   1 H                                       1.0932523
  3296   6 C     3471   1 H                                       1.0926669
  3297   6 C     3472   1 H                                       1.0877492
  3297   6 C     3473   1 H                                       1.0889991
  3297   6 C     3474   1 H                                       1.0877630
  3295   6 C     3475   1 H                                       1.0918075
  3295   6 C     3476   1 H                                       1.0936481
  3293   6 C     3477   1 H                                       1.0933255
  3294   6 C     3478   1 H                                       1.0887717
  3294   6 C     3479   1 H                                       1.0883014
  3294   6 C     3480   1 H                                       1.0861463
  3292   6 C     3481   1 H                                       1.0918199
  3292   6 C     3482   1 H                                       1.0940504
  3290   6 C     3483   1 H                                       1.0943994
  3291   6 C     3484   1 H                                       1.0886871
  3291   6 C     3485   1 H                                       1.0862640
  3291   6 C     3486   1 H                                       1.0882765
  3289   6 C     3487   1 H                                       1.0927348
  3289   6 C     3488   1 H                                       1.0942562
  3287   6 C     3489   1 H                                       1.0927838
  3288   6 C     3490   1 H                                       1.0886177
  3288   6 C     3491   1 H                                       1.0874675
  3288   6 C     3492   1 H                                       1.0870844
  3286   6 C     3493   1 H                                       1.0936280
  3286   6 C     3494   1 H                                       1.0936308
  3284   6 C     3495   1 H                                       1.0940046
  3285   6 C     3496   1 H                                       1.0885282
  3285   6 C     3497   1 H                                       1.0879722
  3285   6 C     3498   1 H                                       1.0879911
  3283   6 C     3499   1 H                                       1.0902301
  3283   6 C     3500   1 H                                       1.0920864
  3281   6 C     3501   1 H                                       1.0943824
  3282   6 C     3502   1 H                                       1.0873129
  3282   6 C     3503   1 H                                       1.0886099
  3282   6 C     3504   1 H                                       1.0883419
  3280   6 C     3505   1 H                                       1.0911979
  3280   6 C     3506   1 H                                       1.0936248
  3278   6 C     3507   1 H                                       1.0930637
  3279   6 C     3508   1 H                                       1.0874210
  3279   6 C     3509   1 H                                       1.0871612
  3279   6 C     3510   1 H                                       1.0888395
  3277   6 C     3511   1 H                                       1.0921468
  3277   6 C     3512   1 H                                       1.0932681
  3275   6 C     3513   1 H                                       1.0934487
  3276   6 C     3514   1 H                                       1.0869232
  3276   6 C     3515   1 H                                       1.0872551
  3276   6 C     3516   1 H                                       1.0880289
  3274   6 C     3517   1 H                                       1.0910789
  3274   6 C     3518   1 H                                       1.0935247
  3272   6 C     3519   1 H                                       1.0932403
  3273   6 C     3520   1 H                                       1.0870151
  3273   6 C     3521   1 H                                       1.0883343
  3273   6 C     3522   1 H                                       1.0886912
  3271   6 C     3523   1 H                                       1.0914826
  3271   6 C     3524   1 H                                       1.0935299
  3269   6 C     3525   1 H                                       1.0935175
  3270   6 C     3526   1 H                                       1.0874519
  3270   6 C     3527   1 H                                       1.0885759
  3270   6 C     3528   1 H                                       1.0876592
  3268   6 C     3529   1 H                                       1.0941041
  3268   6 C     3530   1 H                                       1.0922301
  3266   6 C     3531   1 H                                       1.0949354
  3267   6 C     3532   1 H                                       1.0857032
  3267   6 C     3533   1 H                                       1.0874610
  3267   6 C     3534   1 H                                       1.0875014
  3353   6 C     3535   1 H                                       1.0917152
  3353   6 C     3536   1 H                                       1.0928091

 * 2 distinct bonds (by element types)

   Z      Z             #   av. dist./Å        max./Å        min./Å
   1 H    6 C        2366     1.0903030     1.0987162     1.0845666
   6 C    6 C        1105     1.5323912     1.5400219     1.5217767


optimized geometry written to: xtbopt.xyz


           -------------------------------------------------
          | TOTAL ENERGY            -3716.251647308242 Eh   |
          | GRADIENT NORM               0.000670256196 Eh/α |
          | HOMO-LUMO GAP              11.182986682909 eV   |
           -------------------------------------------------

------------------------------------------------------------------------
 * finished run on 2024/06/24 at 10:19:13.039     
------------------------------------------------------------------------
 total:
 * wall-time:     4 d,  1 h, 32 min,  9.186 sec
 *  cpu-time:    22 d,  6 h, 45 min, 49.188 sec
 * ratio c/w:     5.483 speedup
 SCF:
 * wall-time:     0 d,  0 h,  8 min, 20.325 sec
 *  cpu-time:     0 d,  0 h, 44 min, 56.616 sec
 * ratio c/w:     5.390 speedup
 ANC optimizer:
 * wall-time:     4 d,  1 h, 22 min, 21.460 sec
 *  cpu-time:    22 d,  5 h, 59 min,  8.100 sec
 * ratio c/w:     5.484 speedup

