3795
 energy: -5103.729269197385 gnorm: 0.000875468920 xtb: 6.6.1 (8d0f1dd)
C          114.14489333221726      111.74906177090740       96.04648858843741
C          114.34598851905876      111.79442005151961       97.53542618984243
C          114.33783252797753      113.11743637626870       95.39678601759769
C          113.36022965605967      114.15498929127115       95.94858386398583
H          115.36074092519505      113.45494964706297       95.57036925333975
H          114.19745408178703      113.01983073972328       94.31910535233949
C          113.37185900651464      115.44245736416519       95.12144240070025
H          112.35005069680201      113.74219725657981       95.95733371793951
H          113.63166549735492      114.39105131265484       96.97934161308831
C          112.87679235877120      115.19113581547708       93.70599600209287
H          112.72378974775121      116.18497510132227       95.58939617798913
H          114.38501601925931      115.84119013498982       95.06182717030292
N          111.58843095162283      114.84884654788675       93.63189495170339
O          113.55407147158125      110.97085285200311       98.18976584285504
O          115.14824206994007      112.51492626149016       98.09654242343325
H          113.61060305719391      111.08848221247747       99.18704878900657
H          113.15024223015986      111.35144520798060       95.84540437092943
H          114.88446219294144      111.04362998331456       95.65610607749854
C          110.92458426244495      114.48754455574459       92.39751808653233
H          111.03790832168674      114.74957864571459       94.47779116046067
C          109.79541610128207      113.50354478076169       92.67782471419034
H          110.52074375980477      115.39082152226517       91.92276218030700
H          111.67352765828370      114.06269879169908       91.72198863911385
C          110.29380575260919      112.13698089353632       93.14665709867839
H          109.16225436782639      113.93084417946893       93.45755198505833
H          109.19457869543520      113.38664071882305       91.77532348088826
C          109.13271043347693      111.31101983647160       93.69484847241495
H          110.77289570708251      111.61411406806351       92.31679637492158
H          111.03968846136313      112.27765194571835       93.93042063636391
C          109.52058225427309      109.87900584448275       94.05980082823388
H          108.74475478792058      111.81485083844485       94.58231121700966
H          108.33284173407205      111.28359891582336       92.95174707827564
C          108.32248181811417      109.16126094233205       94.66615772242828
H          109.85185853743224      109.35393284086348       93.16199261528361
H          110.34374878434562      109.89017530451873       94.77644938369512
N          108.59698030177051      107.76116798596712       94.93723424089303
H          108.04159402681641      109.64305131577343       95.60669202120724
H          107.46521269834957      109.22763887769014       93.98577481699945
C          107.73743664948525      106.97614021540207       95.58985683997741
H          109.47302040010698      107.38592951475893       94.60981514560063
O          113.60286799054029      115.30032230655443       92.71927089725952
C          108.17751160368624      105.54215502787427       95.79330812413339
C          109.30688025497420      105.42398429118839       96.82354221554850
H          107.31040905585415      104.98040804989398       96.14339377709543
H          108.50175233414826      105.12256047118144       94.83976418318589
C          109.59276437012913      103.95769564791154       97.14786223268732
H          110.21492674931709      105.89459265850203       96.44229075897815
H          109.02441090091972      105.95148280063573       97.73520199126338
C          110.74976525914963      103.78458935312497       98.13909785630136
H          108.69616676326649      103.49545358312731       97.56470658549749
H          109.84429193668640      103.42864316517449       96.22656460991342
C          110.41319669583174      104.40316989715888       99.48460134947614
H          110.94764053352148      102.72123214500233       98.27326934716358
H          111.64435360806357      104.27309439700525       97.75029328040046
N          109.67087035469953      103.61989383907836      100.27722313928130
C          109.22369783154896      103.99145779105596      101.60281733148098
H          109.58009562570533      102.63631170950394      100.04032587143183
O          106.64911439374396      107.38268365550144       96.00095231260364
C          107.77443379767932      103.55687721347084      101.81667868427041
H          109.86443999728046      103.51137964547947      102.35275797804171
H          109.33007709034149      105.07442130669919      101.69588636009799
C          107.21133988583097      104.03839703031917      103.15352357307158
H          107.16115726348288      103.94766110192117      101.00311422390448
H          107.73140140924393      102.46629386578397      101.76850515838328
C          105.87834152000077      103.36348104855523      103.47693502944789
H          107.91947815373489      103.81344279158166      103.95297133207453
H          107.07926873058430      105.11984982838240      103.11790273658828
C          105.19681274428493      103.93621723915373      104.72271959088319
H          105.20438172734436      103.46047223759226      102.62335855423598
H          106.05933211710835      102.29770980341939      103.63029544796154
C          104.44706125704634      105.23291256549115      104.43268978107947
N          103.62739307220873      105.64341958067519      105.55380754896328
H          105.14213256615747      106.04931966307086      104.22892824743838
H          103.80042754473354      105.09423151704198      103.55717353562430
C          103.58600035126381      106.89355055326693      106.01252148857043
H          103.07419823487518      104.93162420978945      106.02232699154641
O          110.76627962463192      105.53768501818567       99.79158102835721
C          102.57621030141200      107.15354095209794      107.11291905308622
C          103.25792615441785      107.73090809027642      108.35274175827053
H          101.85886788721137      107.88404090417190      106.72870590859813
H          102.04638172694557      106.23449686813511      107.35594735942625
C          102.26220664664824      108.31037567715231      109.35445930517646
H          103.84396432143652      106.94781744385364      108.83989405361419
H          103.94240327459572      108.51884950563279      108.03533978437396
C          103.00780937323493      108.77601755045043      110.60632128233046
H          101.73097515233268      109.15302499897297      108.90743158311680
H          101.53328020862716      107.54461002273099      109.62704150062342
C          102.07595366871891      109.32089802505654      111.66788707317575
H          103.54946937160400      107.92342060732953      111.01701394504538
H          103.71781328434378      109.55392673112010      110.32284124501675
N          101.57666331582475      110.52735073189901      111.40476634852796
C          100.57838468230516      111.21731864697998      112.19423884254779
H          101.80079664469126      110.95968201007193      110.51079124931536
H          104.47183936810663      103.21174143646510      105.10137214322633
H          105.93857037002219      104.12575057739636      105.49948047139576
O          104.29205345836212      107.79472210389667      105.55596400446136
O          101.83553279419057      108.68992893305870      112.69960456612557
C           99.33078980543573      111.49014335423561      111.35490005249255
H          100.33260771312737      110.59902438694265      113.06036963610731
H          100.99475822843361      112.16344650065690      112.55246337387049
C           98.20446707933412      112.15586985514933      112.14527206621752
H           99.61269017020801      112.11110053838205      110.50393625143553
H           98.96313049901475      110.54026179600527      110.95913016324936
C           98.52413806103577      113.55091748603618      112.68855041169391
H           97.33084110505121      112.22823127960787      111.49370613126256
H           97.93577699437189      111.51184342078822      112.98616373915388
C           98.92807352360109      114.54568464479155      111.59984500944141
H           97.63242061772173      113.92383600229742      113.19829143323192
H           99.32147412221123      113.48995658345470      113.42787819982948
C           98.76891064718050      115.99459090698591      112.03961293501926
H           99.96561220122354      114.37462426833920      111.31364327736827
H           98.29857784208917      114.39843896459554      110.72043936228143
N           99.65023525336265      116.34239425973510      113.14016856213092
H           98.98330914061346      116.66599917394663      111.19904988807851
H           97.73451442846408      116.18795732650651      112.34876586351442
C           99.64673249241363      117.56986316109084      113.66699573332191
H          100.24890660616074      115.61741656566728      113.51826934883175
C          100.63025966202034      117.80236244327624      114.79516459918618
C          101.93492399355071      118.33806634489265      114.20084885079423
H          100.20221738541426      118.53822922376337      115.47748494331776
H          100.80291336018333      116.87924330539612      115.34693265951491
C          102.95519895516348      118.72365040244451      115.26862696621006
H          102.36216920746718      117.56936826374812      113.55294552082201
H          101.70949205793816      119.21145208572474      113.58370614318910
C          104.25379473602787      119.18355421967850      114.60049797333372
H          102.55450443141238      119.52227436569753      115.89510633058686
H          103.14882455667963      117.86117075867355      115.90731374397343
C          105.36342975964301      119.42507025456699      115.60304940885692
H          104.58228582830242      118.39709292314267      113.91907341132007
H          104.06235127420571      120.10047968379770      114.04120722631511
N          105.26419490658299      120.55854362148355      116.29431650942581
C          106.22500311077228      120.93353209184005      117.30688038186983
H          104.57797274207570      121.25702308449802      116.02696783904825
O           98.93979993204580      118.47852129937331      113.22754059193289
C          105.79001519857997      120.52843439365533      118.71719462455533
H          107.16736067088912      120.43225943949673      117.07032965455562
H          106.37427590766170      122.01040298857566      117.25213181503560
C          104.55558099357400      121.27301191281248      119.22018046836220
H          105.60153896996137      119.45300196728552      118.72927656371134
H          106.61697440864849      120.75147313759601      119.39210278782143
C          104.85001694190041      122.75611264285558      119.41912667207161
H          103.72800558754946      121.14792293413413      118.51914348012980
H          104.25130628870185      120.83675712102956      120.17376928181599
C          103.70798701145299      123.50741715078732      120.09254448942376
H          105.75767524764868      122.86223668891697      120.01686007073245
H          105.02934531977370      123.21721637897322      118.44746748589650
C          104.05787950655491      124.99071882096668      120.19189890363836
H          102.79474585762831      123.39340929737915      119.50490576702870
H          103.51936436750746      123.10405006972563      121.08882543190605
N          102.94202364918074      125.80715428718109      120.60903342405592
H          104.87843945262853      125.14310663566683      120.89865789903060
H          104.36646115958774      125.36073478731632      119.21263429223535
O          106.27943351247725      118.61940476128957      115.76061947235551
C          102.29927411872380      126.64153338060738      119.78750720678701
H          102.59467361961377      125.66005288656233      121.54310237610322
C          101.22458675930733      127.51071455639676      120.41432298013940
C          101.32739408050628      127.67839005665262      121.92774814303677
H          101.27610141681893      128.48237531074938      119.91744766716890
H          100.25592576735605      127.07399088965778      120.15631207051216
C          100.34594263829248      128.72365300149869      122.45543481597365
H          101.09604046410166      126.72934531977445      122.41413825931822
H          102.34426187529199      127.97100588579308      122.20151464694939
C          100.35526202069616      128.75008458540418      123.98595847110811
H          100.60264095251641      129.71076360088793      122.06822146118898
H           99.33655849159982      128.47588256741199      122.12070422947731
C           99.83226436360984      127.43818964893514      124.53664048355357
H          101.35877503411304      128.93615570994777      124.36692786608103
H           99.69246465505788      129.54276361431491      124.33879444515384
N          100.55567007277908      126.88741987690233      125.50583393911299
O          102.56701464098460      126.73117479877047      118.58925203811800
C          100.18988477658986      125.64264475038104      126.15220313002909
H          101.47905791994955      127.26786388022235      125.72367525977478
C          100.68466846715157      125.59520471854846      127.59383585487873
H           99.09944913616631      125.56043483510859      126.12517260636098
H          100.61162159187374      124.80612877105820      125.58502247774747
C          100.14933702833029      124.37174676479535      128.33976660359841
H          101.77596418135234      125.58591147071790      127.60046766498259
H          100.35207673800728      126.49910012121882      128.10668010629396
C          100.65737328100724      123.04335326688742      127.78153993609801
H          100.43979238260927      124.44585403303282      129.38921875358670
H           99.05824627134322      124.38262620407835      128.29722974184193
C          100.05394047784175      121.85455366298967      128.52759238208768
H          100.39343536107320      122.95850865801447      126.72623153791550
H          101.74567347424599      123.00743769699848      127.85768600103243
C          100.51911641719150      120.51684430746843      127.95245643165637
H          100.33256481441659      121.89599887350616      129.58227382748700
H           98.96598440579878      121.90019453507190      128.46233686664877
N          101.93075668105769      120.31784820394340      128.18699709330136
H           99.95728119937039      119.70034947121515      128.41835701133002
H          100.35766766116593      120.48318348166556      126.87197135043188
C          102.82527770344839      120.09930471316176      127.22226899283864
H          102.22747858741556      120.37005804362815      129.15714576901334
O           98.77878213334500      126.94133175478383      124.11248644657537
C          104.26267806145712      120.05240011531869      127.70489353119800
C          105.14731785544716      119.14655557635921      126.85208497503433
H          104.64273746733525      121.07681628733378      127.65055166691300
H          104.27519163448090      119.73119295829171      128.74670187844805
C          106.58803319045668      119.15980286436645      127.35819545765823
H          104.75842212655587      118.12832325591188      126.89536362122034
H          105.10074313075452      119.47162451802421      125.81277517559961
C          107.53554395179593      118.33082420182188      126.48701350719897
H          106.95614144890216      120.18679529671070      127.40495943160661
H          106.59452665513960      118.74102127339326      128.36399366912914
C          106.99474618217319      116.93069264409374      126.28747806238518
H          107.69719540436466      118.80019394578837      125.51858705921131
H          108.49926285431178      118.24208856752087      126.99380599705545
N          106.88752057539915      116.53408734482132      125.01924847340322
C          106.38692012678349      115.22916256688580      124.64282800909626
H          107.25196480321144      117.12291663932646      124.27764931185989
O          102.52231385488538      119.97371996822859      126.03657522215030
C          105.65345644109775      115.26358445449084      123.30429979190787
H          107.22049325757438      114.51883039982339      124.58912293918809
H          105.71321238227216      114.90147470515147      125.43918537242121
C          106.60203430402424      115.41545134976839      122.11364744696989
H          105.08575083150467      114.33773223367257      123.19493663031314
H          104.94366589138602      116.09282407252113      123.31315505540628
C          107.36947270930665      114.12947438494383      121.79851957599483
H          106.01895911576895      115.69991999379006      121.23652797924154
H          107.29624213849397      116.22880050053374      122.31868059065583
C          108.55388424815301      114.36041131905880      120.86042936772616
H          107.74440432138331      113.67517169039735      122.71684431459673
H          106.68292166265108      113.41481278640259      121.34070271384314
C          109.71306756480703      115.05100092430676      121.57042631466602
H          108.90241075086867      113.40306119965383      120.47041266855206
H          108.24159486746214      114.97013134932730      120.01128397125140
N          110.75841624963022      115.40395640840835      120.63269491282128
H          109.36328406633446      115.95893664221784      122.07568632502283
H          110.14418658915324      114.39126874716803      122.32978256619209
C          112.03937275890870      115.46695963710629      120.97446270824707
H          110.46024843753034      115.60902060862760      119.68184426769359
O          106.66202843031297      116.22484279962960      127.24057962857216
C          113.00582643437055      115.94300814311647      119.90989208522268
C          112.84413872654302      115.34452251402989      118.51264641862885
H          112.87910201364519      117.02684178668611      119.84259138689728
H          114.01607935184332      115.74957615456321      120.27750736471428
C          113.18564928524172      113.85673543348439      118.47395550274385
H          111.83372788916240      115.50329473070163      118.13757159859274
H          113.52353980986267      115.87980125261144      117.84612460913797
C          113.27416542445467      113.35814596025727      117.03204582401467
H          114.13917632427416      113.69905569062547      118.97580556858706
H          112.41855872724989      113.28976790322604      119.00273029787643
C          113.61321882130308      111.88618329036716      116.90521907368590
H          112.31562758650264      113.52378707021813      116.53826417460679
H          114.04068156487494      113.92633724915068      116.49829909343623
N          114.75996444001228      111.50510201688506      117.46960597416155
O          112.43177432384876      115.21759413467026      122.12353493637674
C          115.23026999924205      110.14090615994863      117.39337703082820
H          115.32889050997778      112.17231102907802      117.98683793862001
C          115.66941722838510      109.59306068419009      118.74847161685911
H          114.40101802124695      109.54852972304674      116.99600860334068
H          116.07150568536684      110.08766112228192      116.69340107296513
C          115.70523400089954      108.06529165684924      118.75449343997619
H          116.65131411805653      109.99751856055782      119.00083050283888
H          114.96553767053666      109.93199642865858      119.51107456893652
C          116.59977520066776      107.44688231319239      117.67969114122351
H          116.05518687258564      107.73112386560098      119.73079948544753
H          114.69030990662975      107.68760434759450      118.61753211556179
C          116.65350326666302      105.93376556018613      117.86306612060802
H          116.20758468010452      107.67199432238279      116.68747858022927
H          117.60402002208428      107.86787813405057      117.74775990981054
C          117.51823297551604      105.20500138973642      116.83337790264952
H          117.03960252477657      105.70353168321047      118.85740730510327
H          115.64136412169974      105.52932788440313      117.80144604915701
N          117.38792739853247      103.78153124157322      117.06033760341451
H          117.18899432442724      105.43577980978368      115.81537483648593
H          118.57288201736598      105.47020295564910      116.93243456866875
C          118.35021052432677      102.96259153232532      117.48056343464054
H          116.43661856738234      103.44210408414573      117.04943522155220
O          112.88984576521955      111.10338662983790      116.28874623188092
C          117.87517509729383      101.56988382914221      117.84927601362440
C          118.20649279312340      100.58913641441345      116.72764898915761
H          118.39753640037512      101.24964767141786      118.75160952878232
H          116.80290344830003      101.57197088961513      118.03855398041711
C          117.84466551193468       99.15352157457988      117.09237338474981
H          117.67261771470625      100.88069435813313      115.82028114119437
H          119.27707907797323      100.63518713157345      116.52864866496982
C          118.21991353776018       98.18436353175288      115.97673857326390
H          118.37753087987657       98.86944119781063      118.00347471393350
H          116.77116137236614       99.08580204924822      117.28576683303854
C          119.71974614758724       98.09051807485140      115.72966161857262
H          117.87989629774388       97.17712408892865      116.22395442139572
H          117.73561837348940       98.46337618018782      115.04028851472955
N          120.01522932171170       97.43916217282077      114.60245622251729
C          121.36261381234398       97.09316992284538      114.20599924507921
H          119.24629053785252       97.04027716498426      114.07297525626780
O          119.53703682044937      103.28296587145412      117.54739571264817
C          121.47684896730449       96.97298154833821      112.69006177460940
H          122.02432886169193       97.87605917692821      114.58844516853769
H          121.64796453171019       96.14998991092416      114.68945449221269
C          121.16131297708655       98.29307458372020      111.99198382155289
H          122.48936834861772       96.65139988845985      112.44313646997651
H          120.78190545464345       96.20499554288561      112.34231306912781
C          121.28348408627613       98.19409955238464      110.47158763539727
H          120.14393462763913       98.58829999692453      112.25568085654697
H          121.84130111026394       99.05643922024537      112.37285800736129
C          120.56415613799821       99.33326522566523      109.75000967697750
H          122.33552765612569       98.17079586328752      110.18505454009340
H          120.83394842176493       97.25176452297292      110.15107890794411
C          121.15814228007090      100.71541687890969      110.00801442892556
H          120.57298719447570       99.14905287011062      108.67421096812573
H          119.52263717084260       99.35256677964655      110.07921002089282
N          120.23291914892948      101.71462249534768      109.52353782676894
H          121.35458791697815      100.86073195919519      111.07629898356889
H          122.09919133642504      100.85776632803260      109.47083192151021
C          120.59275467645661      102.95551769760949      109.17801145574674
H          119.24666142446061      101.51136915451889      109.66306539615253
O          120.56240534893266       98.58177671706422      116.47537340241448
C          119.46992351414993      103.75617647044997      108.54371022487514
C          118.98559585355576      103.07625915940481      107.25668543426964
H          118.63941818704789      103.82312965558687      109.24897104812160
H          119.83481314579615      104.76449035940193      108.33965551440740
C          120.10484347085747      102.96126375846912      106.22548017664639
H          118.60083145367206      102.08370984281412      107.49756688845282
H          118.16554634050806      103.66075281773890      106.83431913402849
C          119.64045301742209      102.37253307780804      104.89121401227020
H          120.50174913596234      103.96037974087356      106.03705127324811
H          120.91891210393588      102.35929524928581      106.63054885824394
C          119.07062465017641      100.97001771011193      104.98183473650954
H          118.87549373650174      103.01261324148790      104.44639031594323
H          120.49141199361483      102.33800557260250      104.20749711680118
N          119.82494728940657      100.07124394188268      105.61517040235215
O          121.73353983616768      103.38945906219499      109.32415964182968
C          119.40514914420366       98.69854156939759      105.81178066547403
H          120.76226842833617      100.32190780226099      105.90572440334948
C          120.57351476006113       97.72738738227237      105.68989799564797
H          118.94660391771264       98.60718745359002      106.80294469887808
H          118.64001159556460       98.47490566193228      105.06238542244830
C          120.14487395895169       96.26435217009002      105.82820100813589
H          121.04896782843390       97.87025555667040      104.71755838226778
H          121.31360075874119       97.96504454651635      106.45655698992708
C          119.55410274542558       95.93013499692769      107.19866003704506
H          119.41801844519168       96.02168719902699      105.05032730610343
H          121.02408298175014       95.63775053591397      105.66360196186584
C          119.45993298073313       94.42207547364646      107.43494720781125
H          120.18938653638789       96.36554922749289      107.97351103489153
H          118.55904086284544       96.36832655367472      107.28865750272033
C          118.87567050390828       94.09284428177166      108.81651323681287
H          118.83549118205492       93.96528032138797      106.66300943950932
H          120.45815601034765       93.98646823240283      107.35958581109989
N          117.41626468666759       94.16064475293705      108.90719897089613
H          119.18515268886685       93.09030182383056      109.12075681307444
H          119.28436281493559       94.79823554093969      109.54869857116505
H          117.00716572420031       93.28504290643919      108.59927249698019
H          117.06412230171161       94.85581762851753      108.25402096080406
O          117.97883652883276      100.68682027912119      104.48557223341660
C           99.59866760503714      122.35624082607738      123.02598270564116
C           99.66740920865290      123.86033567894312      123.16601238339373
C          100.97586117298509      121.70438479758174      122.94261671857414
C          100.88305948666824      120.18109675826564      122.91461010537033
H          101.48995194148380      122.06659555540583      122.05132508793224
H          101.56232788382390      121.99947850484652      123.81469382458954
C          102.27191265316698      119.54283601507518      122.79880912028595
H          100.41208666646845      119.83703957630937      123.83745923469215
H          100.25875661611616      119.85825017886120      122.07874372933125
C          102.17234616473365      118.04859897670381      123.03968108778099
H          102.67905789437340      119.72112262909410      121.80300756720686
H          102.92410939880617      119.98208234821837      123.55216045627465
N          102.24771373126933      117.69609019691654      124.32388595418556
O           98.54210760218037      124.36525403758341      123.62669108269991
O          100.64405251464376      124.52896207091977      122.89582832508034
H           98.57889944298299      125.36472535288554      123.77316488493292
H           99.02059687357922      122.14189738329034      122.12372879702259
H           99.03012420534425      121.96889728841552      123.87287941175842
C          102.03938964386207      116.33617036990245      124.77866621631490
H          102.30748027979446      118.43322224505201      125.02168992287928
C          102.66006786735213      116.08582924164031      126.14853972364834
H          100.96526394452816      116.11682357992831      124.82610908115848
H          102.47390788357498      115.67040379466481      124.02625779771257
C          102.35402597038352      114.66065416461277      126.61185508139137
H          103.73680745655707      116.25095399905780      126.09290661846572
H          102.23845478016541      116.79966888552859      126.85962199864294
C          102.68383409849471      114.38609263042552      128.08005259808760
H          101.28753852755321      114.48244553829966      126.45974251554475
H          102.89258545690245      113.95644766037873      125.97732476157920
C          104.17489933167634      114.42220285668051      128.41729624607757
H          102.17228822945967      115.12992881572612      128.69340625147444
H          102.28165077419864      113.40706318880196      128.34727145407220
C          104.96006930603878      113.23606689933614      127.86313328162649
H          104.61316701087280      115.33647747041135      128.01904139619961
H          104.29177149325760      114.44065062374987      129.50122449932115
N          106.38100829016311      113.48317874900137      128.01000877134112
H          104.71285727534131      112.31203149587357      128.39251902573758
H          104.72308441133438      113.08802008222152      126.80355715988223