3864
 energy: -5104.065600450509 gnorm: 0.000764637380 xtb: 6.6.1 (8d0f1dd)
C           45.62342475265310       56.63933444694762       40.31384394736057
C           46.32705627870816       55.75574807766132       39.50837821837092
C           46.13909579232944       55.81659575823971       38.13262906020379
C           45.27220431278104       56.74058436828096       37.57659449627147
C           44.57020013091233       57.61121577636995       38.39341752641858
C           44.74792996468179       57.55792027800071       39.76431204281995
C           47.28691220594649       54.77259031628883       40.12633985052317
C           46.91055838570269       53.34265233939551       39.73783519702335
C           48.72767577849831       55.11460562258533       39.71178507168921
C           49.77982413309964       54.66104142423347       40.74056236627924
C           51.08468587158107       54.37725070703805       40.04252017283597
C           51.74495040785996       55.37736547430207       39.33816465876492
C           52.95355571708809       55.12138900458488       38.71774676799966
C           53.51939607755411       53.85901202902530       38.78118176450155
C           52.86141310515168       52.85042173161805       39.46324867087967
C           51.65249167187976       53.11006546221441       40.08490400269155
C           49.95680375307276       55.72778599923079       41.83601347431437
C           51.10108312380459       55.38761347797028       42.80412129481574
C           50.79008924581925       54.12018753760454       43.56834328475028
C           49.72571627317144       54.07003236204032       44.46386692520471
C           49.44470146755985       52.91543402897611       45.16963976157185
C           50.21306951000926       51.78037793360931       44.97771304560209
C           51.27355428265798       51.81182571960653       44.09013755364484
C           51.56208723904673       52.97830259393555       43.40133303591718
C           51.43710798797684       56.49302599705511       43.82701490560011
C           51.36216753912007       57.95438516915515       43.36121807999711
C           51.65650129098137       58.85284167133784       44.54108555794546
C           52.87120456185286       58.75746096495184       45.21035831245246
C           53.15846514593307       59.56911704949776       46.29148147516306
C           52.23430880965203       60.50850863286160       46.71695619412774
C           51.01858013178957       60.61206728163948       46.06526604823160
C           50.73557161154071       59.78996164038812       44.98815329139270
C           52.29983299503782       58.31580120569716       42.19907561427873
C           51.82914876295620       59.62809496946224       41.52757369560837
C           51.27048040640592       59.33385379404284       40.15846307045614
C           52.10347339038846       58.97182681422113       39.10544145915809
C           51.58475609169723       58.68432944520682       37.85598819156149
C           50.21745423577200       58.73160572762774       37.64350332075566
C           49.37349245208016       59.06547553036651       38.68867065166471
C           49.89987955273353       59.36991189209736       39.93250187049763
C           52.92067721394307       60.70497604868567       41.48936148227844
C           52.33482204532470       62.05042715706042       41.04565573272649
C           51.31710434729008       62.55963710251382       42.03472177875954
C           51.67811536315782       62.83195982002074       43.34919773069593
C           50.75585143052203       63.35059227041054       44.23841730961088
C           49.45922045884036       63.61173463820292       43.82678345927746
C           49.09270204192037       63.35398888674180       42.51839265424909
C           50.01505234496047       62.82602877847597       41.63242419988512
C           53.41470216186849       63.13117365700867       40.86367920313197
C           54.11629931750834       63.09883353269218       39.49578105553206
C           55.34318305492778       63.97534882184110       39.54230441828407
C           56.59975121662744       63.45682248233812       39.25955773036439
C           57.72773479829342       64.25790426319649       39.30535511834155
C           57.61797725993839       65.59304960564435       39.64916142514456
C           56.37195781541399       66.12013003261801       39.94502122111708
C           55.24660083826751       65.31937853348367       39.88786821657734
C           53.15882745636927       63.54799063894534       38.38077458386771
C           53.58948729456566       63.13874234370672       36.96210307230817
C           52.60730110632608       63.72850185871596       35.98121702738426
C           52.98515332820019       64.74771259265513       35.11915045440745
C           52.07477119070072       65.30292690229801       34.23654964642711
C           50.76866882621557       64.84752726782773       34.20719975821825
C           50.38037186954886       63.82819749470805       35.05986868974992
C           51.29379681554182       63.27335031520089       35.93635203620286
C           53.68365434005292       61.60796062449916       36.80319425352734
C           55.11922585612307       61.13390852964366       36.52261440757767
C           55.46612435190378       61.36952400383036       35.07501178495588
C           54.86900961147533       60.62893248570448       34.06088851818549
C           55.19522054191104       60.85077823400772       32.73595882820306
C           56.11781897583256       61.82653322748174       32.39980415557275
C           56.70865340034116       62.57949388275382       33.39901677341631
C           56.38551069558098       62.34941904987748       34.72474904021293
C           55.28787029906443       59.66330611370196       36.91393191493065
C           56.71082981464312       59.13700213756589       36.68104702599502
C           57.69393313695074       59.80060224353722       37.60924318409084
C           58.62421005744535       60.70534864554850       37.11490954263436
C           59.53366622567885       61.32014439604329       37.95684190502531
C           59.53255448273875       61.03052229038101       39.30967843604267
C           58.61700434746326       60.12298244557649       39.81104132816115
C           57.70236235364457       59.51856337882939       38.96981510747258
C           56.72847662904960       57.60930541347548       36.84535144354906
C           56.33847318445015       56.90833814012267       35.53479769790358
C           57.51070329692060       56.94306457084996       34.59005195433571
C           57.45988209345749       57.71662408142172       33.43707110145315
C           58.56077882539829       57.82325046032198       32.60513704545480
C           59.73771395560308       57.16788451456012       32.92271884301736
C           59.79931247304673       56.39222192809833       34.06859540552482
C           58.69152188864332       56.27293265149920       34.88885911577803
C           55.81964986383830       55.49120841930656       35.80277758033149
C           55.14437852348262       54.84153227411884       34.58294370635747
C           54.22803232950040       55.81970042146656       33.89162263703623
C           54.47630096922259       56.20490452214143       32.58063187748594
C           53.67194764582603       57.13780342845213       31.94932004667620
C           52.60513769318710       57.70469203734651       32.62410649896331
C           52.34013750169387       57.32107220435190       33.92793345546129
C           53.14142094781039       56.38370016929800       34.55293872452715
C           54.36493494990641       53.59855255436369       35.03300141327971
C           53.74694537887805       52.83093724244139       33.85615718902037
C           54.79521567562976       52.01676890409153       33.14131259741354
C           55.39917609815637       50.92601088547404       33.75845832057475
C           56.34241164779811       50.16985818543511       33.08651905101182
C           56.70512311074572       50.49550886315285       31.79062653952739
C           56.11278375627208       51.57941012163437       31.16803076150449
C           55.16660572207486       52.33190390088775       31.84101926574935
C           52.59543893096320       51.93484931934231       34.34218234201707
C           51.24904284867010       52.67734559337756       34.45975350409325
C           50.38239961801168       51.93009968157246       35.44320550945988
C           49.72615480852539       50.75306671144478       35.09704918739217
C           48.94152474576419       50.08268140836907       36.01880312732644
C           48.82394795178360       50.55855665269135       37.31414374168333
C           49.49705806334735       51.71103573796586       37.67722036505219
C           50.26242381511086       52.39347974360710       36.74770795849366
C           50.59813420424844       52.83554608717710       33.07765397017750
C           49.13447628999544       53.30359568356008       33.11260477467369
C           49.02189124599866       54.74078908031405       33.56221944271992
C           48.62540977064321       55.04069110649834       34.85997942059531
C           48.44813187792444       56.35174740794236       35.26751440153215
C           48.64701755680213       57.38812231251034       34.37125995430190
C           49.06845979694955       57.10553918174532       33.08355910522450
C           49.26843421458051       55.79518276223412       32.68961584218393
C           48.47868714063370       53.13677043664984       31.73244707542748
C           48.15700148440115       51.69108437400271       31.31763631856983
C           47.88567924771601       51.69564365951736       29.83284553154810
C           48.78170051100397       51.10395023203399       28.95275655822437
C           48.54737698820082       51.11219022845107       27.58867225031858
C           47.40992744128987       51.71639466567488       27.08325836512377
C           46.51537798974262       52.32108604378416       27.95050044999165
C           46.75470013741975       52.31420327729238       29.31232844324612
C           46.98404331170496       51.09410672755569       32.11312732144876
C           46.46594186301536       49.79870200413377       31.46968934530783
C           47.58601070867539       48.81537013277470       31.22413755451523
C           47.80061539541641       48.28972316506816       29.95730330457623
C           48.82070787325235       47.38240139129010       29.72835941167016
C           49.64322384375257       46.98343726552346       30.76695148356754
C           49.43162926821456       47.49139692904488       32.03749795169347
C           48.40940244484442       48.39469287792434       32.26235033262283
C           45.39012079244500       49.07711972340739       32.29838645789287
C           44.22324263415748       49.92374544224040       32.83507060335727
C           43.29014838475946       48.98518262434177       33.56717755824769
C           43.09605571201904       49.09672849425692       34.93695733960583
C           42.29709691099047       48.19488694080093       35.61855186221206
C           41.67637058847191       47.16395528402561       34.93651168401751
C           41.84401410744754       47.05186170253103       33.56698920714301
C           42.64286385858902       47.95559247844044       32.89120852840522
C           43.45930417454441       50.72555921720789       31.77099091259774
C           42.70774662998355       51.90809994759682       32.41098905880119
H           47.20438541670323       54.86738409915436       41.21448657887025
H           48.93821787316753       54.64556079813075       38.74773559362664
H           48.81456744003013       56.19538453858856       39.57173458496093
H           49.44081892820734       53.73216859602773       41.21165407732149
H           50.16637611498053       56.68102093059179       41.35034127626434
H           49.01859186945988       55.83251695589833       42.38209070338841
H           51.99486460497956       55.20881406653321       42.19601016649138
H           50.75673038666854       56.41070810097973       44.67855659570231
H           52.44032775689224       56.28084651168489       44.20179547609805
H           50.33482065153284       58.14319420916006       43.03472334784368
H           52.31166681314556       57.50766238897580       41.46594544885488
H           51.02011741899325       60.04696073545435       42.13564227132546
H           53.34577923759478       60.80890945522162       42.48829622486107
H           53.72905579587072       60.41715935103709       40.81558449284673
H           51.82224218492859       61.88899495938001       40.09163885349074
H           52.94714832048732       64.10984882947092       40.99580903205401
H           54.16768178235657       63.01738902501734       41.64698793330910
H           54.43970388184567       62.07254639567184       39.30317261244455
H           52.16746155115448       63.13206589846147       38.56604482514633
H           53.06627992445151       64.63641645629959       38.41166947474240
H           54.57245576227626       63.57875360987154       36.76742131075960
H           55.80814897349812       61.72105049325911       37.13732522953112
H           55.04438677863332       59.55533198623856       37.97390250234393
H           54.58417643712960       59.05157662426610       36.34691046912458
H           57.00571955234248       59.37470052826699       35.65361064828301
H           57.72413293877426       57.29047344219958       37.14918912079641
H           56.03322346618658       57.32141759094522       37.63745852475186
H           55.52288568463231       57.47896221791432       35.07983411946069
H           56.63559828038851       54.85139994740209       36.14107430522282
H           55.08732131708500       55.54883662654321       36.61075000174884
H           55.92053547195363       54.53342580356031       33.87339836634867
H           55.03330361796613       52.93498688878130       35.58643335819170
H           53.56820342074392       53.90636655078842       35.71326664345320
H           53.34118988508460       53.56024542466264       33.14822939613752
H           52.47470862471246       51.09294492585088       33.65623402020483
H           52.85840944571500       51.52104076519823       35.31800657774214
H           51.43195683806119       53.67731375592655       34.86833816976579
H           51.18165765397598       53.55176929050458       32.49476174314845
H           50.64543412506414       51.87892758560250       32.55460086319246
H           48.58621403110543       52.68778419765663       33.83124679971329
H           47.55205919788909       53.71504360776272       31.71798111396937
H           49.14415944698113       53.55421537076952       30.97289241682236
H           49.03746109136561       51.06322309186019       31.48622799602684
H           47.30702805438401       50.89759642146903       33.13664908510525
H           46.17310053822791       51.82146280990529       32.16168789983916
H           46.03393107558809       50.05657529426376       30.49780814721902
H           44.99815850566291       48.26661132786192       31.67970907080007
H           45.86803657016551       48.61273418594404       33.16545720449410
H           45.76073449771543       56.61141922709313       41.38408044948377
H           44.20933263676513       58.23209460470007       40.41396861034647
H           43.88464442888812       58.32743279943229       37.96230879896224
H           45.14245212197451       56.77939316773026       36.50439497942320
H           46.67379798439366       55.13454272784136       37.48804728930999
H           51.31244405191321       56.36419774627331       39.27294369943187
H           53.45615806420167       55.91898979062139       38.18818050556168
H           54.46552849526028       53.66368800270707       38.29791519366513
H           53.29135364595491       51.86055734817978       39.51844831708710
H           51.14622474891016       52.31866281558295       40.62046531912888
H           49.10490646498849       54.94032548925804       44.61999475257097
H           48.61947825873921       52.89695220796816       45.86641626524388
H           49.97308091271086       50.87453914150018       45.51197458803646
H           51.87593615072306       50.92740245506377       43.93007164982654
H           52.39394831654156       53.00004346659925       42.71173201204719
H           53.60644616030044       58.03700199145689       44.88345810035322
H           54.10508298049445       59.46168717969694       46.80309713037119
H           52.46464904173258       61.15868670093488       47.54783944974780
H           50.28774789379268       61.33347740894786       46.39913605554059
H           49.78178694353610       59.88413775316936       44.49000296160834
H           53.31844717794351       58.43272715330912       42.57129887276615
H           53.16899867857168       58.90277760730398       39.26905959218433
H           52.24657821405821       58.41500405544067       37.04582289381871
H           49.81534076099701       58.49694460708990       36.67052543188579
H           48.30305102801123       59.08636701990546       38.53865169402301
H           49.23429100948490       59.63359531868697       40.74243781359596
H           52.69000786860338       62.64822851082737       43.67866289798319
H           51.04985924033871       63.56275850059603       45.25541980494474
H           48.74611543885003       64.02491790844809       44.52440420399196
H           48.09196256504585       63.57422568795389       42.17789410006039
H           49.71959862164238       62.63259305534881       40.61086826368523
H           56.70802445646994       62.41070538216808       39.00872967324556
H           58.69275441151333       63.83059943956813       39.07496305440404
H           58.49708389078299       66.21975783929437       39.68888692922849
H           56.27447786846741       67.16003152203285       40.22216971888177
H           54.28406748957578       65.75057033154386       40.12298910226296
H           54.00422334486908       65.10772980573600       35.13726626685530
H           52.38665772413294       66.09420292921337       33.57040289780268
H           50.05649633158298       65.28251822366146       33.52148897240446
H           49.36224425626199       63.46639276646162       35.04054959717442
H           50.98565988291064       62.47043601928470       36.59167209804933
H           53.30988535259654       61.12129345861855       37.70587550736562
H           53.04498146960032       61.28427048951186       35.97919260802272
H           54.14141123118811       59.86569382039571       34.29912941744833
H           54.72529891776350       60.25828885112627       31.96370164875642
H           56.37277493844239       62.00102137427002       31.36477855300216
H           57.42570731211339       63.34713631164211       33.14554667158257
H           56.85688345472524       62.93727005892081       35.50104679532663
H           58.63520261383392       60.92586020512901       36.05672270598048
H           60.24949705544839       62.02153791348599       37.55217184203617
H           60.24366766963091       61.50400239898020       39.97093992771297
H           58.62083448131728       59.88045992167095       40.86257923093662
H           56.99548347346888       58.80891697674610       39.37490352434833
H           56.55091550776098       58.24848633403599       33.19164573844845
H           58.50294498963870       58.42934102386157       31.71282537024227
H           60.60193351163629       57.26179498811436       32.28133788860207
H           60.71541955295677       55.88276273332962       34.33373880217366
H           58.75760905606720       55.65513646907881       35.77353305251788
H           55.31649165745416       55.77221475180567       32.05613642781605
H           53.88289952542531       57.42678222735501       30.92938558163613
H           51.98427016671133       58.44371906582714       32.13954708899359
H           51.50524146242473       57.75452919140612       34.45880380688584
H           52.92112067557040       56.09921605337961       35.57206199292073
H           55.12598537001985       50.65527107813257       34.76870380502710
H           56.79241121881026       49.31602673967456       33.57269088018418
H           57.44228299113791       49.90487526185618       31.26755100565964
H           56.38541445436619       51.83953896987027       30.15687073009195
H           54.70526959298841       53.17465955399160       31.34559402235581
H           49.83214061047263       50.35964190476937       34.09692196349526
H           48.42837327188705       49.17335531008698       35.73853088615910
H           48.22294288819995       50.02553881369928       38.03552113503594
H           49.43030406156636       52.08299110332227       38.68771854856664
H           50.77816183330118       53.29785310703506       37.04249961309724
H           48.44333375738461       54.23244187785946       35.55505747587402
H           48.13820039705837       56.56630292930444       36.28035826991292
H           48.47551788432183       58.41319351928952       34.67169883634506
H           49.23637254400538       57.91012700131273       32.38213152616353
H           49.60505341328928       55.59739616807555       31.68348714751063
H           49.67021043910378       50.62429798132698       29.33916702771455
H           49.25378165453493       50.64208509427864       26.91997509708982
H           47.22176207168111       51.71903248511364       26.01965328191692
H           45.62762923356306       52.79996814649307       27.56212039124441
H           46.05527104262791       52.79274577274379       29.98110245325610
H           47.16624688827265       48.59875708641876       29.13856613671430
H           48.97451881216212       46.98778551573082       28.73459326682864
H           50.44265652003278       46.27898885894956       30.59005675386350
H           50.06679568087009       47.18093809970365       32.85536228168245
H           48.25009753910999       48.77784507221299       33.25943391115126
H           42.77016700038518       47.84763142024321       31.82340725284535
H           41.35267355692840       46.25789337875488       33.02304973101522
H           41.06746550858330       46.45282269634019       35.47333443597556
H           42.16516538494367       48.28474807282701       36.68666948609684
H           43.58120207994555       49.89498622197000       35.47911814307312
H           45.86397754097797       53.16510456522856       39.97642096422000
H           47.05675314519385       53.17566488192562       38.67262102363996
H           47.51498979487626       52.62012845410373       40.28191141128208
H           44.63618181102009       50.63545272535954       33.55721781879334
H           44.14737867254713       51.10948884537689       31.01726582071252
H           42.74303194298459       50.07663778693851       31.26486609744705
C           41.59196840234925       52.43828329687017       31.49175033108808
C           43.67227736878078       53.01042210716948       32.76848018007819
C           44.21606331300900       53.82813877172119       31.78227038982941
C           45.08715545486824       54.85246968479856       32.10912133036390
C           45.43627339366185       55.07297672889715       33.43171410233209
C           44.90814738419786       54.26116980708578       34.42004304094013
C           44.02953793861118       53.24258915118543       34.09065701004693
H           43.93812033136604       53.67176819082034       30.74975144966627
H           45.48808207932954       55.48925057609755       31.33313846273443
H           46.11673396712911       55.87225623861368       33.68412214179985
H           45.16724415916752       54.42330356883085       35.45543278345546
H           43.60491493872098       52.63162501888124       34.87531821909190
C           40.24524881476808       51.78271648857800       31.80463404808220
H           41.49254850393203       53.51654026797365       31.62783374593336
H           41.84687241400530       52.25764272365529       30.44503726312649
C           39.15755089742884       52.26765140747735       30.88886645568331
C           38.48672879283705       51.39047135535810       30.04692756130948
C           37.48276911181598       51.84395674939059       29.20835688325206
C           37.13730707762873       53.18395394281386       29.19908298609338
C           37.79799815241780       54.06670670042191       30.03707621516160
C           38.79793969372746       53.61151378037474       30.87656322238179
H           38.74291143775127       50.34022131354229       30.05551882711848
H           36.96858373515356       51.14693925480859       28.56273593475017
H           36.35487109216481       53.53835252562077       28.54433190706557
H           37.53224222306102       55.11370738029975       30.04355988780986
H           39.30261264161273       54.30757958207271       31.53112527876640
H           42.24505897759963       51.55152930135284       33.33878881469201
H           40.33617862885068       50.69853328038645       31.72079613817938
H           39.97877708967507       52.02486083782178       32.83864926893188
C           45.30630799743287       47.17056794879129       39.40878627140340
C           45.36478312223225       46.91189454819889       38.04579326800829
C           45.50568175022615       47.98518246579038       37.17445228067916
C           45.61338731838081       49.27672251998536       37.65738070648305
C           45.56966229947592       49.51800665579070       39.02065580758273
C           45.39787264749512       48.46182267926412       39.89662095296128
C           45.28794717411805       45.49333540082972       37.54215254377807
C           44.03963926142033       45.28592653999914       36.68349741963726
C           46.54759043236093       45.11180006179597       36.75421808569823
C           47.83909541556490       45.29771049941682       37.56408648700556
C           47.78106417371199       44.54205299407349       38.86764484869489
C           47.91128029311925       45.23071491672550       40.06711306284806
C           47.89283839718524       44.56323018177247       41.27815208076260
C           47.73264224626988       43.18966836171355       41.31356937735003
C           47.58486742677418       42.49187504422821       40.12676097260476
C           47.60809340730997       43.16316756184282       38.91635867949316
C           49.04361086900484       44.86637031131465       36.71144208171000
C           50.36426833312117       44.85534118624417       37.49279154614158
C           50.69910063849079       46.22155848395743       38.04441815308527
C           50.91335626275608       47.31204408144827       37.21030363738342
C           51.23063754992346       48.55336302369681       37.73119410703835
C           51.31692059411194       48.73289010016231       39.10012744137355
C           51.09906335433247       47.65846905826838       39.94380846014869
C           50.80801109328880       46.41195608627592       39.41725928821416
C           51.53470931411097       44.33802932506586       36.63678839974676
C           51.34852980147439       42.92773996134588       36.04577152560937
C           52.60597001832851       42.51378899337578       35.32016458315191
C           53.79072421485375       42.25546597850367       36.00080610090577
C           54.92536898708057       41.85260405683589       35.31973929836298
C           54.89270710485945       41.69956775848314       33.94439285682591
C           53.72574223421032       41.97180062284458       33.25326506717419
C           52.59430665507073       42.37817439435462       33.93790547591188
C           50.95291421147549       41.88993657087369       37.10364632367343
C           50.75387501594354       40.47937339749327       36.52775496905771
C           49.87047225545750       40.48536466031226       35.30692692648117
C           50.34356957076710       39.98301041312168       34.10136585372634
C           49.54490378927659       39.98180037513346       32.97160603493936
C           48.25776447810594       40.48770770545357       33.02904127178473
C           47.77150182558741       40.98260451169716       34.22671621421158
C           48.57045660249778       40.97441466194712       35.35479106338575
C           50.15516386746753       39.57286740941243       37.61284471264394
C           49.88484373664520       38.15195206108092       37.11338525003697
C           51.11596593525150       37.43858404919911       36.61237556013788
C           52.36412363860996       37.59312389385409       37.20308284969526
C           53.46069644750467       36.88880017682777       36.73755457254249
C           53.32477576492043       36.00449842259511       35.68201859070459
C           52.08444207436342       35.83330403750071       35.09142778266857
C           50.99443919767863       36.54912644658402       35.55085980641323
C           49.20909537700305       37.30480223406831       38.21691400511364
C           47.84730438004304       36.75590767821113       37.77576816422309
C           46.91857428084505       37.86924378187476       37.35436793394925
C           46.35382618134400       37.87031886819578       36.08500330967723
C           45.49209090233553       38.87673401073297       35.68529199714343
C           45.18840539072170       39.91322729150286       36.54947125917231
C           45.75242279142520       39.92865070741318       37.81352695320803
C           46.60040528891189       38.91284806480174       38.21637036381620
C           47.17577130670434       35.91659185100382       38.87579548633238
C           48.00024294144615       34.69750422291377       39.31959190257437
C           48.50387488620856       33.89031153492763       38.15000196970960
C           49.85573504022410       33.59612563694045       38.02973645721706
C           50.33382997384096       32.85784780624969       36.96243383627201