3258
 energy: -3427.631557731418 gnorm: 0.000910951984 xtb: 6.6.1 (8d0f1dd)
C           94.26916862661456      121.51276890240231       97.55907912785196
C           95.59819379610404      120.83132196067614       97.86122883126058
C           95.44917607792516      119.31545464872515       97.97084524061040
C           96.76541921571761      118.63157754012882       98.33295746569846
C           96.62751630355346      117.11175772200717       98.39988060669313
C           97.92291772976262      116.43840411863837       98.84728990684887
C           97.81676862752636      114.91493977178472       98.85548152435985
C           99.09051124808700      114.25837413556097       99.38358205983165
C           99.02304578426629      112.73363621726102       99.33392437117287
C          100.26910127419096      112.08635848548298       99.93445745139773
C          100.24263103718425      110.56381794235054       99.82052928489912
C          101.47943597263179      109.91988626901518      100.44353425453001
C          101.48085790531985      108.40040121840664      100.29036542387102
C          102.70675905834597      107.76038572874535      100.93841917310499
C          102.74477342893641      106.24661302804077      100.74000566780448
C          103.95890731676057      105.61155789487759      101.41471600701493
C          104.04661170323065      104.10840674499713      101.15981455551626
C          105.25768980568510      103.48309840649387      101.84878772548805
C          105.39950959961214      101.99390017656910      101.54210234347036
C          106.62722595212365      101.39025142990066      102.22036291205967
C          106.84467907919168       99.92657576854364      101.84428260867504
C          108.12891923001992       99.36909907825488      102.45435191430487
C          108.45682002943941       97.96683859570624      101.94668300330122
C          109.82205182519148       97.49357471627654      102.44072103371633
C          110.16203928397628       96.06006303602723      102.03245045468385
C          110.21557376289618       95.80857731031334      100.52445501711327
C          111.28994550218904       96.61536719453230       99.79547254103989
C          111.42991691041352       96.15567689616385       98.34437381841332
C          112.60701528586753       96.78881940570400       97.59922712857451
C          112.36886496752733       98.22436549231109       97.12964415313466
C          113.58944954763348       98.73722051939460       96.36585870930813
C          113.46454718175001      100.17295339538637       95.85004599529806
C          113.71275734279915      101.22510858142371       96.92847571232390
C          113.66828089274682      102.64457627712693       96.36642326919822
C          113.89698227469056      103.70703655862420       97.43991805687119
C          113.85020702871981      105.11937603976061       96.86115069510247
C          113.98907559864547      106.20646319590020       97.92575000224120
C          114.02300856420585      107.60638720934421       97.31271290176865
C          113.97623118292377      108.71167637254356       98.36584186381354
C          114.08956392256411      110.10313681802907       97.74505485715319
C          113.84632838983158      111.22043821629960       98.75974262745740
C          114.16913910937581      112.59088769772441       98.16959839872109
C          113.88929007467979      113.76041041451053       99.11472112475495
C          112.40306502755425      114.08688624244193       99.24186912720747
C          112.13283911788676      115.38207232033660      100.00916587047944
C          112.50143681943216      115.28963604193812      101.48729858845618
C          112.08948808360404      116.53144208661865      102.27527050600185
C          112.36580800978135      116.35337143199239      103.76570869902893
C          111.95953907271704      117.56150502924473      104.60568943426048
C          112.13938552853135      117.28079362521400      106.09576758058422
C          111.76472735881755      118.46797111472969      106.97810258163480
C          111.90826561101862      118.13424443171235      108.46150583516514
C          111.53508807795691      119.31008779068505      109.35921872782103
C          111.72048889757487      118.99578783871932      110.84255916616327
C          111.25249053525955      120.15340736053824      111.71927625244477
C          111.50134211411604      119.93420433409628      113.21069342842758
C          110.90592656459576      121.08670869963113      114.01529816789228
C          111.10760007830103      120.99915726730802      115.52784473828521
C          112.49025671978843      121.44397465586400      115.99994283631334
C          112.50189598867935      121.72432128140387      117.50211872082060
C          113.86452082822801      122.20699439549647      117.99026319261549
C          113.86212130802701      122.58267480335066      119.46995742890182
C          115.26502202365123      122.91689703227024      119.97157730978445
C          115.26636214506647      123.42594846353666      121.41096652604186
C          116.68307292624574      123.56173421856276      121.96421324233114
C          116.70833710350276      124.23663304643880      123.33500322728862
C          118.08939603057433      124.18334699726253      124.00394173334048
C          118.20965296678673      123.11076046112053      125.08896869124119
C          117.97560738266675      121.69138276013436      124.57991428646564
C          118.24727649436871      120.64084748524647      125.65486395040334
C          117.86176385156537      119.24068516391603      125.18351335296940
C          118.15585605475309      118.17428102706110      126.23644744355838
C          117.73749835409635      116.76669540212650      125.80518143916281
C          116.22281666417167      116.62175482524248      125.67826739681657
C          115.77884431389897      115.18505259546968      125.41345234186453
C          114.28804442000128      115.07715024248496      125.08344055283047
C          113.38365802473081      115.51698404234276      126.23258674031203
C          111.90238166613649      115.39519622094031      125.87913524951983
C          110.97557339630971      115.75947353234491      127.04165949368968
C          111.08867205750336      117.22320290274581      127.46313114090921
C          110.12789127765868      117.58281838231683      128.59514210344901
C          110.38448337947121      118.97702343096560      129.17316125118691
C          110.01916628535471      120.10583122939772      128.21264837311767
C          110.31635161497229      121.48766490872679      128.79375569144392
C          109.89777207311637      122.58818128862110      127.82295145039228
C          110.25372945519260      123.99827245837858      128.28769834151268
C          109.78701279714241      125.02996183522335      127.26265007272221
C          110.27254498056334      126.44840918298102      127.55249420405295
C          109.98655202918097      127.37227041129560      126.36966799153998
C          110.62574141826281      128.75666799160905      126.50419783835682
C          110.89041498026705      129.40838794291136      125.14254702339271
C          112.09139653397170      128.77832002074439      124.43887343204104
C          112.31852255703093      129.29128893046868      123.01909645428248
C          113.48448864721124      128.54722580517617      122.36981278608472
C          113.84106686779683      129.03348566220970      120.96502800112728
C          112.74113611020594      128.85319240523953      119.91713160940824
C          112.26795779403776      127.40799154380709      119.76842449235711
C          111.41619843766108      127.21516299324277      118.51462139332855
C          110.77124436858143      125.83277609850660      118.48038761643090
C          109.85963405689331      125.60910916163628      117.27478228320840
C          110.61012750137581      125.50647061634909      115.94995558150352
C          109.70065884706722      125.02671877530067      114.82138149420132
C          110.43581430360466      124.97127548479583      113.48562339220909
C          109.59591011474643      124.33437633772546      112.38201490374348
C          110.38379629049636      124.20307444530540      111.08159025912103
C          109.58348953131880      123.51704269526732      109.97899306391537
C          110.41541352521357      123.30770309184101      108.71622838030441
C          109.60878112496023      122.64497806339708      107.60357803005913
C          110.44933799340600      122.36365334768151      106.36113064666323
C          109.60946490579973      121.77370099884837      105.23136424631697
C          110.45041240958443      121.38651809072068      104.01839137069092
C          109.59241463027199      120.86345777170082      102.86893778165771
C          110.43662824785069      120.36056558058242      101.70130250839946
C          109.58438022672074      119.87082454029607      100.53305281011019
C          110.43509168603286      119.26977919808259       99.41683354942791
C          109.59617982535333      118.76228099481477       98.24727239707593
C          110.45432932439202      118.08176945449031       97.18359487016342
C          109.62218399888346      117.56357227697595       96.01319691444978
C          110.47063417552785      116.81243829426943       94.98999240742003
C          109.61699560623056      116.20378068681467       93.88431430219786
H          111.20200941364230      117.49633659990462       94.55373330172382
H          111.02629089692044      116.01859362821344       95.49603072480947
H          108.84655201209806      116.89271806892961       96.39163909617797
H          109.11907606208220      118.40047824570352       95.52334574475400
H          111.20085981421845      118.78811865134496       96.81272616687581
H          110.99034749677971      117.24545639334796       97.63983852284676
H          108.85820517062609      118.04745509440039       98.61965390298722
H          109.04974210553038      119.59520244063884       97.79930698433515
H          111.13701656258044      120.02198076896315       99.05211014715718
H          111.01816171260892      118.43827204899705       99.82113092495997
H          108.88185550230364      119.11614389160202      100.89523045595217
H          108.99595715616927      120.70116695958549      100.13705519913609
H          111.09252220149253      121.16305259217981      101.35784689408669
H          111.06881283530302      119.53985290732575      102.04937166837117
H          108.96535618332720      120.04631196714341      103.23476707845843
H          108.92606454258419      121.65644342746519      102.52266803164522
H          111.01992867808111      122.25439884536479      103.67873578074453
H          111.16620694723528      120.61589357607232      104.31289823193956
H          109.08773175708659      120.88694161113465      105.60123801423683
H          108.84941920334133      122.49808535656368      104.93029477205508
H          110.91499831082196      123.29101408009906      106.01942039095853
H          111.25033830347027      121.66760968488542      106.61955064286960
H          109.19457154220409      121.70364241798978      107.97449900572367
H          108.76907964567553      123.28937396912670      107.33406248716018
H          110.79097849216816      124.27205695528157      108.36554713501454
H          111.28052852633878      122.68490126820164      108.95561459433218
H          109.23455488165129      122.54671027892802      110.34137682915105
H          108.70284691753704      124.11768898646524      109.74135633069689
H          110.69380813750362      125.19438055875382      110.74128988495055
H          111.29027760925437      123.62381401172928      111.27451451631001
H          109.27406286987080      123.34156621220281      112.70457297060656
H          108.69804400202929      124.93218819350120      112.21339521245166
H          110.72534557320991      125.98164200590834      113.18612450849128
H          111.35602548542201      124.39436823154155      113.61069056748386
H          109.32676035238522      124.02851810541335      115.06367629016898
H          108.83740937200973      125.69044551325665      114.73845047974375
H          111.03018549992623      126.47833237459946      115.68430437296030
H          111.44069624533225      124.80447311436362      116.06016764897153
H          109.30291547850531      124.68103087629177      117.42869351769137
H          109.12931544370646      126.41845950947300      117.21615987581916
H          111.55530494567793      125.07050524464726      118.48441528634628
H          110.18032762069423      125.70547171404971      119.39151583317215
H          110.63044018817709      127.97235105034044      118.49176616696872
H          112.04120887879706      127.35754491023083      117.63114258792571
H          113.13520152044980      126.74442014890725      119.71915183733660
H          111.67968020959307      127.12241366660668      120.64307379287992
H          111.88917100478710      129.49016930352749      120.16295515069395
H          113.13363494643818      129.19597054553506      118.95590387154702
H          114.10444459842320      130.09298189755040      121.01344175142364
H          114.72956554262538      128.48964731630687      120.63256698140019
H          114.36719510130089      128.66684800033184      123.00417754406377
H          113.25258725807599      127.48080610844058      122.33795282708230
H          111.40968218577036      129.14207305907010      122.43350823187136
H          112.52972143128002      130.36270853940869      123.03879656533815
H          112.98947506778472      128.96701893806429      125.03284664489986
H          111.95690431393280      127.69662573997830      124.38641825450902
H          110.00076150528824      129.30882188413094      124.51707849799294
H          111.07938239802930      130.47517808365237      125.28135974294480
H          109.97547996879769      129.40117080588530      127.09889773086337
H          111.57354079837543      128.67114354996536      127.04108952380615
H          110.36837069155810      126.89003680410752      125.46820331626746
H          108.90746271180831      127.47840954176300      126.24181982349803
H          109.79572670907191      126.83365571663012      128.45612122732749
H          111.34974558191657      126.42427887111585      127.73321675386163
H          110.16104439805684      124.73150613696620      126.28045776244286
H          108.69605950284537      125.02008448152917      127.21149170299942
H          109.79214947189288      124.19883556684337      129.25674569227138
H          111.33655832458606      124.07645383364893      128.41514137173857
H          110.38227303366047      122.40682678318724      126.85934099060790
H          108.81932741782246      122.52928885458560      127.66303827172328
H          109.78421400964481      121.61170972454259      129.73958212675882
H          111.38567803031769      121.56945973753784      129.00305373622854
H          110.57649805793015      119.99224230982598      127.28144558901602
H          108.95596017423595      120.03905557896192      127.97065236216392
H          109.79906023997717      119.09323335077652      130.08860679381525
H          111.43931920121838      119.06208295707091      129.44658733806176
H          109.09726701951193      117.52034746255136      128.23793718667167
H          110.24330158158044      116.84815218204204      129.39610107411920
H          112.10632984668243      117.42130718046724      127.80306062152383
H          110.88966595075220      117.85491656145923      126.59546904382721
H          109.94316670378183      115.55524915014266      126.74623551097346
H          111.20565495883957      115.11947129174465      127.89693164607161
H          111.68357656711619      116.04223749472955      125.02599629366901
H          111.69237456158119      114.36692469001362      125.57328257715332
H          113.59623357807109      114.90562149137099      127.11286192259364
H          113.60317966769128      116.55443350910788      126.48001183409998
H          114.06896169202345      115.68612706083763      124.20246970160029
H          114.05952639788180      114.04017402923544      124.82968615221334
H          116.35437325600557      114.78895722669245      124.57254328376892
H          116.00360958639254      114.56718295186739      126.28597654240583
H          115.76319340420007      116.97979217084996      126.60099713139236
H          115.86767153824702      117.24897878927518      124.85867134532415
H          118.20882724840486      116.52320043569232      124.85039521120005
H          118.10014837070466      116.04978961525363      126.54642519191745
H          119.22790547663196      118.17593158163591      126.45120831792919
H          117.63794681568228      118.43253144488013      127.16372097241010
H          116.79765222012789      119.23909487771614      124.94371855987929
H          118.40599193997028      119.00152771010956      124.26688598484164
H          119.30609173292801      120.66188882091907      125.92455103064384
H          117.67550815441554      120.88489349134603      126.55386316463985
H          116.94330269328313      121.58877000066798      124.23989536666159
H          118.62901074246511      121.50555622221310      123.72489508521399
H          119.21089250222997      123.16827746481178      125.52391871733585
H          117.49605466012609      123.32966068210656      125.88802639256093
H          118.85299599660281      124.01015616415744      123.24230018667306
H          118.30677088673592      125.14841538133425      124.46676645669913
H          116.40020024366675      125.27696409019094      123.20938044878820
H          115.97220113169816      123.76292928742789      123.98599701849615
H          117.13061863796329      122.56873776532083      122.03276678984822
H          117.28892228831548      124.14934276358238      121.26940097339542
H          114.76280107014315      124.39461074485811      121.45258093026101
H          114.70019353176765      122.73549096024917      122.04105275306097
H          115.89255190031140      122.02447929027647      119.90469604825563
H          115.70661194160179      123.67687063769452      119.32263693206407
H          113.20739959727166      123.44335301856214      119.62399984549511
H          113.45529298642106      121.75517536255309      120.05702485011845
H          114.60574160370682      121.42180906955197      117.82278130489854
H          114.16991614478667      123.07593180855041      117.40285690965069
H          111.75203815022216      122.48680202164562      117.72596714093035
H          112.21973215491596      120.81860629385284      118.04421025614707
H          113.23263538931823      120.67840839325393      115.76341230382093
H          112.77445485059808      122.35660789915322      115.46954092119122
H          110.36977156212318      121.64741524725103      116.00425295341628
H          110.91722326813563      119.97855267944047      115.86703883517738
H          111.33014683281277      122.02630011503091      113.65538472140226
H          109.83362248990733      121.11385061526569      113.81149396888922
H          111.04317303806154      118.99334844139875      113.52495312866185
H          112.57380356988642      119.85299693559094      113.39861710869624
H          111.76182460058338      121.06765424010703      111.40612762622905
H          110.18248892608256      120.30605785720107      111.55884549565828
H          111.15324747129401      118.09659066436041      111.09598379294191
H          112.77331697537662      118.78276440484881      111.04088234403598
H          112.15305012238721      120.17261863359765      109.09609805075550
H          110.49434410486191      119.58730746450384      109.17661009189047
H          111.26553283173834      117.28248918929104      108.70072241468070
H          112.93864861083777      117.83444175269722      108.66558799139335
H          112.41182592884779      119.31496482482663      106.73569204670650
H          110.73512743390130      118.76814483622356      106.77002987769552
H          111.52043907587210      116.42212196262311      106.37122084231019
H          113.18064760181163      117.01030773700020      106.28578116480813
H          112.56959577735708      118.42276492867813      104.32105544999234
H          110.91518347647416      117.81285655374177      104.40549738755934
H          111.82215157410874      115.47391768796123      104.12189663355959
H          113.43153457158989      116.16185668040058      103.91093799986358
H          112.63911746910800      117.39943718972279      101.90123137980214
H          111.02404649173731      116.72345762228565      102.12427026081400
H          112.01183167253743      114.41432739063748      101.92226648280089
H          113.57883188141379      115.14925397354688      101.58722908666616
H          112.69107998560470      116.20023126527225       99.54595463017530
H          111.06907372353430      115.62239317007850       99.92561905615435
H          111.98329384758830      114.18621148576926       98.23774555560183
H          111.88569346559069      113.26388222335294       99.73947499533227
H          114.30490394287978      113.53362089670874      100.09764810671787
H          114.40085452420057      114.64611453962129       98.73253993643694
H          115.22742919967862      112.60359010893056       97.90091796874331
H          113.59473903497468      112.72970345156143       97.25058286848555
H          112.80407854911915      111.19285469382064       99.08260868834772
H          114.46990397030021      111.05411217173821       99.64070259204649
H          115.08630146097158      110.21896947276008       97.31246313630018
H          113.36720591586841      110.19709184948057       96.93044024754508
H          113.03591919382556      108.63692678908548       98.91869727941000
H          114.78909747184687      108.57046925264747       99.08111002039948
H          114.93000277575740      107.71564225385217       96.71363003106148
H          113.17010593412913      107.72587658882929       96.64036461948336
H          113.14726601154200      106.13615543402302       98.62048988812157
H          114.90357718439174      106.04220380872457       98.50057010378744
H          114.65164592678263      105.23060745217242       96.12746021212224
H          112.90038126356755      105.25339639587943       96.33860817750192
H          113.12777556841235      103.60752379157688       98.21015211236376
H          114.86519646266183      103.53870440743145       97.91791889517459
H          114.43136996067717      102.74918580665859       95.59125361613806
H          112.69547211317473      102.81419912184678       95.89712599206770
H          112.96102147236117      101.12366110799611       97.71216457608357
H          114.69046059641414      101.04807977952127       97.38303546401325
H          114.19441683681161      100.32091495385403       95.04943030650453
H          112.47238789667682      100.31993287588860       95.41705559290673
H          114.46355422054046       98.66921915528610       97.01779065725465
H          113.76063071981170       98.07275146667374       95.51462767292618
H          111.49377732570791       98.24994262070614       96.47560464507787
H          112.16536120430914       98.87047822941925       97.98367986485560
H          113.49174392750562       96.76245155167442       98.24122305141552
H          112.82756382514543       96.17855915958279       96.71923702653380
H          111.56940386676415       95.07121260442560       98.34312224547220
H          110.50333416725469       96.36460902076477       97.80447837200953
H          111.03986952478300       97.67629191472510       99.82246071585224
H          112.24560798057639       96.47956439016608      100.30807072817916
H          110.41861307939187       94.74482299173962      100.37240143536789
H          109.24072494310018       96.01560659129473      100.08000831613013
H          111.13248310891967       95.79909689678517      102.46373445276747
H          109.41976119255207       95.38621630495182      102.46819183432002
H          110.59312933720669       98.17207457768316      102.07096898210170
H          109.83927896400968       97.54750345514346      103.53293502564745
H          107.68557961255307       97.26672664347396      102.27661880845130
H          108.44938245012690       97.98194111937811      100.85566256930225
H          108.95704693405895      100.03705848727820      102.20360068962101
H          108.03701705957496       99.35282528479868      103.54349391657767
H          105.99076423432079       99.32967717352865      102.17276335689459
H          106.90350805815598       99.84439190054296      100.75642705412299
H          107.50988139668475      101.96384456135388      101.92650974105611
H          106.52213297059028      101.47582607759065      103.30515561301456
H          104.50111169859548      101.46497099484736      101.86865448065518
H          105.48433881418568      101.85795146342386      100.46111180045496
H          106.16258123345807      104.00031901035979      101.51953214773488
H          105.17282290711461      103.62410563425355      102.92964946698862
H          103.13373242934240      103.62429205224466      101.51487818179554
H          104.11341088448827      103.93053268471314      100.08374527066408
H          104.86743792983422      106.08930264421622      101.03948332485736
H          103.91195114604814      105.79441072943754      102.49156774332241
H          101.83078054977520      105.80367131266760      101.14300289240279
H          102.77076302956809      106.02548656906225       99.67030116184284
H          103.60992858549885      108.19892638398206      100.50668857438403
H          102.70984371917672      107.98611048476735      102.00799578463466
H          100.57460919293158      107.98856415651488      100.74126520685367
H          101.46127857774711      108.14647520733837       99.22779973911936
H          102.37445347564389      110.32662533315244       99.96643164211808
H          101.52535603852091      110.17733810661491      101.50477171051932
H           99.34555880576971      110.17796346752309      100.31129745224489
H          100.18244932530652      110.28311834239071       98.76609673347448
H          101.15354591866921      112.46744283418614       99.41997577377415
H          100.35257433344316      112.36937227097795      100.98678318690469
H           98.13800279202437      112.39157317843596       99.87638692552565
H           98.91411169359021      112.41216918316333       98.29536235812304
H           99.94264444334868      114.59892088724303       98.78980360370801
H           99.26024686891553      114.57926630891258      100.41454224612870
H           96.96924283761260      114.61309684947734       99.47601221025529
H           97.62095117379069      114.56118902642986       97.84055718105844
H           98.73355039333367      116.73663389876525       98.17794417667487
H           98.18008995990819      116.78648117999553       99.85103958410345
H           95.82541261495109      116.85123925275414       99.09504642070198
H           96.34290273524701      116.73178916960887       97.41589662163379
H           97.52427423501628      118.89147539033640       97.59086007495566
H           97.11215495878864      119.00739491951035       99.29881761529158
H           94.69900155470030      119.08158663851262       98.73038563908693
H           95.08543625071042      118.92032932423547       97.01930779614020
H           96.31512513792607      121.06588755064175       97.07086622523109
H           96.00273224994470      121.22417788538957       98.79694446184942
H           94.39872639903999      122.59010154670149       97.48240467548102
H           93.85887073444647      121.14930673317593       96.61937199130685
H           93.54729231684500      121.30976286056324       98.34727220110817
H          110.23971093123261      115.68178735968274       93.16142938462322
H          108.90606908259423      115.49320703808812       94.30082749361414
H          109.05933131333315      116.97857928482276       93.36273291375490
C          114.46350391978189      127.23532540316764      127.78117187851240
C          115.30359599609406      126.12943922157771      127.15424098489663
C          114.47048149253385      124.95064531298567      126.65240415599413
C          113.57751087105844      125.30006013272659      125.46424304409143
C          112.91706515382373      124.06017399499194      124.86740110722234
C          112.05968625562316      124.38318459432719      123.64638997147730
C          111.48955825702993      123.12632506136306      122.99276267373395
C          110.66337820256183      123.45021918546510      121.75157207680775
C          110.10555287150160      122.20032939210006      121.07419899186397
C          109.24543246352316      122.55675681398931      119.86445909231006
C          108.73725136681792      121.33105816362664      119.10976295172686
C          107.94699570024896      121.71255321956833      117.85837625343999
C          107.64512074551688      120.50718939178581      116.96893469509764
C          107.17130429660639      120.90541764984960      115.57106269619311
C          107.22155124529921      119.73470804392821      114.59057941866922
C          106.97831612151717      120.16621137598548      113.14497083495212
C          107.24493720465478      119.03147583282627      112.15791923817550
C          107.11570226743336      119.46973491338332      110.70006150825661
C          107.47952706527401      118.34176499986289      109.73713133164756
C          107.34553093140005      118.74379175150352      108.26945748514092
C          107.69393780366515      117.58721657494257      107.33435044670414