      -----------------------------------------------------------      
     |                   =====================                   |     
     |                           x T B                           |     
     |                   =====================                   |     
     |                         S. Grimme                         |     
     |          Mulliken Center for Theoretical Chemistry        |     
     |                    University of Bonn                     |     
      -----------------------------------------------------------      

   * xtb version 6.6.1 (8d0f1dd) compiled by 'stahn@M-Bot' on 2023-08-01

   xtb is free software: you can redistribute it and/or modify it under
   the terms of the GNU Lesser General Public License as published by
   the Free Software Foundation, either version 3 of the License, or
   (at your option) any later version.
   
   xtb is distributed in the hope that it will be useful,
   but WITHOUT ANY WARRANTY; without even the implied warranty of
   MERCHANTABILITY or FITNESS FOR A PARTICULAR PURPOSE.  See the
   GNU Lesser General Public License for more details.
   
   Cite this work as:
   * C. Bannwarth, E. Caldeweyher, S. Ehlert, A. Hansen, P. Pracht,
     J. Seibert, S. Spicher, S. Grimme, WIREs Comput. Mol. Sci., 2020, 11,
     e01493. DOI: 10.1002/wcms.1493
   
   for GFN2-xTB:
   * C. Bannwarth, S. Ehlert and S. Grimme., J. Chem. Theory Comput., 2019,
     15, 1652-1671. DOI: 10.1021/acs.jctc.8b01176
   for GFN1-xTB:
   * S. Grimme, C. Bannwarth, P. Shushkov, J. Chem. Theory Comput., 2017,
     13, 1989-2009. DOI: 10.1021/acs.jctc.7b00118
   for GFN0-xTB:
   * P. Pracht, E. Caldeweyher, S. Ehlert, S. Grimme, ChemRxiv, 2019, preprint.
     DOI: 10.26434/chemrxiv.8326202.v1
   for GFN-FF:
   * S. Spicher and S. Grimme, Angew. Chem. Int. Ed., 2020, 59, 15665-15673.
     DOI: 10.1002/anie.202004239
   
   for ALPB and GBSA implicit solvation:
   * S. Ehlert, M. Stahn, S. Spicher, S. Grimme, J. Chem. Theory Comput.,
     2021, 17, 4250-4261. DOI: 10.1021/acs.jctc.1c00471
   
   for DFT-D4:
   * E. Caldeweyher, C. Bannwarth and S. Grimme, J. Chem. Phys., 2017,
     147, 034112. DOI: 10.1063/1.4993215
   * E. Caldeweyher, S. Ehlert, A. Hansen, H. Neugebauer, S. Spicher,
     C. Bannwarth and S. Grimme, J. Chem. Phys., 2019, 150, 154122.
     DOI: 10.1063/1.5090222
   * E. Caldeweyher, J.-M. Mewes, S. Ehlert and S. Grimme, Phys. Chem. Chem. Phys.
     2020, 22, 8499-8512. DOI: 10.1039/D0CP00502A
   
   for sTDA-xTB:
   * S. Grimme and C. Bannwarth, J. Chem. Phys., 2016, 145, 054103.
     DOI: 10.1063/1.4959605
   
   in the mass-spec context:
   * V. Asgeirsson, C. Bauer and S. Grimme, Chem. Sci., 2017, 8, 4879.
     DOI: 10.1039/c7sc00601b
   * J. Koopman and S. Grimme, ACS Omega 2019, 4, 12, 15120-15133.
     DOI: 10.1021/acsomega.9b02011
   
   for metadynamics refer to:
   * S. Grimme, J. Chem. Theory Comput., 2019, 155, 2847-2862
     DOI: 10.1021/acs.jctc.9b00143
   
   for SPH calculations refer to:
   * S. Spicher and S. Grimme, J. Chem. Theory Comput., 2021, 17, 1701-1714
     DOI: 10.1021/acs.jctc.0c01306
   
   with help from (in alphabetical order)
   P. Atkinson, C. Bannwarth, F. Bohle, G. Brandenburg, E. Caldeweyher
   M. Checinski, S. Dohm, S. Ehlert, S. Ehrlich, I. Gerasimov, C. Hölzer
   A. Katbashev, J. Koopman, C. Lavigne, S. Lehtola, F. März, M. Müller,
   F. Musil, H. Neugebauer, J. Pisarek, C. Plett, P. Pracht, F. Pultar,
   J. Seibert, P. Shushkov, S. Spicher, M. Stahn, M. Steiner, T. Strunk,
   J. Stückrath, T. Rose, and J. Unsleber
   
 * started run on 2024/10/03 at 21:21:21.637     

           -------------------------------------------------
          |                Calculation Setup                |
           -------------------------------------------------

          program call               : /home/abt-grimme/AK-bin/xtb input.xyz --input input.inp --opt
          hostname                   : boar081.thch.uni-bonn.de
          coordinate file            : input.xyz
          omp threads                :                     8

   ID    Z sym.   atoms
    1    6 C      1-120, 363-482, 725-844, 1087-1206, 1449-1568, 1811-1930,
                  2173-2292, 2535-2654, 2897-3016
    2    1 H      121-362, 483-724, 845-1086, 1207-1448, 1569-1810,
                  1931-2172, 2293-2534, 2655-2896, 3017-3258

molecular fragmentation (1/2 indicates fragments):
111111111111111111111111111111111111111111111111111111111111111111111111
111111111111111111111111111111111111111111111111111111111111111111111111
111111111111111111111111111111111111111111111111111111111111111111111111
111111111111111111111111111111111111111111111111111111111111111111111111
111111111111111111111111111111111111111111111111111111111111111111111111
112222222222222222222222222222222222222222222222222222222222222222222222
222222222222222222222222222222222222222222222222222222222222222222222222
222222222222222222222222222222222222222222222222222222222222222222222222
222222222222222222222222222222222222222222222222222222222222222222222222
222222222222222222222222222222222222222222222222222222222222222222222222
222222222222222222222222222222222222222222222222222222222222222222222222
222222222222222222222222222222222222222222222222222222222222222222222222
222222222222222222222222222222222222222222222222222222222222222222222222
222222222222222222222222222222222222222222222222222222222222222222222222
222222222222222222222222222222222222222222222222222222222222222222222222
222222222222222222222222222222222222222222222222222222222222222222222222
222222222222222222222222222222222222222222222222222222222222222222222222
222222222222222222222222222222222222222222222222222222222222222222222222
222222222222222222222222222222222222222222222222222222222222222222222222
222222222222222222222222222222222222222222222222222222222222222222222222
222222222222222222222222222222222222222222222222222222222222222222222222
222222222222222222222222222222222222222222222222222222222222222222222222
222222222222222222222222222222222222222222222222222222222222222222222222
222222222222222222222222222222222222222222222222222222222222222222222222
222222222222222222222222222222222222222222222222222222222222222222222222
222222222222222222222222222222222222222222222222222222222222222222222222
222222222222222222222222222222222222222222222222222222222222222222222222
222222222222222222222222222222222222222222222222222222222222222222222222
222222222222222222222222222222222222222222222222222222222222222222222222
222222222222222222222222222222222222222222222222222222222222222222222222
222222222222222222222222222222222222222222222222222222222222222222222222
222222222222222222222222222222222222222222222222222222222222222222222222
222222222222222222222222222222222222222222222222222222222222222222222222
222222222222222222222222222222222222222222222222222222222222222222222222
222222222222222222222222222222222222222222222222222222222222222222222222
222222222222222222222222222222222222222222222222222222222222222222222222
222222222222222222222222222222222222222222222222222222222222222222222222
222222222222222222222222222222222222222222222222222222222222222222222222
222222222222222222222222222222222222222222222222222222222222222222222222
222222222222222222222222222222222222222222222222222222222222222222222222
222222222222222222222222222222222222222222222222222222222222222222222222
222222222222222222222222222222222222222222222222222222222222222222222222
222222222222222222222222222222222222222222222222222222222222222222222222
222222222222222222222222222222222222222222222222222222222222222222222222
222222222222222222222222222222222222222222222222222222222222222222222222
222222222222222222
# atoms in fragment 1/2:   362  2896
 fragment masses (1/2) :     1685.21    13481.68
CMA distance (Bohr)    :   9.897
constraining FC (au)   :  0.0500

           -------------------------------------------------
          |                 G F N 2 - x T B                 |
           -------------------------------------------------

        Reference                      10.1021/acs.jctc.8b01176
      * Hamiltonian:
        H0-scaling (s, p, d)           1.850000    2.230000    2.230000
        zeta-weighting                 0.500000
      * Dispersion:
        s8                             2.700000
        a1                             0.520000
        a2                             5.000000
        s9                             5.000000
      * Repulsion:
        kExp                           1.500000    1.000000
        rExp                           1.000000
      * Coulomb:
        alpha                          2.000000
        third order                    shell-resolved
        anisotropic                    true
        a3                             3.000000
        a5                             4.000000
        cn-shift                       1.200000
        cn-exp                         4.000000
        max-rad                        5.000000


          ...................................................
          :                      SETUP                      :
          :.................................................:
          :  # basis functions                6498          :
          :  # atomic orbitals                6498          :
          :  # shells                         4338          :
          :  # electrons                      6498          :
          :  max. iterations                   250          :
          :  Hamiltonian                  GFN2-xTB          :
          :  restarted?                      false          :
          :  GBSA solvation                  false          :
          :  PC potential                    false          :
          :  electronic temp.          300.0000000     K    :
          :  accuracy                    1.0000000          :
          :  -> integral cutoff          0.2500000E+02      :
          :  -> integral neglect         0.1000000E-07      :
          :  -> SCF convergence          0.1000000E-05 Eh   :
          :  -> wf. convergence          0.1000000E-03 e    :
          :  Broyden damping             0.4000000          :
          ...................................................

 iter      E             dE          RMSdq      gap      omega  full diag
   1  -3473.6070069 -0.347361E+04  0.247E+00   11.35       0.0  T
   2  -3478.6761778 -0.506917E+01  0.138E+00   11.41       1.0  T
   3  -3478.8835405 -0.207363E+00  0.603E-01   11.39       1.0  T
   4  -3478.9040572 -0.205167E-01  0.759E-02   11.42       1.0  T
   5  -3478.9051563 -0.109910E-02  0.398E-02   11.42       1.0  T
   6  -3478.9053651 -0.208800E-03  0.706E-03   11.41       1.0  T
   7  -3478.9053828 -0.177681E-04  0.126E-03   11.41       1.4  T
   8  -3478.9053840 -0.112375E-05  0.402E-04   11.42       4.4  T
   9  -3478.9053840 -0.759874E-07  0.141E-04   11.42      12.4  T
  10  -3478.9053840 -0.384989E-08  0.442E-05   11.42      39.6  T

   *** convergence criteria satisfied after 10 iterations ***

         #    Occupation            Energy/Eh            Energy/eV
      -------------------------------------------------------------
         1        2.0000           -0.6253224             -17.0159
       ...           ...                  ...                  ...
      3243        2.0000           -0.4022250             -10.9451
      3244        2.0000           -0.4021223             -10.9423
      3245        2.0000           -0.4019539             -10.9377
      3246        2.0000           -0.4019121             -10.9366
      3247        2.0000           -0.4015592             -10.9270
      3248        2.0000           -0.4014030             -10.9227
      3249        2.0000           -0.4012221             -10.9178 (HOMO)
      3250                          0.0182843               0.4975 (LUMO)
      3251                          0.0217220               0.5911
      3252                          0.0218315               0.5941
      3253                          0.0224685               0.6114
      3254                          0.0229872               0.6255
       ...                                ...                  ...
      6498                          0.3926520              10.6846
      -------------------------------------------------------------
                  HL-Gap            0.4195064 Eh           11.4153 eV
             Fermi-level           -0.1914689 Eh           -5.2101 eV

 SCC (total)                   0 d,  0 h, 13 min, 51.565 sec
 SCC setup                      ...        0 min,  0.428 sec (  0.051%)
 Dispersion                     ...        0 min,  3.695 sec (  0.444%)
 classical contributions        ...        0 min,  0.151 sec (  0.018%)
 integral evaluation            ...        0 min,  6.265 sec (  0.753%)
 iterations                     ...        9 min, 32.009 sec ( 68.787%)
 molecular gradient             ...        4 min,  0.693 sec ( 28.945%)
 printout                       ...        0 min,  8.324 sec (  1.001%)

         :::::::::::::::::::::::::::::::::::::::::::::::::::::
         ::                     SUMMARY                     ::
         :::::::::::::::::::::::::::::::::::::::::::::::::::::
         :: total energy           -3427.631133667863 Eh    ::
         :: gradient norm              0.019432082057 Eh/a0 ::
         :: HOMO-LUMO gap             11.415349937227 eV    ::
         ::.................................................::
         :: SCC energy             -3478.905384049801 Eh    ::
         :: -> isotropic ES            0.416671188077 Eh    ::
         :: -> anisotropic ES          1.116255101075 Eh    ::
         :: -> anisotropic XC          1.948530486512 Eh    ::
         :: -> dispersion             -4.086508402076 Eh    ::
         :: repulsion energy          50.614240702988 Eh    ::
         :: add. restraining           0.000000000000 Eh    ::
         :: total charge              -0.000000000013 e     ::
         :::::::::::::::::::::::::::::::::::::::::::::::::::::

      ----------------------------------------------------------- 
     |              Fast Inertial Relaxation Engine              |
      ----------------------------------------------------------- 

          ...................................................
          :                      SETUP                      :
          :.................................................:
          :   energy convergence        0.5000000E-05 Eh    :
          :   grad. convergence         0.1000000E-02 Eh/a0 :
          :   optimization log               true           :
          :   writing optlog all                1     steps :
          :   Hessian reset                    20     steps :
          :   time step scaling                 5     steps :
          :   maximium step len.        1.0000000     a0    :
          :   initial time step         0.2500000     fs    :
          :   maximum time step         1.2500000     fs    :
          :   power reset thr           0.0000000     au    :
          :   alpha parameter           0.1000000           :
          :   BFGS update                   false           :
          :   preconditioning               false           :
          ...................................................

........................................................................
.............................. CYCLE    1 ..............................
........................................................................

 iter      E             dE          RMSdq      gap      omega  full diag
   1  -3478.9090229 -0.347891E+04  0.285E-04   11.42       0.0  T
   2  -3478.9090229 -0.304804E-07  0.162E-04   11.42      10.8  T
   3  -3478.9090229 -0.733507E-09  0.507E-05   11.42      34.6  T
     SCC iter.                  ...        2 min, 52.625 sec
     gradient                   ...        3 min, 59.798 sec
 * total energy  : -3427.6311761 Eh     change    :  -0.4247465E-04 Eh
   gradient norm :     0.0178786 Eh/a0  converged?    E=F G=F D=F
   time step     :     0.2500000 fs     power     :   0.2160615E-08
   step length   :     0.0022774 a0     speed     :   0.2203505E-03

........................................................................
.............................. CYCLE    2 ..............................
........................................................................

 iter      E             dE          RMSdq      gap      omega  full diag
   1  -3478.9143179 -0.347891E+04  0.413E-04   11.41       0.0  T
   2  -3478.9143180 -0.638820E-07  0.235E-04   11.41       7.5  T
   3  -3478.9143180 -0.153614E-08  0.733E-05   11.41      23.9  T
     SCC iter.                  ...        2 min, 47.075 sec
     gradient                   ...        4 min,  0.130 sec
 * total energy  : -3427.6312318 Eh     change    :  -0.5568533E-04 Eh
   gradient norm :     0.0156429 Eh/a0  converged?    E=F G=F D=F
   time step     :     0.2500000 fs     power     :   0.2756609E-08
   step length   :     0.0033249 a0     speed     :   0.3216987E-03

........................................................................
.............................. CYCLE    3 ..............................
........................................................................

 iter      E             dE          RMSdq      gap      omega  full diag
   1  -3478.9210350 -0.347892E+04  0.526E-04   11.41       0.0  T
   2  -3478.9210352 -0.102656E-06  0.299E-04   11.41       5.9  T
   3  -3478.9210352 -0.245927E-08  0.928E-05   11.41      18.9  T
     SCC iter.                  ...        2 min, 51.822 sec
     gradient                   ...        4 min,  0.536 sec
 * total energy  : -3427.6312921 Eh     change    :  -0.6029883E-04 Eh
   gradient norm :     0.0128549 Eh/a0  converged?    E=F G=F D=F
   time step     :     0.2500000 fs     power     :   0.2876683E-08
   step length   :     0.0042402 a0     speed     :   0.4102663E-03

........................................................................
.............................. CYCLE    4 ..............................
........................................................................

 iter      E             dE          RMSdq      gap      omega  full diag
   1  -3478.9288715 -0.347893E+04  0.616E-04   11.41       0.0  T
   2  -3478.9288717 -0.139234E-06  0.350E-04   11.41       5.0  T
   3  -3478.9288717 -0.332420E-08  0.108E-04   11.41      16.3  T
     SCC iter.                  ...        2 min, 55.380 sec
     gradient                   ...        4 min,  0.470 sec
 * total energy  : -3427.6313478 Eh     change    :  -0.5570549E-04 Eh
   gradient norm :     0.0097131 Eh/a0  converged?    E=F G=F D=F
   time step     :     0.2500000 fs     power     :   0.2516602E-08
   step length   :     0.0049884 a0     speed     :   0.4826541E-03

........................................................................
.............................. CYCLE    5 ..............................
........................................................................

 iter      E             dE          RMSdq      gap      omega  full diag
   1  -3478.9374536 -0.347894E+04  0.680E-04   11.41       0.0  T
   2  -3478.9374537 -0.165787E-06  0.387E-04   11.41       4.5  T
   3  -3478.9374537 -0.399359E-08  0.117E-04   11.41      15.0  T
     SCC iter.                  ...        2 min, 50.885 sec
     gradient                   ...        4 min,  1.438 sec
 * total energy  : -3427.6313910 Eh     change    :  -0.4316514E-04 Eh
   gradient norm :     0.0065904 Eh/a0  converged?    E=F G=F D=F
   time step     :     0.2500000 fs     power     :   0.1761253E-08
   step length   :     0.0055390 a0     speed     :   0.5359309E-03

........................................................................
.............................. CYCLE    6 ..............................
........................................................................

 iter      E             dE          RMSdq      gap      omega  full diag
   1  -3478.9472227 -0.347895E+04  0.788E-04   11.41       0.0  T
   2  -3478.9472229 -0.212007E-06  0.450E-04   11.41       3.9  T
   3  -3478.9472229 -0.513364E-08  0.131E-04   11.41      13.4  T
     SCC iter.                  ...        2 min, 52.174 sec
     gradient                   ...        4 min,  1.055 sec
 * total energy  : -3427.6314180 Eh     change    :  -0.2704019E-04 Eh
   gradient norm :     0.0043396 Eh/a0  converged?    E=F G=F D=F
   time step     :     0.2750000 fs     power     :   0.6759116E-09
   step length   :     0.0064778 a0     speed     :   0.5697845E-03

........................................................................
.............................. CYCLE    7 ..............................
........................................................................

 iter      E             dE          RMSdq      gap      omega  full diag
   1  -3478.9571432 -0.347896E+04  0.840E-04   11.41       0.0  T
   2  -3478.9571434 -0.211879E-06  0.481E-04   11.41       3.6  T
   3  -3478.9571434 -0.548971E-08  0.127E-04   11.41      13.7  T
     SCC iter.                  ...        2 min, 52.047 sec
     gradient                   ...        4 min,  0.795 sec
 * total energy  : -3427.6314230 Eh     change    :  -0.4921711E-05 Eh
   gradient norm :     0.0053348 Eh/a0  converged?    E=T G=F D=F
   time step     :     0.3025000 fs     power     :  -0.3856980E-09
   step length   :     0.0070197 a0     speed     :   0.5613147E-03

........................................................................
.............................. CYCLE    8 ..............................
........................................................................
 * reset velocities

 iter      E             dE          RMSdq      gap      omega  full diag
   1  -3478.9570214 -0.347896E+04  0.145E-05   11.41       0.0  T
   2  -3478.9570214 -0.112777E-09  0.785E-06   11.41     223.1  T
   3  -3478.9570214  0.522959E-10  0.343E-06   11.41     511.1  T
     SCC iter.                  ...        2 min, 49.575 sec
     gradient                   ...        4 min,  1.158 sec
 * total energy  : -3427.6314236 Eh     change    :  -0.6083078E-06 Eh
   gradient norm :     0.0052710 Eh/a0  converged?    E=T G=F D=T
   time step     :     0.1512500 fs     power     :   0.5291210E-10
   step length   :     0.0001144 a0     speed     :   0.1829948E-04

........................................................................
.............................. CYCLE    9 ..............................
........................................................................

 iter      E             dE          RMSdq      gap      omega  full diag
   1  -3478.9567798 -0.347896E+04  0.295E-05   11.41       0.0  T
   2  -3478.9567798 -0.210548E-09  0.172E-05   11.41     102.0  T
   3  -3478.9567798  0.636646E-11  0.406E-06   11.41     431.3  T
     SCC iter.                  ...        2 min, 48.730 sec
     gradient                   ...        3 min, 59.550 sec
 * total energy  : -3427.6314248 Eh     change    :  -0.1185455E-05 Eh
   gradient norm :     0.0051515 Eh/a0  converged?    E=T G=F D=T
   time step     :     0.1512500 fs     power     :   0.1027932E-09
   step length   :     0.0002275 a0     speed     :   0.3637967E-04

........................................................................
.............................. CYCLE   10 ..............................
........................................................................

 iter      E             dE          RMSdq      gap      omega  full diag
   1  -3478.9564238 -0.347896E+04  0.434E-05   11.41       0.0  T
   2  -3478.9564238 -0.509317E-09  0.252E-05   11.41      69.5  T
   3  -3478.9564238 -0.954969E-11  0.601E-06   11.41     291.6  T
     SCC iter.                  ...        2 min, 50.789 sec
     gradient                   ...        3 min, 59.768 sec
 * total energy  : -3427.6314265 Eh     change    :  -0.1720389E-05 Eh
   gradient norm :     0.0049775 Eh/a0  converged?    E=T G=F D=T
   time step     :     0.1512500 fs     power     :   0.1475000E-09
   step length   :     0.0003380 a0     speed     :   0.5404836E-04

........................................................................
.............................. CYCLE   11 ..............................
........................................................................

 iter      E             dE          RMSdq      gap      omega  full diag
   1  -3478.9559616 -0.347896E+04  0.570E-05   11.41       0.0  T
   2  -3478.9559616 -0.765795E-09  0.331E-05   11.41      52.9  T
   3  -3478.9559616 -0.541149E-10  0.783E-06   11.41     223.7  T
     SCC iter.                  ...        2 min, 46.313 sec
     gradient                   ...        3 min, 59.698 sec
 * total energy  : -3427.6314286 Eh     change    :  -0.2162085E-05 Eh
   gradient norm :     0.0047542 Eh/a0  converged?    E=T G=F D=T
   time step     :     0.1512500 fs     power     :   0.1851938E-09
   step length   :     0.0004447 a0     speed     :   0.7111365E-04

........................................................................
.............................. CYCLE   12 ..............................
........................................................................

 iter      E             dE          RMSdq      gap      omega  full diag
   1  -3478.9554045 -0.347896E+04  0.697E-05   11.41       0.0  T
   2  -3478.9554045 -0.112414E-08  0.406E-05   11.41      43.2  T
   3  -3478.9554045 -0.482032E-10  0.948E-06   11.41     184.8  T
     SCC iter.                  ...        2 min, 54.665 sec
     gradient                   ...        4 min,  0.674 sec
 * total energy  : -3427.6314312 Eh     change    :  -0.2522253E-05 Eh
   gradient norm :     0.0044893 Eh/a0  converged?    E=T G=F D=T
   time step     :     0.1512500 fs     power     :   0.2145108E-09
   step length   :     0.0005465 a0     speed     :   0.8739614E-04

........................................................................
.............................. CYCLE   13 ..............................
........................................................................

 iter      E             dE          RMSdq      gap      omega  full diag
   1  -3478.9547666 -0.347895E+04  0.816E-05   11.41       0.0  T
   2  -3478.9547666 -0.153887E-08  0.475E-05   11.41      36.9  T
   3  -3478.9547666  0.227374E-11  0.109E-05   11.41     160.3  T
     SCC iter.                  ...        2 min, 52.170 sec
     gradient                   ...        3 min, 59.333 sec
 * total energy  : -3427.6314339 Eh     change    :  -0.2777468E-05 Eh
   gradient norm :     0.0041932 Eh/a0  converged?    E=T G=F D=T
   time step     :     0.1512500 fs     power     :   0.2346731E-09
   step length   :     0.0006424 a0     speed     :   0.1027332E-03

........................................................................
.............................. CYCLE   14 ..............................
........................................................................

 iter      E             dE          RMSdq      gap      omega  full diag
   1  -3478.9539874 -0.347895E+04  0.103E-04   11.41       0.0  T
   2  -3478.9539874 -0.226100E-08  0.598E-05   11.41      29.3  T
   3  -3478.9539874 -0.809450E-10  0.135E-05   11.41     129.6  T
     SCC iter.                  ...        2 min, 53.412 sec
     gradient                   ...        4 min,  0.196 sec
 * total energy  : -3427.6314372 Eh     change    :  -0.3246113E-05 Eh
   gradient norm :     0.0038443 Eh/a0  converged?    E=T G=F D=T
   time step     :     0.1663750 fs     power     :   0.2460680E-09
   step length   :     0.0008145 a0     speed     :   0.1184134E-03

........................................................................
.............................. CYCLE   15 ..............................
........................................................................

 iter      E             dE          RMSdq      gap      omega  full diag
   1  -3478.9530681 -0.347895E+04  0.127E-04   11.41       0.0  T
   2  -3478.9530681 -0.325235E-08  0.739E-05   11.41      23.7  T
   3  -3478.9530681 -0.108685E-09  0.162E-05   11.41     108.2  T
     SCC iter.                  ...        2 min, 55.236 sec
     gradient                   ...        4 min,  9.512 sec
 * total energy  : -3427.6314408 Eh     change    :  -0.3638721E-05 Eh
   gradient norm :     0.0034584 Eh/a0  converged?    E=T G=F D=F
   time step     :     0.1830125 fs     power     :   0.2463536E-09
   step length   :     0.0010142 a0     speed     :   0.1340474E-03

........................................................................
.............................. CYCLE   16 ..............................
........................................................................

 iter      E             dE          RMSdq      gap      omega  full diag
   1  -3478.9520306 -0.347895E+04  0.153E-04   11.41       0.0  T
   2  -3478.9520306 -0.449427E-08  0.893E-05   11.41      19.6  T
   3  -3478.9520306 -0.904947E-10  0.187E-05   11.41      93.6  T
     SCC iter.                  ...        2 min, 54.301 sec
     gradient                   ...        4 min,  0.436 sec
 * total energy  : -3427.6314447 Eh     change    :  -0.3886084E-05 Eh
   gradient norm :     0.0030724 Eh/a0  converged?    E=T G=F D=F
   time step     :     0.2013138 fs     power     :   0.2344389E-09
   step length   :     0.0012409 a0     speed     :   0.1491044E-03

........................................................................
.............................. CYCLE   17 ..............................
........................................................................

 iter      E             dE          RMSdq      gap      omega  full diag
   1  -3478.9509324 -0.347895E+04  0.180E-04   11.41       0.0  T
   2  -3478.9509324 -0.555565E-08  0.105E-04   11.41      16.6  T
   3  -3478.9509324 -0.527507E-10  0.207E-05   11.41      84.8  T
     SCC iter.                  ...        2 min, 49.428 sec
     gradient                   ...        3 min, 59.449 sec
 * total energy  : -3427.6314487 Eh     change    :  -0.3949951E-05 Eh
   gradient norm :     0.0027528 Eh/a0  converged?    E=T G=F D=F
   time step     :     0.2214451 fs     power     :   0.2118851E-09
   step length   :     0.0014912 a0     speed     :   0.1628838E-03

........................................................................
.............................. CYCLE   18 ..............................
........................................................................

 iter      E             dE          RMSdq      gap      omega  full diag
   1  -3478.9498834 -0.347895E+04  0.206E-04   11.41       0.0  T
   2  -3478.9498834 -0.621230E-08  0.121E-04   11.41      14.5  T
   3  -3478.9498834 -0.522959E-10  0.214E-05   11.41      82.0  T
     SCC iter.                  ...        2 min, 48.604 sec
     gradient                   ...        3 min, 59.691 sec
 * total energy  : -3427.6314525 Eh     change    :  -0.3870665E-05 Eh
   gradient norm :     0.0025802 Eh/a0  converged?    E=T G=F D=F
   time step     :     0.2435896 fs     power     :   0.1843096E-09
   step length   :     0.0017575 a0     speed     :   0.1745202E-03

........................................................................
.............................. CYCLE   19 ..............................
........................................................................

 iter      E             dE          RMSdq      gap      omega  full diag
   1  -3478.9490536 -0.347895E+04  0.229E-04   11.41       0.0  T
   2  -3478.9490536 -0.584896E-08  0.135E-04   11.41      13.0  T
   3  -3478.9490536 -0.850378E-10  0.204E-05   11.41      86.1  T
     SCC iter.                  ...        2 min, 49.741 sec
     gradient                   ...        3 min, 59.833 sec
 * total energy  : -3427.6314563 Eh     change    :  -0.3783971E-05 Eh
   gradient norm :     0.0026159 Eh/a0  converged?    E=T G=F D=F
   time step     :     0.2679486 fs     power     :   0.1615043E-09
   step length   :     0.0020301 a0     speed     :   0.1832697E-03

........................................................................
.............................. CYCLE   20 ..............................
........................................................................

 iter      E             dE          RMSdq      gap      omega  full diag
   1  -3478.9486501 -0.347895E+04  0.248E-04   11.41       0.0  T
   2  -3478.9486501 -0.462342E-08  0.147E-04   11.41      12.0  T
   3  -3478.9486501 -0.895852E-10  0.182E-05   11.41      96.2  T
     SCC iter.                  ...        2 min, 53.750 sec
     gradient                   ...        4 min,  0.492 sec
 * total energy  : -3427.6314601 Eh     change    :  -0.3827052E-05 Eh
   gradient norm :     0.0026762 Eh/a0  converged?    E=T G=F D=F
   time step     :     0.2947435 fs     power     :   0.1506166E-09
   step length   :     0.0023072 a0     speed     :   0.1893447E-03
 * RMSD in coord.:     0.0005914 a0     energy gain  -0.3264699E-03 Eh

........................................................................
.............................. CYCLE   21 ..............................
........................................................................

 iter      E             dE          RMSdq      gap      omega  full diag
   1  -3478.9487898 -0.347895E+04  0.203E-04   11.41       0.0  T
   2  -3478.9487898 -0.190585E-08  0.120E-04   11.41      14.6  T
   3  -3478.9487898 -0.363798E-10  0.127E-05   11.41     137.5  T
     SCC iter.                  ...        2 min, 53.355 sec
     gradient                   ...        4 min,  0.967 sec
 * total energy  : -3427.6314634 Eh     change    :  -0.3235934E-05 Eh
   gradient norm :     0.0027035 Eh/a0  converged?    E=T G=F D=F
   time step     :     0.2500000 fs     power     :   0.1578456E-09
   step length   :     0.0019746 a0     speed     :   0.1910537E-03

........................................................................
.............................. CYCLE   22 ..............................
........................................................................

 iter      E             dE          RMSdq      gap      omega  full diag
   1  -3478.9494011 -0.347895E+04  0.199E-04   11.41       0.0  T
   2  -3478.9494011 -0.160207E-08  0.116E-04   11.41      15.0  T
   3  -3478.9494011 -0.105501E-09  0.128E-05   11.41     136.8  T
     SCC iter.                  ...        2 min, 55.110 sec
     gradient                   ...        3 min, 59.061 sec
 * total energy  : -3427.6314668 Eh     change    :  -0.3405753E-05 Eh
   gradient norm :     0.0026088 Eh/a0  converged?    E=T G=F D=F
   time step     :     0.2500000 fs     power     :   0.1695335E-09
   step length   :     0.0019974 a0     speed     :   0.1932576E-03

........................................................................
.............................. CYCLE   23 ..............................
........................................................................

 iter      E             dE          RMSdq      gap      omega  full diag
   1  -3478.9504386 -0.347895E+04  0.198E-04   11.41       0.0  T
   2  -3478.9504386 -0.213004E-08  0.116E-04   11.41      15.2  T
   3  -3478.9504386 -0.163709E-10  0.140E-05   11.41     125.5  T
     SCC iter.                  ...        2 min, 51.697 sec
     gradient                   ...        4 min,  0.653 sec
 * total energy  : -3427.6314703 Eh     change    :  -0.3559584E-05 Eh
   gradient norm :     0.0023777 Eh/a0  converged?    E=T G=F D=F
   time step     :     0.2500000 fs     power     :   0.1764329E-09
   step length   :     0.0020330 a0     speed     :   0.1967003E-03

........................................................................
.............................. CYCLE   24 ..............................
........................................................................

 iter      E             dE          RMSdq      gap      omega  full diag
   1  -3478.9518294 -0.347895E+04  0.201E-04   11.41       0.0  T
   2  -3478.9518294 -0.304772E-08  0.117E-04   11.41      15.0  T
   3  -3478.9518294 -0.954969E-10  0.158E-05   11.41     111.0  T
     SCC iter.                  ...        2 min, 52.122 sec
     gradient                   ...        3 min, 59.797 sec
 * total energy  : -3427.6314739 Eh     change    :  -0.3520174E-05 Eh
   gradient norm :     0.0020338 Eh/a0  converged?    E=T G=F D=F
   time step     :     0.2500000 fs     power     :   0.1716551E-09
   step length   :     0.0020802 a0     speed     :   0.2012713E-03

........................................................................
.............................. CYCLE   25 ..............................
........................................................................

 iter      E             dE          RMSdq      gap      omega  full diag
   1  -3478.9534736 -0.347895E+04  0.205E-04   11.41       0.0  T
   2  -3478.9534736 -0.417776E-08  0.118E-04   11.41      14.8  T
   3  -3478.9534736 -0.181899E-09  0.177E-05   11.41      98.7  T
     SCC iter.                  ...        2 min, 49.876 sec
     gradient                   ...        4 min,  0.570 sec
 * total energy  : -3427.6314771 Eh     change    :  -0.3221057E-05 Eh
   gradient norm :     0.0016421 Eh/a0  converged?    E=T G=F D=F
   time step     :     0.2500000 fs     power     :   0.1526609E-09
   step length   :     0.0021328 a0     speed     :   0.2063561E-03

........................................................................
.............................. CYCLE   26 ..............................
........................................................................

 iter      E             dE          RMSdq      gap      omega  full diag
   1  -3478.9554178 -0.347896E+04  0.228E-04   11.41       0.0  T
   2  -3478.9554178 -0.611954E-08  0.131E-04   11.41      13.4  T
   3  -3478.9554178 -0.185537E-09  0.211E-05   11.41      82.9  T
     SCC iter.                  ...        2 min, 50.303 sec
     gradient                   ...        4 min,  0.462 sec
 * total energy  : -3427.6314800 Eh     change    :  -0.2937914E-05 Eh
   gradient norm :     0.0013100 Eh/a0  converged?    E=T G=F D=F
   time step     :     0.2750000 fs     power     :   0.1188118E-09
   step length   :     0.0024081 a0     speed     :   0.2118117E-03

........................................................................
.............................. CYCLE   27 ..............................
........................................................................

 iter      E             dE          RMSdq      gap      omega  full diag
   1  -3478.9574258 -0.347896E+04  0.243E-04   11.41       0.0  T
   2  -3478.9574258 -0.678438E-08  0.139E-04   11.41      12.6  T
   3  -3478.9574258 -0.226464E-09  0.220E-05   11.41      79.5  T
     SCC iter.                  ...        2 min, 51.532 sec
     gradient                   ...        4 min,  0.204 sec
 * total energy  : -3427.6314824 Eh     change    :  -0.2374250E-05 Eh
   gradient norm :     0.0012923 Eh/a0  converged?    E=T G=F D=F
   time step     :     0.3025000 fs     power     :   0.8027097E-10
   step length   :     0.0026893 a0     speed     :   0.2150416E-03

........................................................................
.............................. CYCLE   28 ..............................
........................................................................

 iter      E             dE          RMSdq      gap      omega  full diag
   1  -3478.9590973 -0.347896E+04  0.241E-04   11.41       0.0  T
   2  -3478.9590973 -0.511864E-08  0.138E-04   11.41      12.7  T
   3  -3478.9590973 -0.209184E-09  0.185E-05   11.41      94.6  T
     SCC iter.                  ...        2 min, 51.157 sec
     gradient                   ...        3 min, 59.639 sec
 * total energy  : -3427.6314843 Eh     change    :  -0.1903258E-05 Eh
   gradient norm :     0.0015529 Eh/a0  converged?    E=T G=F D=F
   time step     :     0.3327500 fs     power     :   0.5652937E-10
   step length   :     0.0029139 a0     speed     :   0.2118254E-03

........................................................................
.............................. CYCLE   29 ..............................
........................................................................

 iter      E             dE          RMSdq      gap      omega  full diag
   1  -3478.9601056 -0.347896E+04  0.227E-04   11.41       0.0  T
   2  -3478.9601056 -0.234286E-08  0.131E-04   11.41      13.3  T
   3  -3478.9601056 -0.200998E-09  0.130E-05   11.41     134.3  T
     SCC iter.                  ...        2 min, 49.996 sec
     gradient                   ...        4 min,  0.118 sec
 * total energy  : -3427.6314862 Eh     change    :  -0.1855445E-05 Eh
   gradient norm :     0.0017712 Eh/a0  converged?    E=T G=F D=F
   time step     :     0.3660250 fs     power     :   0.5565857E-10
   step length   :     0.0030905 a0     speed     :   0.2042336E-03

........................................................................
.............................. CYCLE   30 ..............................
........................................................................

 iter      E             dE          RMSdq      gap      omega  full diag
   1  -3478.9602558 -0.347896E+04  0.215E-04   11.41       0.0  T
   2  -3478.9602558 -0.134378E-08  0.125E-04   11.41      14.0  T
   3  -3478.9602558 -0.161890E-09  0.106E-05   11.41     165.7  T
     SCC iter.                  ...        2 min, 50.216 sec
     gradient                   ...        4 min,  1.372 sec
 * total energy  : -3427.6314885 Eh     change    :  -0.2299933E-05 Eh
   gradient norm :     0.0017641 Eh/a0  converged?    E=T G=F D=F
   time step     :     0.4026275 fs     power     :   0.6806721E-10
   step length   :     0.0032901 a0     speed     :   0.1976622E-03

........................................................................
.............................. CYCLE   31 ..............................
........................................................................

 iter      E             dE          RMSdq      gap      omega  full diag
   1  -3478.9594849 -0.347896E+04  0.213E-04   11.41       0.0  T
   2  -3478.9594850 -0.308819E-08  0.125E-04   11.41      14.0  T
   3  -3478.9594850 -0.230102E-09  0.133E-05   11.41     131.3  T
     SCC iter.                  ...        2 min, 56.738 sec
     gradient                   ...        4 min,  8.928 sec
 * total energy  : -3427.6314913 Eh     change    :  -0.2885603E-05 Eh
   gradient norm :     0.0015244 Eh/a0  converged?    E=T G=F D=F
   time step     :     0.4428903 fs     power     :   0.7606358E-10
   step length   :     0.0035680 a0     speed     :   0.1948702E-03

........................................................................
.............................. CYCLE   32 ..............................
........................................................................

 iter      E             dE          RMSdq      gap      omega  full diag
   1  -3478.9579571 -0.347896E+04  0.219E-04   11.41       0.0  T
   2  -3478.9579572 -0.679120E-08  0.129E-04   11.41      13.6  T
   3  -3478.9579572 -0.249656E-09  0.201E-05   11.41      87.2  T
     SCC iter.                  ...        2 min, 53.661 sec
     gradient                   ...        4 min,  1.874 sec
 * total energy  : -3427.6314944 Eh     change    :  -0.3070022E-05 Eh
   gradient norm :     0.0012921 Eh/a0  converged?    E=T G=F D=F
   time step     :     0.4871793 fs     power     :   0.6821473E-10
   step length   :     0.0039363 a0     speed     :   0.1954421E-03

........................................................................
.............................. CYCLE   33 ..............................
........................................................................

 iter      E             dE          RMSdq      gap      omega  full diag
   1  -3478.9562667 -0.347896E+04  0.208E-04   11.41       0.0  T
   2  -3478.9562668 -0.763157E-08  0.123E-04   11.41      14.3  T
   3  -3478.9562668 -0.226009E-09  0.220E-05   11.41      79.8  T
     SCC iter.                  ...        2 min, 49.402 sec
     gradient                   ...        4 min,  0.110 sec
 * total energy  : -3427.6314973 Eh     change    :  -0.2855134E-05 Eh
   gradient norm :     0.0014264 Eh/a0  converged?    E=T G=F D=F
   time step     :     0.5358972 fs     power     :   0.5603022E-10
   step length   :     0.0043459 a0     speed     :   0.1961624E-03

........................................................................
.............................. CYCLE   34 ..............................
........................................................................

 iter      E             dE          RMSdq      gap      omega  full diag
   1  -3478.9553094 -0.347896E+04  0.181E-04   11.41       0.0  T
   2  -3478.9553095 -0.310865E-08  0.107E-04   11.41      16.3  T
   3  -3478.9553095 -0.189630E-09  0.115E-05   11.41     151.8  T
     SCC iter.                  ...        2 min, 51.545 sec
     gradient                   ...        3 min, 59.428 sec
 * total energy  : -3427.6315005 Eh     change    :  -0.3192907E-05 Eh
   gradient norm :     0.0016460 Eh/a0  converged?    E=T G=F D=F
   time step     :     0.5894869 fs     power     :   0.6308254E-10
   step length   :     0.0047456 a0     speed     :   0.1947294E-03

........................................................................
.............................. CYCLE   35 ..............................
........................................................................

 iter      E             dE          RMSdq      gap      omega  full diag
   1  -3478.9557201 -0.347896E+04  0.197E-04   11.41       0.0  T
   2  -3478.9557201 -0.950422E-09  0.115E-04   11.41      15.2  T
   3  -3478.9557201 -0.168257E-09  0.730E-06   11.41     239.8  T
     SCC iter.                  ...        2 min, 52.107 sec
     gradient                   ...        4 min,  1.148 sec
 * total energy  : -3427.6315048 Eh     change    :  -0.4364050E-05 Eh
   gradient norm :     0.0015195 Eh/a0  converged?    E=T G=F D=F
   time step     :     0.6484356 fs     power     :   0.8297825E-10
   step length   :     0.0052533 a0     speed     :   0.1959672E-03

........................................................................
.............................. CYCLE   36 ..............................
........................................................................

 iter      E             dE          RMSdq      gap      omega  full diag
   1  -3478.9576072 -0.347896E+04  0.270E-04   11.41       0.0  T
   2  -3478.9576072 -0.777345E-08  0.156E-04   11.41      11.2  T
   3  -3478.9576072 -0.216914E-09  0.229E-05   11.41      76.5  T
     SCC iter.                  ...        2 min, 52.843 sec
     gradient                   ...        3 min, 59.620 sec
 * total energy  : -3427.6315101 Eh     change    :  -0.5248147E-05 Eh
   gradient norm :     0.0011433 Eh/a0  converged?    E=F G=F D=F
   time step     :     0.7132792 fs     power     :   0.8468812E-10
   step length   :     0.0059869 a0     speed     :   0.2030298E-03

........................................................................
.............................. CYCLE   37 ..............................
........................................................................

 iter      E             dE          RMSdq      gap      omega  full diag
   1  -3478.9600302 -0.347896E+04  0.313E-04   11.41       0.0  T
   2  -3478.9600302 -0.131326E-07  0.182E-04   11.41       9.6  T
   3  -3478.9600302 -0.394266E-09  0.310E-05   11.41      56.5  T
     SCC iter.                  ...        2 min, 53.769 sec
     gradient                   ...        4 min,  0.095 sec
 * total energy  : -3427.6315151 Eh     change    :  -0.5010331E-05 Eh
   gradient norm :     0.0012522 Eh/a0  converged?    E=F G=F D=F
   time step     :     0.7846071 fs     power     :   0.6798241E-10
   step length   :     0.0068905 a0     speed     :   0.2124281E-03

........................................................................
.............................. CYCLE   38 ..............................
........................................................................

 iter      E             dE          RMSdq      gap      omega  full diag
   1  -3478.9610693 -0.347896E+04  0.289E-04   11.41       0.0  T
   2  -3478.9610693 -0.636464E-08  0.170E-04   11.41      10.3  T
   3  -3478.9610693 -0.283308E-09  0.233E-05   11.41      75.1  T
     SCC iter.                  ...        2 min, 48.120 sec
     gradient                   ...        3 min, 59.685 sec
 * total energy  : -3427.6315204 Eh     change    :  -0.5358823E-05 Eh
   gradient norm :     0.0013516 Eh/a0  converged?    E=F G=F D=F
   time step     :     0.8630678 fs     power     :   0.7301205E-10
   step length   :     0.0077499 a0     speed     :   0.2172018E-03

........................................................................
.............................. CYCLE   39 ..............................
........................................................................

 iter      E             dE          RMSdq      gap      omega  full diag
   1  -3478.9599735 -0.347896E+04  0.317E-04   11.41       0.0  T
   2  -3478.9599735 -0.104792E-07  0.184E-04   11.41       9.5  T
   3  -3478.9599735 -0.321052E-09  0.308E-05   11.41      56.9  T
     SCC iter.                  ...        2 min, 52.410 sec
     gradient                   ...        3 min, 59.900 sec
 * total energy  : -3427.6315268 Eh     change    :  -0.6378405E-05 Eh
   gradient norm :     0.0010527 Eh/a0  converged?    E=F G=F D=F
   time step     :     0.9493746 fs     power     :   0.7531642E-10
   step length   :     0.0087966 a0     speed     :   0.2241256E-03

........................................................................
.............................. CYCLE   40 ..............................
........................................................................

 iter      E             dE          RMSdq      gap      omega  full diag
   1  -3478.9584707 -0.347896E+04  0.327E-04   11.41       0.0  T
   2  -3478.9584707 -0.103773E-07  0.190E-04   11.41       9.2  T
   3  -3478.9584707 -0.370164E-09  0.270E-05   11.41      64.9  T
     SCC iter.                  ...        2 min, 53.464 sec
     gradient                   ...        3 min, 59.259 sec
 * total energy  : -3427.6315331 Eh     change    :  -0.6301350E-05 Eh
   gradient norm :     0.0013231 Eh/a0  converged?    E=F G=F D=F
   time step     :     1.0443120 fs     power     :   0.6557781E-10
   step length   :     0.0100725 a0     speed     :   0.2333050E-03

........................................................................
.............................. CYCLE   41 ..............................
........................................................................

 iter      E             dE          RMSdq      gap      omega  full diag
   1  -3478.9595359 -0.347896E+04  0.320E-04   11.41       0.0  T
   2  -3478.9595359 -0.453292E-08  0.187E-04   11.41       9.4  T
   3  -3478.9595359 -0.382897E-09  0.133E-05   11.41     131.7  T
     SCC iter.                  ...        2 min, 51.490 sec
     gradient                   ...        4 min,  0.701 sec
 * total energy  : -3427.6315411 Eh     change    :  -0.8000693E-05 Eh
   gradient norm :     0.0011810 Eh/a0  converged?    E=F G=F D=F
   time step     :     1.1487432 fs     power     :   0.8417470E-10
   step length   :     0.0113831 a0     speed     :   0.2396917E-03

........................................................................
.............................. CYCLE   42 ..............................
........................................................................

 iter      E             dE          RMSdq      gap      omega  full diag
   1  -3478.9620484 -0.347896E+04  0.401E-04   11.41       0.0  T
   2  -3478.9620484 -0.192749E-07  0.233E-04   11.41       7.5  T
   3  -3478.9620484 -0.643922E-09  0.342E-05   11.41      51.2  T
     SCC iter.                  ...        2 min, 50.376 sec
     gradient                   ...        4 min,  3.123 sec
 * total energy  : -3427.6315501 Eh     change    :  -0.9006524E-05 Eh
   gradient norm :     0.0012401 Eh/a0  converged?    E=F G=F D=F
   time step     :     1.2500000 fs     power     :   0.7926968E-10
   step length   :     0.0130528 a0     speed     :   0.2525860E-03
 * RMSD in coord.:     0.0016644 a0     energy gain  -0.8998529E-04 Eh

........................................................................
.............................. CYCLE   43 ..............................
........................................................................

 iter      E             dE          RMSdq      gap      omega  full diag
   1  -3478.9621035 -0.347896E+04  0.625E-05   11.41       0.0  T
   2  -3478.9621035 -0.832188E-10  0.368E-05   11.41      47.7  T
   3  -3478.9621035 -0.140972E-10  0.214E-06   11.41     820.3  T
     SCC iter.                  ...        2 min, 55.282 sec
     gradient                   ...        3 min, 59.337 sec
 * total energy  : -3427.6315519 Eh     change    :  -0.1736998E-05 Eh
   gradient norm :     0.0012607 Eh/a0  converged?    E=T G=F D=F
   time step     :     0.2500000 fs     power     :   0.9067457E-10
   step length   :     0.0025209 a0     speed     :   0.2439117E-03

........................................................................
.............................. CYCLE   44 ..............................
........................................................................

 iter      E             dE          RMSdq      gap      omega  full diag
   1  -3478.9617522 -0.347896E+04  0.630E-05   11.41       0.0  T
   2  -3478.9617522 -0.301952E-09  0.367E-05   11.41      47.7  T
   3  -3478.9617522 -0.727596E-11  0.458E-06   11.41     382.4  T
     SCC iter.                  ...        2 min, 51.157 sec
     gradient                   ...        3 min, 58.804 sec
 * total energy  : -3427.6315538 Eh     change    :  -0.1918150E-05 Eh
   gradient norm :     0.0011714 Eh/a0  converged?    E=T G=F D=F
   time step     :     0.2500000 fs     power     :   0.1000265E-09
   step length   :     0.0024594 a0     speed     :   0.2379644E-03

........................................................................
.............................. CYCLE   45 ..............................
........................................................................

 iter      E             dE          RMSdq      gap      omega  full diag
   1  -3478.9610831 -0.347896E+04  0.747E-05   11.41       0.0  T
   2  -3478.9610831 -0.859927E-09  0.433E-05   11.41      40.4  T
   3  -3478.9610831 -0.454747E-11  0.794E-06   11.41     220.5  T
     SCC iter.                  ...        2 min, 50.423 sec
     gradient                   ...        3 min, 59.944 sec
 * total energy  : -3427.6315558 Eh     change    :  -0.1995233E-05 Eh
   gradient norm :     0.0010231 Eh/a0  converged?    E=T G=F D=F
   time step     :     0.2500000 fs     power     :   0.1027453E-09
   step length   :     0.0024309 a0     speed     :   0.2352073E-03

........................................................................
.............................. CYCLE   46 ..............................
........................................................................

 iter      E             dE          RMSdq      gap      omega  full diag
   1  -3478.9602342 -0.347896E+04  0.850E-05   11.41       0.0  T
   2  -3478.9602342 -0.132286E-08  0.493E-05   11.41      35.5  T
   3  -3478.9602342 -0.104137E-09  0.103E-05   11.41     169.8  T
     SCC iter.                  ...        2 min, 55.850 sec
     gradient                   ...        4 min,  0.888 sec
 * total energy  : -3427.6315577 Eh     change    :  -0.1958033E-05 Eh
   gradient norm :     0.0009107 Eh/a0  converged?    E=T G=T D=F
   time step     :     0.2500000 fs     power     :   0.9898263E-10
   step length   :     0.0024312 a0     speed     :   0.2352297E-03

   *** GEOMETRY OPTIMIZATION CONVERGED AFTER 46 CYCLES ***

------------------------------------------------------------------------
 total energy gain   :        -0.0004241 Eh       -0.2661 kcal/mol
 total RMSD          :         0.0020622 a0        0.0011 Å
 total power (kW/mol):        -0.0242039 (step)   -0.0001 (real)
------------------------------------------------------------------------

 FIRE (total)                  0 d,  5 h, 30 min, 50.527 sec
 setup                          ...        0 min,  0.120 sec (  0.001%)
 velocities                     ...        0 min,  0.003 sec (  0.000%)
 propagation                    ...        0 min,  0.006 sec (  0.000%)
 singlepoint calculation        ...      330 min, 49.570 sec ( 99.995%)
 log and printout               ...        0 min,  0.763 sec (  0.004%)
 preconditioner                 ...        0 min,  0.000 sec (  0.000%)
 model hessian                  ...        0 min,  0.000 sec (  0.000%)
 hessian update                 ...        0 min,  0.000 sec (  0.000%)

================
 final structure:
================
3258
 xtb: 6.6.1 (8d0f1dd)
C           94.26916862661456      121.51276890240231       97.55907912785196
C           95.59819379610404      120.83132196067614       97.86122883126058
C           95.44917607792516      119.31545464872515       97.97084524061040
C           96.76541921571761      118.63157754012882       98.33295746569846
C           96.62751630355346      117.11175772200717       98.39988060669313
C           97.92291772976262      116.43840411863837       98.84728990684887
C           97.81676862752636      114.91493977178472       98.85548152435985
C           99.09051124808700      114.25837413556097       99.38358205983165
C           99.02304578426629      112.73363621726102       99.33392437117287
C          100.26910127419096      112.08635848548298       99.93445745139773
C          100.24263103718425      110.56381794235054       99.82052928489912
C          101.47943597263179      109.91988626901518      100.44353425453001
C          101.48085790531985      108.40040121840664      100.29036542387102
C          102.70675905834597      107.76038572874535      100.93841917310499
C          102.74477342893641      106.24661302804077      100.74000566780448
C          103.95890731676057      105.61155789487759      101.41471600701493
C          104.04661170323065      104.10840674499713      101.15981455551626
C          105.25768980568510      103.48309840649387      101.84878772548805
C          105.39950959961214      101.99390017656910      101.54210234347036
C          106.62722595212365      101.39025142990066      102.22036291205967
C          106.84467907919168       99.92657576854364      101.84428260867504
C          108.12891923001992       99.36909907825488      102.45435191430487
C          108.45682002943941       97.96683859570624      101.94668300330122
C          109.82205182519148       97.49357471627654      102.44072103371633
C          110.16203928397628       96.06006303602723      102.03245045468385
C          110.21557376289618       95.80857731031334      100.52445501711327
C          111.28994550218904       96.61536719453230       99.79547254103989
C          111.42991691041352       96.15567689616385       98.34437381841332
C          112.60701528586753       96.78881940570400       97.59922712857451
C          112.36886496752733       98.22436549231109       97.12964415313466
C          113.58944954763348       98.73722051939460       96.36585870930813
C          113.46454718175001      100.17295339538637       95.85004599529806
C          113.71275734279915      101.22510858142371       96.92847571232390
C          113.66828089274682      102.64457627712693       96.36642326919822
C          113.89698227469056      103.70703655862420       97.43991805687119
C          113.85020702871981      105.11937603976061       96.86115069510247
C          113.98907559864547      106.20646319590020       97.92575000224120
C          114.02300856420585      107.60638720934421       97.31271290176865
C          113.97623118292377      108.71167637254356       98.36584186381354
C          114.08956392256411      110.10313681802907       97.74505485715319
C          113.84632838983158      111.22043821629960       98.75974262745740
C          114.16913910937581      112.59088769772441       98.16959839872109
C          113.88929007467979      113.76041041451053       99.11472112475495
C          112.40306502755425      114.08688624244193       99.24186912720747
C          112.13283911788676      115.38207232033660      100.00916587047944
C          112.50143681943216      115.28963604193812      101.48729858845618
C          112.08948808360404      116.53144208661865      102.27527050600185
C          112.36580800978135      116.35337143199239      103.76570869902893
C          111.95953907271704      117.56150502924473      104.60568943426048
C          112.13938552853135      117.28079362521400      106.09576758058422
C          111.76472735881755      118.46797111472969      106.97810258163480
C          111.90826561101862      118.13424443171235      108.46150583516514
C          111.53508807795691      119.31008779068505      109.35921872782103
C          111.72048889757487      118.99578783871932      110.84255916616327
C          111.25249053525955      120.15340736053824      111.71927625244477
C          111.50134211411604      119.93420433409628      113.21069342842758
C          110.90592656459576      121.08670869963113      114.01529816789228
C          111.10760007830103      120.99915726730802      115.52784473828521
C          112.49025671978843      121.44397465586400      115.99994283631334
C          112.50189598867935      121.72432128140387      117.50211872082060
C          113.86452082822801      122.20699439549647      117.99026319261549
C          113.86212130802701      122.58267480335066      119.46995742890182
C          115.26502202365123      122.91689703227024      119.97157730978445
C          115.26636214506647      123.42594846353666      121.41096652604186
C          116.68307292624574      123.56173421856276      121.96421324233114
C          116.70833710350276      124.23663304643880      123.33500322728862
C          118.08939603057433      124.18334699726253      124.00394173334048
C          118.20965296678673      123.11076046112053      125.08896869124119
C          117.97560738266675      121.69138276013436      124.57991428646564
C          118.24727649436871      120.64084748524647      125.65486395040334
C          117.86176385156537      119.24068516391603      125.18351335296940
C          118.15585605475309      118.17428102706110      126.23644744355838
C          117.73749835409635      116.76669540212650      125.80518143916281
C          116.22281666417167      116.62175482524248      125.67826739681657
C          115.77884431389897      115.18505259546968      125.41345234186453
C          114.28804442000128      115.07715024248496      125.08344055283047
C          113.38365802473081      115.51698404234276      126.23258674031203
C          111.90238166613649      115.39519622094031      125.87913524951983
C          110.97557339630971      115.75947353234491      127.04165949368968
C          111.08867205750336      117.22320290274581      127.46313114090921
C          110.12789127765868      117.58281838231683      128.59514210344901
C          110.38448337947121      118.97702343096560      129.17316125118691
C          110.01916628535471      120.10583122939772      128.21264837311767
C          110.31635161497229      121.48766490872679      128.79375569144392
C          109.89777207311637      122.58818128862110      127.82295145039228
C          110.25372945519260      123.99827245837858      128.28769834151268
C          109.78701279714241      125.02996183522335      127.26265007272221
C          110.27254498056334      126.44840918298102      127.55249420405295
C          109.98655202918097      127.37227041129560      126.36966799153998
C          110.62574141826281      128.75666799160905      126.50419783835682
C          110.89041498026705      129.40838794291136      125.14254702339271
C          112.09139653397170      128.77832002074439      124.43887343204104
C          112.31852255703093      129.29128893046868      123.01909645428248
C          113.48448864721124      128.54722580517617      122.36981278608472
C          113.84106686779683      129.03348566220970      120.96502800112728
C          112.74113611020594      128.85319240523953      119.91713160940824
C          112.26795779403776      127.40799154380709      119.76842449235711
C          111.41619843766108      127.21516299324277      118.51462139332855
C          110.77124436858143      125.83277609850660      118.48038761643090
C          109.85963405689331      125.60910916163628      117.27478228320840
C          110.61012750137581      125.50647061634909      115.94995558150352
C          109.70065884706722      125.02671877530067      114.82138149420132
C          110.43581430360466      124.97127548479583      113.48562339220909
C          109.59591011474643      124.33437633772546      112.38201490374348
C          110.38379629049636      124.20307444530540      111.08159025912103
C          109.58348953131880      123.51704269526732      109.97899306391537
C          110.41541352521357      123.30770309184101      108.71622838030441
C          109.60878112496023      122.64497806339708      107.60357803005913
C          110.44933799340600      122.36365334768151      106.36113064666323
C          109.60946490579973      121.77370099884837      105.23136424631697
C          110.45041240958443      121.38651809072068      104.01839137069092
C          109.59241463027199      120.86345777170082      102.86893778165771
C          110.43662824785069      120.36056558058242      101.70130250839946
C          109.58438022672074      119.87082454029607      100.53305281011019
C          110.43509168603286      119.26977919808259       99.41683354942791
C          109.59617982535333      118.76228099481477       98.24727239707593
C          110.45432932439202      118.08176945449031       97.18359487016342
C          109.62218399888346      117.56357227697595       96.01319691444978
C          110.47063417552785      116.81243829426943       94.98999240742003
C          109.61699560623056      116.20378068681467       93.88431430219786
H          111.20200941364230      117.49633659990462       94.55373330172382
H          111.02629089692044      116.01859362821344       95.49603072480947
H          108.84655201209806      116.89271806892961       96.39163909617797
H          109.11907606208220      118.40047824570352       95.52334574475400
H          111.20085981421845      118.78811865134496       96.81272616687581
H          110.99034749677971      117.24545639334796       97.63983852284676
H          108.85820517062609      118.04745509440039       98.61965390298722
H          109.04974210553038      119.59520244063884       97.79930698433515
H          111.13701656258044      120.02198076896315       99.05211014715718
H          111.01816171260892      118.43827204899705       99.82113092495997
H          108.88185550230364      119.11614389160202      100.89523045595217
H          108.99595715616927      120.70116695958549      100.13705519913609
H          111.09252220149253      121.16305259217981      101.35784689408669
H          111.06881283530302      119.53985290732575      102.04937166837117
H          108.96535618332720      120.04631196714341      103.23476707845843
H          108.92606454258419      121.65644342746519      102.52266803164522
H          111.01992867808111      122.25439884536479      103.67873578074453
H          111.16620694723528      120.61589357607232      104.31289823193956
H          109.08773175708659      120.88694161113465      105.60123801423683
H          108.84941920334133      122.49808535656368      104.93029477205508
H          110.91499831082196      123.29101408009906      106.01942039095853
H          111.25033830347027      121.66760968488542      106.61955064286960
H          109.19457154220409      121.70364241798978      107.97449900572367
H          108.76907964567553      123.28937396912670      107.33406248716018
H          110.79097849216816      124.27205695528157      108.36554713501454
H          111.28052852633878      122.68490126820164      108.95561459433218
H          109.23455488165129      122.54671027892802      110.34137682915105
H          108.70284691753704      124.11768898646524      109.74135633069689
H          110.69380813750362      125.19438055875382      110.74128988495055
H          111.29027760925437      123.62381401172928      111.27451451631001
H          109.27406286987080      123.34156621220281      112.70457297060656
H          108.69804400202929      124.93218819350120      112.21339521245166
H          110.72534557320991      125.98164200590834      113.18612450849128
H          111.35602548542201      124.39436823154155      113.61069056748386
H          109.32676035238522      124.02851810541335      115.06367629016898
H          108.83740937200973      125.69044551325665      114.73845047974375
H          111.03018549992623      126.47833237459946      115.68430437296030
H          111.44069624533225      124.80447311436362      116.06016764897153
H          109.30291547850531      124.68103087629177      117.42869351769137
H          109.12931544370646      126.41845950947300      117.21615987581916
H          111.55530494567793      125.07050524464726      118.48441528634628
H          110.18032762069423      125.70547171404971      119.39151583317215
H          110.63044018817709      127.97235105034044      118.49176616696872
H          112.04120887879706      127.35754491023083      117.63114258792571
H          113.13520152044980      126.74442014890725      119.71915183733660
H          111.67968020959307      127.12241366660668      120.64307379287992
H          111.88917100478710      129.49016930352749      120.16295515069395
H          113.13363494643818      129.19597054553506      118.95590387154702
H          114.10444459842320      130.09298189755040      121.01344175142364
H          114.72956554262538      128.48964731630687      120.63256698140019
H          114.36719510130089      128.66684800033184      123.00417754406377
H          113.25258725807599      127.48080610844058      122.33795282708230
H          111.40968218577036      129.14207305907010      122.43350823187136
H          112.52972143128002      130.36270853940869      123.03879656533815
H          112.98947506778472      128.96701893806429      125.03284664489986
H          111.95690431393280      127.69662573997830      124.38641825450902
H          110.00076150528824      129.30882188413094      124.51707849799294
H          111.07938239802930      130.47517808365237      125.28135974294480
H          109.97547996879769      129.40117080588530      127.09889773086337
H          111.57354079837543      128.67114354996536      127.04108952380615
H          110.36837069155810      126.89003680410752      125.46820331626746
H          108.90746271180831      127.47840954176300      126.24181982349803
H          109.79572670907191      126.83365571663012      128.45612122732749
H          111.34974558191657      126.42427887111585      127.73321675386163
H          110.16104439805684      124.73150613696620      126.28045776244286
H          108.69605950284537      125.02008448152917      127.21149170299942
H          109.79214947189288      124.19883556684337      129.25674569227138
H          111.33655832458606      124.07645383364893      128.41514137173857
H          110.38227303366047      122.40682678318724      126.85934099060790
H          108.81932741782246      122.52928885458560      127.66303827172328
H          109.78421400964481      121.61170972454259      129.73958212675882
H          111.38567803031769      121.56945973753784      129.00305373622854
H          110.57649805793015      119.99224230982598      127.28144558901602
H          108.95596017423595      120.03905557896192      127.97065236216392
H          109.79906023997717      119.09323335077652      130.08860679381525
H          111.43931920121838      119.06208295707091      129.44658733806176
H          109.09726701951193      117.52034746255136      128.23793718667167
H          110.24330158158044      116.84815218204204      129.39610107411920
H          112.10632984668243      117.42130718046724      127.80306062152383
H          110.88966595075220      117.85491656145923      126.59546904382721
H          109.94316670378183      115.55524915014266      126.74623551097346
H          111.20565495883957      115.11947129174465      127.89693164607161
H          111.68357656711619      116.04223749472955      125.02599629366901
H          111.69237456158119      114.36692469001362      125.57328257715332
H          113.59623357807109      114.90562149137099      127.11286192259364
H          113.60317966769128      116.55443350910788      126.48001183409998
H          114.06896169202345      115.68612706083763      124.20246970160029
H          114.05952639788180      114.04017402923544      124.82968615221334
H          116.35437325600557      114.78895722669245      124.57254328376892
H          116.00360958639254      114.56718295186739      126.28597654240583
H          115.76319340420007      116.97979217084996      126.60099713139236
H          115.86767153824702      117.24897878927518      124.85867134532415
H          118.20882724840486      116.52320043569232      124.85039521120005
H          118.10014837070466      116.04978961525363      126.54642519191745
H          119.22790547663196      118.17593158163591      126.45120831792919
H          117.63794681568228      118.43253144488013      127.16372097241010
H          116.79765222012789      119.23909487771614      124.94371855987929
H          118.40599193997028      119.00152771010956      124.26688598484164
H          119.30609173292801      120.66188882091907      125.92455103064384
H          117.67550815441554      120.88489349134603      126.55386316463985
H          116.94330269328313      121.58877000066798      124.23989536666159
H          118.62901074246511      121.50555622221310      123.72489508521399
H          119.21089250222997      123.16827746481178      125.52391871733585
H          117.49605466012609      123.32966068210656      125.88802639256093
H          118.85299599660281      124.01015616415744      123.24230018667306
H          118.30677088673592      125.14841538133425      124.46676645669913
H          116.40020024366675      125.27696409019094      123.20938044878820
H          115.97220113169816      123.76292928742789      123.98599701849615
H          117.13061863796329      122.56873776532083      122.03276678984822
H          117.28892228831548      124.14934276358238      121.26940097339542
H          114.76280107014315      124.39461074485811      121.45258093026101
H          114.70019353176765      122.73549096024917      122.04105275306097
H          115.89255190031140      122.02447929027647      119.90469604825563
H          115.70661194160179      123.67687063769452      119.32263693206407
H          113.20739959727166      123.44335301856214      119.62399984549511
H          113.45529298642106      121.75517536255309      120.05702485011845
H          114.60574160370682      121.42180906955197      117.82278130489854
H          114.16991614478667      123.07593180855041      117.40285690965069
H          111.75203815022216      122.48680202164562      117.72596714093035
H          112.21973215491596      120.81860629385284      118.04421025614707
H          113.23263538931823      120.67840839325393      115.76341230382093
H          112.77445485059808      122.35660789915322      115.46954092119122
H          110.36977156212318      121.64741524725103      116.00425295341628
H          110.91722326813563      119.97855267944047      115.86703883517738
H          111.33014683281277      122.02630011503091      113.65538472140226
H          109.83362248990733      121.11385061526569      113.81149396888922
H          111.04317303806154      118.99334844139875      113.52495312866185
H          112.57380356988642      119.85299693559094      113.39861710869624
H          111.76182460058338      121.06765424010703      111.40612762622905
H          110.18248892608256      120.30605785720107      111.55884549565828
H          111.15324747129401      118.09659066436041      111.09598379294191
H          112.77331697537662      118.78276440484881      111.04088234403598
H          112.15305012238721      120.17261863359765      109.09609805075550
H          110.49434410486191      119.58730746450384      109.17661009189047
H          111.26553283173834      117.28248918929104      108.70072241468070
H          112.93864861083777      117.83444175269722      108.66558799139335
H          112.41182592884779      119.31496482482663      106.73569204670650
H          110.73512743390130      118.76814483622356      106.77002987769552
H          111.52043907587210      116.42212196262311      106.37122084231019
H          113.18064760181163      117.01030773700020      106.28578116480813
H          112.56959577735708      118.42276492867813      104.32105544999234
H          110.91518347647416      117.81285655374177      104.40549738755934
H          111.82215157410874      115.47391768796123      104.12189663355959
H          113.43153457158989      116.16185668040058      103.91093799986358
H          112.63911746910800      117.39943718972279      101.90123137980214
H          111.02404649173731      116.72345762228565      102.12427026081400
H          112.01183167253743      114.41432739063748      101.92226648280089
H          113.57883188141379      115.14925397354688      101.58722908666616
H          112.69107998560470      116.20023126527225       99.54595463017530
H          111.06907372353430      115.62239317007850       99.92561905615435
H          111.98329384758830      114.18621148576926       98.23774555560183
H          111.88569346559069      113.26388222335294       99.73947499533227
H          114.30490394287978      113.53362089670874      100.09764810671787
H          114.40085452420057      114.64611453962129       98.73253993643694
H          115.22742919967862      112.60359010893056       97.90091796874331
H          113.59473903497468      112.72970345156143       97.25058286848555
H          112.80407854911915      111.19285469382064       99.08260868834772
H          114.46990397030021      111.05411217173821       99.64070259204649
H          115.08630146097158      110.21896947276008       97.31246313630018
H          113.36720591586841      110.19709184948057       96.93044024754508
H          113.03591919382556      108.63692678908548       98.91869727941000
H          114.78909747184687      108.57046925264747       99.08111002039948
H          114.93000277575740      107.71564225385217       96.71363003106148
H          113.17010593412913      107.72587658882929       96.64036461948336
H          113.14726601154200      106.13615543402302       98.62048988812157
H          114.90357718439174      106.04220380872457       98.50057010378744
H          114.65164592678263      105.23060745217242       96.12746021212224
H          112.90038126356755      105.25339639587943       96.33860817750192
H          113.12777556841235      103.60752379157688       98.21015211236376
[...]
  3011   6 C     3012   6 C                                       1.5266102
  3012   6 C     3013   6 C                                       1.5256288
  3013   6 C     3014   6 C                                       1.5266518
  3014   6 C     3015   6 C                                       1.5258054
  3015   6 C     3016   6 C                                       1.5235017
  3015   6 C     3017   1 H                                       1.0900219
  3015   6 C     3018   1 H                                       1.0913640
  3014   6 C     3019   1 H                                       1.0929379
  3014   6 C     3020   1 H                                       1.0929752
  3013   6 C     3021   1 H                                       1.0920603
  3013   6 C     3022   1 H                                       1.0921550
  3012   6 C     3023   1 H                                       1.0925517
  3012   6 C     3024   1 H                                       1.0930328
  3011   6 C     3025   1 H                                       1.0924405
  3011   6 C     3026   1 H                                       1.0924170
  3010   6 C     3027   1 H                                       1.0924724
  3010   6 C     3028   1 H                                       1.0932609
  3009   6 C     3029   1 H                                       1.0927078
  3009   6 C     3030   1 H                                       1.0916203
  3008   6 C     3031   1 H                                       1.0925054
  3008   6 C     3032   1 H                                       1.0932546
  3007   6 C     3033   1 H                                       1.0916284
  3007   6 C     3034   1 H                                       1.0930543
  3006   6 C     3035   1 H                                       1.0920293
  3006   6 C     3036   1 H                                       1.0928698
  3005   6 C     3037   1 H                                       1.0909467
  3005   6 C     3038   1 H                                       1.0921893
  3004   6 C     3039   1 H                                       1.0930276
  3004   6 C     3040   1 H                                       1.0912685
  3003   6 C     3041   1 H                                       1.0916480
  3003   6 C     3042   1 H                                       1.0922259
  3002   6 C     3043   1 H                                       1.0932431
  3002   6 C     3044   1 H                                       1.0927890
  3001   6 C     3045   1 H                                       1.0917382
  3001   6 C     3046   1 H                                       1.0913137
  3000   6 C     3047   1 H                                       1.0928962
  3000   6 C     3048   1 H                                       1.0922961
  2999   6 C     3049   1 H                                       1.0926037
  2999   6 C     3050   1 H                                       1.0917384
  2998   6 C     3051   1 H                                       1.0915119
  2998   6 C     3052   1 H                                       1.0931772
  2997   6 C     3053   1 H                                       1.0934991
  2997   6 C     3054   1 H                                       1.0929624
  2996   6 C     3055   1 H                                       1.0907589
  2996   6 C     3056   1 H                                       1.0928242
  2995   6 C     3057   1 H                                       1.0935142
  2995   6 C     3058   1 H                                       1.0929014
  2994   6 C     3059   1 H                                       1.0909037
  2994   6 C     3060   1 H                                       1.0924181
  2993   6 C     3061   1 H                                       1.0933901
  2993   6 C     3062   1 H                                       1.0926635
  2992   6 C     3063   1 H                                       1.0916489
  2992   6 C     3064   1 H                                       1.0933514
  2991   6 C     3065   1 H                                       1.0925250
  2991   6 C     3066   1 H                                       1.0916309
  2990   6 C     3067   1 H                                       1.0930205
  2990   6 C     3068   1 H                                       1.0926880
  2989   6 C     3069   1 H                                       1.0924814
  2989   6 C     3070   1 H                                       1.0920788
  2988   6 C     3071   1 H                                       1.0930326
  2988   6 C     3072   1 H                                       1.0924659
  2987   6 C     3073   1 H                                       1.0932317
  2987   6 C     3074   1 H                                       1.0907782
  2986   6 C     3075   1 H                                       1.0926088
  2986   6 C     3076   1 H                                       1.0927226
  2985   6 C     3077   1 H                                       1.0929998
  2985   6 C     3078   1 H                                       1.0929276
  2984   6 C     3079   1 H                                       1.0911578
  2984   6 C     3080   1 H                                       1.0927671
  2983   6 C     3081   1 H                                       1.0927368
  2983   6 C     3082   1 H                                       1.0924489
  2982   6 C     3083   1 H                                       1.0932024
  2982   6 C     3084   1 H                                       1.0928684
  2981   6 C     3085   1 H                                       1.0926922
  2981   6 C     3086   1 H                                       1.0924672
  2980   6 C     3087   1 H                                       1.0918111
  2980   6 C     3088   1 H                                       1.0917893
  2979   6 C     3089   1 H                                       1.0917455
  2979   6 C     3090   1 H                                       1.0930042
  2978   6 C     3091   1 H                                       1.0934479
  2978   6 C     3092   1 H                                       1.0924711
  2977   6 C     3093   1 H                                       1.0921986
  2977   6 C     3094   1 H                                       1.0921325
  2976   6 C     3095   1 H                                       1.0932922
  2976   6 C     3096   1 H                                       1.0915193
  2975   6 C     3097   1 H                                       1.0920610
  2975   6 C     3098   1 H                                       1.0928830
  2974   6 C     3099   1 H                                       1.0930793
  2974   6 C     3100   1 H                                       1.0927922
  2973   6 C     3101   1 H                                       1.0916279
  2973   6 C     3102   1 H                                       1.0925223
  2972   6 C     3103   1 H                                       1.0921780
  2972   6 C     3104   1 H                                       1.0926912
  2971   6 C     3105   1 H                                       1.0921875
  2971   6 C     3106   1 H                                       1.0903945
  2970   6 C     3107   1 H                                       1.0927707
  2970   6 C     3108   1 H                                       1.0936643
  2969   6 C     3109   1 H                                       1.0926193
  2969   6 C     3110   1 H                                       1.0911800
  2968   6 C     3111   1 H                                       1.0909590
  2968   6 C     3112   1 H                                       1.0921386
  2967   6 C     3113   1 H                                       1.0921200
  2967   6 C     3114   1 H                                       1.0921545
  2966   6 C     3115   1 H                                       1.0924851
  2966   6 C     3116   1 H                                       1.0933790
  2965   6 C     3117   1 H                                       1.0921789
  2965   6 C     3118   1 H                                       1.0919989
  2964   6 C     3119   1 H                                       1.0922504
  2964   6 C     3120   1 H                                       1.0933302
  2963   6 C     3121   1 H                                       1.0920482
  2963   6 C     3122   1 H                                       1.0929083
  2962   6 C     3123   1 H                                       1.0920972
  2962   6 C     3124   1 H                                       1.0931176
  2961   6 C     3125   1 H                                       1.0920918
  2961   6 C     3126   1 H                                       1.0915487
  2960   6 C     3127   1 H                                       1.0922618
  2960   6 C     3128   1 H                                       1.0930721
  2959   6 C     3129   1 H                                       1.0919945
  2959   6 C     3130   1 H                                       1.0930422
  2958   6 C     3131   1 H                                       1.0921924
  2958   6 C     3132   1 H                                       1.0930286
  2957   6 C     3133   1 H                                       1.0919312
  2957   6 C     3134   1 H                                       1.0918979
  2956   6 C     3135   1 H                                       1.0926282
  2956   6 C     3136   1 H                                       1.0929173
  2955   6 C     3137   1 H                                       1.0916474
  2955   6 C     3138   1 H                                       1.0930625
  2954   6 C     3139   1 H                                       1.0924118
  2954   6 C     3140   1 H                                       1.0927883
  2953   6 C     3141   1 H                                       1.0918376
  2953   6 C     3142   1 H                                       1.0917096
  2952   6 C     3143   1 H                                       1.0913463
  2952   6 C     3144   1 H                                       1.0928171
  2951   6 C     3145   1 H                                       1.0922929
  2951   6 C     3146   1 H                                       1.0912825
  2950   6 C     3147   1 H                                       1.0916976
  2950   6 C     3148   1 H                                       1.0932288
  2949   6 C     3149   1 H                                       1.0905328
  2949   6 C     3150   1 H                                       1.0926078
  2948   6 C     3151   1 H                                       1.0935323
  2948   6 C     3152   1 H                                       1.0919636
  2947   6 C     3153   1 H                                       1.0930561
  2947   6 C     3154   1 H                                       1.0934001
  2946   6 C     3155   1 H                                       1.0929721
  2946   6 C     3156   1 H                                       1.0903172
  2945   6 C     3157   1 H                                       1.0911389
  2945   6 C     3158   1 H                                       1.0934694
  2944   6 C     3159   1 H                                       1.0930502
  2944   6 C     3160   1 H                                       1.0935764
  2943   6 C     3161   1 H                                       1.0930792
  2943   6 C     3162   1 H                                       1.0909556
  2942   6 C     3163   1 H                                       1.0914937
  2942   6 C     3164   1 H                                       1.0929969
  2941   6 C     3165   1 H                                       1.0929489
  2941   6 C     3166   1 H                                       1.0926866
  2940   6 C     3167   1 H                                       1.0926837
  2940   6 C     3168   1 H                                       1.0931212
  2939   6 C     3169   1 H                                       1.0928304
  2939   6 C     3170   1 H                                       1.0917449
  2938   6 C     3171   1 H                                       1.0926719
  2938   6 C     3172   1 H                                       1.0933461
  2937   6 C     3173   1 H                                       1.0933060
  2937   6 C     3174   1 H                                       1.0929892
  2936   6 C     3175   1 H                                       1.0913406
  2936   6 C     3176   1 H                                       1.0927404
  2935   6 C     3177   1 H                                       1.0931205
  2935   6 C     3178   1 H                                       1.0923178
  2934   6 C     3179   1 H                                       1.0914971
  2934   6 C     3180   1 H                                       1.0933194
  2933   6 C     3181   1 H                                       1.0932041
  2933   6 C     3182   1 H                                       1.0925902
  2932   6 C     3183   1 H                                       1.0928790
  2932   6 C     3184   1 H                                       1.0926359
  2931   6 C     3185   1 H                                       1.0926126
  2931   6 C     3186   1 H                                       1.0910476
  2930   6 C     3187   1 H                                       1.0919132
  2930   6 C     3188   1 H                                       1.0927109
  2929   6 C     3189   1 H                                       1.0917883
  2929   6 C     3190   1 H                                       1.0910985
  2928   6 C     3191   1 H                                       1.0925343
  2928   6 C     3192   1 H                                       1.0931280
  2927   6 C     3193   1 H                                       1.0929976
  2927   6 C     3194   1 H                                       1.0918146
  2926   6 C     3195   1 H                                       1.0904051
  2926   6 C     3196   1 H                                       1.0924443
  2925   6 C     3197   1 H                                       1.0933992
  2925   6 C     3198   1 H                                       1.0932890
  2924   6 C     3199   1 H                                       1.0928773
  2924   6 C     3200   1 H                                       1.0935865
  2923   6 C     3201   1 H                                       1.0922607
  2923   6 C     3202   1 H                                       1.0917593
  2922   6 C     3203   1 H                                       1.0915416
  2922   6 C     3204   1 H                                       1.0928574
  2921   6 C     3205   1 H                                       1.0915882
  2921   6 C     3206   1 H                                       1.0923059
  2920   6 C     3207   1 H                                       1.0922719
  2920   6 C     3208   1 H                                       1.0924186
  2919   6 C     3209   1 H                                       1.0924469
  2919   6 C     3210   1 H                                       1.0923013
  2918   6 C     3211   1 H                                       1.0917435
  2918   6 C     3212   1 H                                       1.0921489
  2917   6 C     3213   1 H                                       1.0930720
  2917   6 C     3214   1 H                                       1.0922899
  2916   6 C     3215   1 H                                       1.0930790
  2916   6 C     3216   1 H                                       1.0921655
  2915   6 C     3217   1 H                                       1.0930642
  2915   6 C     3218   1 H                                       1.0920052
  2914   6 C     3219   1 H                                       1.0924111
  2914   6 C     3220   1 H                                       1.0922631
  2913   6 C     3221   1 H                                       1.0926058
  2913   6 C     3222   1 H                                       1.0925062
  2912   6 C     3223   1 H                                       1.0934554
  2912   6 C     3224   1 H                                       1.0923510
  2911   6 C     3225   1 H                                       1.0921420
  2911   6 C     3226   1 H                                       1.0917412
  2910   6 C     3227   1 H                                       1.0928728
  2910   6 C     3228   1 H                                       1.0930463
  2909   6 C     3229   1 H                                       1.0918429
  2909   6 C     3230   1 H                                       1.0925418
  2908   6 C     3231   1 H                                       1.0933595
  2908   6 C     3232   1 H                                       1.0932834
  2907   6 C     3233   1 H                                       1.0922921
  2907   6 C     3234   1 H                                       1.0922516
  2906   6 C     3235   1 H                                       1.0909420
  2906   6 C     3236   1 H                                       1.0933521
  2905   6 C     3237   1 H                                       1.0921541
  2905   6 C     3238   1 H                                       1.0922410
  2904   6 C     3239   1 H                                       1.0925553
  2904   6 C     3240   1 H                                       1.0919941
  2903   6 C     3241   1 H                                       1.0928917
  2903   6 C     3242   1 H                                       1.0912025
  2902   6 C     3243   1 H                                       1.0924926
  2902   6 C     3244   1 H                                       1.0923703
  2901   6 C     3245   1 H                                       1.0931137
  2901   6 C     3246   1 H                                       1.0930042
  2900   6 C     3247   1 H                                       1.0924300
  2900   6 C     3248   1 H                                       1.0926291
  2899   6 C     3249   1 H                                       1.0927412
  2899   6 C     3250   1 H                                       1.0930647
  2898   6 C     3251   1 H                                       1.0921473
  2898   6 C     3252   1 H                                       1.0924976
  2897   6 C     3253   1 H                                       1.0879518
  2897   6 C     3254   1 H                                       1.0878512
  2897   6 C     3255   1 H                                       1.0878571
  3016   6 C     3256   1 H                                       1.0879846
  3016   6 C     3257   1 H                                       1.0883175
  3016   6 C     3258   1 H                                       1.0882699

 * 2 distinct bonds (by element types)

   Z      Z             #   av. dist./Å        max./Å        min./Å
   1 H    6 C        2178     1.0923194     1.0942464     1.0866199
   6 C    6 C        1071     1.5273458     1.5371455     1.5207243


optimized geometry written to: xtbopt.xyz


           -------------------------------------------------
          | TOTAL ENERGY            -3427.631557731418 Eh   |
          | GRADIENT NORM               0.000910951984 Eh/α |
          | HOMO-LUMO GAP              11.412990499022 eV   |
           -------------------------------------------------

------------------------------------------------------------------------
 * finished run on 2024/10/04 at 03:14:05.721     
------------------------------------------------------------------------
 total:
 * wall-time:     0 d,  5 h, 52 min, 44.065 sec
 *  cpu-time:     1 d,  6 h, 20 min, 43.236 sec
 * ratio c/w:     5.162 speedup
 SCF:
 * wall-time:     0 d,  0 h, 13 min, 51.695 sec
 *  cpu-time:     0 d,  1 h, 28 min, 10.204 sec
 * ratio c/w:     6.361 speedup
 ANC optimizer:
 * wall-time:     0 d,  5 h, 38 min,  6.491 sec
 *  cpu-time:     1 d,  4 h, 51 min, 30.196 sec
 * ratio c/w:     5.121 speedup

