      -----------------------------------------------------------      
     |                   =====================                   |     
     |                           x T B                           |     
     |                   =====================                   |     
     |                         S. Grimme                         |     
     |          Mulliken Center for Theoretical Chemistry        |     
     |                    University of Bonn                     |     
      -----------------------------------------------------------      

   * xtb version 6.6.1 (8d0f1dd) compiled by 'stahn@M-Bot' on 2023-08-01

   xtb is free software: you can redistribute it and/or modify it under
   the terms of the GNU Lesser General Public License as published by
   the Free Software Foundation, either version 3 of the License, or
   (at your option) any later version.
   
   xtb is distributed in the hope that it will be useful,
   but WITHOUT ANY WARRANTY; without even the implied warranty of
   MERCHANTABILITY or FITNESS FOR A PARTICULAR PURPOSE.  See the
   GNU Lesser General Public License for more details.
   
   Cite this work as:
   * C. Bannwarth, E. Caldeweyher, S. Ehlert, A. Hansen, P. Pracht,
     J. Seibert, S. Spicher, S. Grimme, WIREs Comput. Mol. Sci., 2020, 11,
     e01493. DOI: 10.1002/wcms.1493
   
   for GFN2-xTB:
   * C. Bannwarth, S. Ehlert and S. Grimme., J. Chem. Theory Comput., 2019,
     15, 1652-1671. DOI: 10.1021/acs.jctc.8b01176
   for GFN1-xTB:
   * S. Grimme, C. Bannwarth, P. Shushkov, J. Chem. Theory Comput., 2017,
     13, 1989-2009. DOI: 10.1021/acs.jctc.7b00118
   for GFN0-xTB:
   * P. Pracht, E. Caldeweyher, S. Ehlert, S. Grimme, ChemRxiv, 2019, preprint.
     DOI: 10.26434/chemrxiv.8326202.v1
   for GFN-FF:
   * S. Spicher and S. Grimme, Angew. Chem. Int. Ed., 2020, 59, 15665-15673.
     DOI: 10.1002/anie.202004239
   
   for ALPB and GBSA implicit solvation:
   * S. Ehlert, M. Stahn, S. Spicher, S. Grimme, J. Chem. Theory Comput.,
     2021, 17, 4250-4261. DOI: 10.1021/acs.jctc.1c00471
   
   for DFT-D4:
   * E. Caldeweyher, C. Bannwarth and S. Grimme, J. Chem. Phys., 2017,
     147, 034112. DOI: 10.1063/1.4993215
   * E. Caldeweyher, S. Ehlert, A. Hansen, H. Neugebauer, S. Spicher,
     C. Bannwarth and S. Grimme, J. Chem. Phys., 2019, 150, 154122.
     DOI: 10.1063/1.5090222
   * E. Caldeweyher, J.-M. Mewes, S. Ehlert and S. Grimme, Phys. Chem. Chem. Phys.
     2020, 22, 8499-8512. DOI: 10.1039/D0CP00502A
   
   for sTDA-xTB:
   * S. Grimme and C. Bannwarth, J. Chem. Phys., 2016, 145, 054103.
     DOI: 10.1063/1.4959605
   
   in the mass-spec context:
   * V. Asgeirsson, C. Bauer and S. Grimme, Chem. Sci., 2017, 8, 4879.
     DOI: 10.1039/c7sc00601b
   * J. Koopman and S. Grimme, ACS Omega 2019, 4, 12, 15120-15133.
     DOI: 10.1021/acsomega.9b02011
   
   for metadynamics refer to:
   * S. Grimme, J. Chem. Theory Comput., 2019, 155, 2847-2862
     DOI: 10.1021/acs.jctc.9b00143
   
   for SPH calculations refer to:
   * S. Spicher and S. Grimme, J. Chem. Theory Comput., 2021, 17, 1701-1714
     DOI: 10.1021/acs.jctc.0c01306
   
   with help from (in alphabetical order)
   P. Atkinson, C. Bannwarth, F. Bohle, G. Brandenburg, E. Caldeweyher
   M. Checinski, S. Dohm, S. Ehlert, S. Ehrlich, I. Gerasimov, C. Hölzer
   A. Katbashev, J. Koopman, C. Lavigne, S. Lehtola, F. März, M. Müller,
   F. Musil, H. Neugebauer, J. Pisarek, C. Plett, P. Pracht, F. Pultar,
   J. Seibert, P. Shushkov, S. Spicher, M. Stahn, M. Steiner, T. Strunk,
   J. Stückrath, T. Rose, and J. Unsleber
   
 * started run on 2024/06/20 at 18:01:18.432     

           -------------------------------------------------
          |                Calculation Setup                |
           -------------------------------------------------

          program call               : /home/abt-grimme/AK-bin/xtb input.xyz --input input.inp --opt --gbsa water
          hostname                   : boar038.thch.uni-bonn.de
          coordinate file            : input.xyz
          omp threads                :                     8

   ID    Z sym.   atoms
    1    6 C      1-90, 273-362, 545-634, 817-906, 1089-1178, 1361-1450,
                  1633-1722, 1905-1994, 2177-2266, 2449-2538, 2721-2810,
                  2993-3082, 3265-3354
    2    1 H      91-272, 363-544, 635-816, 907-1088, 1179-1360, 1451-1632,
                  1723-1904, 1995-2176, 2267-2448, 2539-2720, 2811-2992,
                  3083-3264, 3355-3536

molecular fragmentation (1/2 indicates fragments):
111111111111111111111111111111111111111111111111111111111111111111111111
111111111111111111111111111111111111111111111111111111111111111111111111
111111111111111111111111111111111111111111111111111111111111111111111111
111111111111111111111111111111111111111111111111111111112222222222222222
222222222222222222222222222222222222222222222222222222222222222222222222
222222222222222222222222222222222222222222222222222222222222222222222222
222222222222222222222222222222222222222222222222222222222222222222222222
222222222222222222222222222222222222222222222222222222222222222222222222
222222222222222222222222222222222222222222222222222222222222222222222222
222222222222222222222222222222222222222222222222222222222222222222222222
222222222222222222222222222222222222222222222222222222222222222222222222
222222222222222222222222222222222222222222222222222222222222222222222222
222222222222222222222222222222222222222222222222222222222222222222222222
222222222222222222222222222222222222222222222222222222222222222222222222
222222222222222222222222222222222222222222222222222222222222222222222222
222222222222222222222222222222222222222222222222222222222222222222222222
222222222222222222222222222222222222222222222222222222222222222222222222
222222222222222222222222222222222222222222222222222222222222222222222222
222222222222222222222222222222222222222222222222222222222222222222222222
222222222222222222222222222222222222222222222222222222222222222222222222
222222222222222222222222222222222222222222222222222222222222222222222222
222222222222222222222222222222222222222222222222222222222222222222222222
222222222222222222222222222222222222222222222222222222222222222222222222
222222222222222222222222222222222222222222222222222222222222222222222222
222222222222222222222222222222222222222222222222222222222222222222222222
222222222222222222222222222222222222222222222222222222222222222222222222
222222222222222222222222222222222222222222222222222222222222222222222222
222222222222222222222222222222222222222222222222222222222222222222222222
222222222222222222222222222222222222222222222222222222222222222222222222
222222222222222222222222222222222222222222222222222222222222222222222222
222222222222222222222222222222222222222222222222222222222222222222222222
222222222222222222222222222222222222222222222222222222222222222222222222
222222222222222222222222222222222222222222222222222222222222222222222222
222222222222222222222222222222222222222222222222222222222222222222222222
222222222222222222222222222222222222222222222222222222222222222222222222
222222222222222222222222222222222222222222222222222222222222222222222222
222222222222222222222222222222222222222222222222222222222222222222222222
222222222222222222222222222222222222222222222222222222222222222222222222
222222222222222222222222222222222222222222222222222222222222222222222222
222222222222222222222222222222222222222222222222222222222222222222222222
222222222222222222222222222222222222222222222222222222222222222222222222
222222222222222222222222222222222222222222222222222222222222222222222222
222222222222222222222222222222222222222222222222222222222222222222222222
222222222222222222222222222222222222222222222222222222222222222222222222
222222222222222222222222222222222222222222222222222222222222222222222222
222222222222222222222222222222222222222222222222222222222222222222222222
222222222222222222222222222222222222222222222222222222222222222222222222
222222222222222222222222222222222222222222222222222222222222222222222222
222222222222222222222222222222222222222222222222222222222222222222222222
22222222
# atoms in fragment 1/2:   272  3264
 fragment masses (1/2) :     1264.41    15172.94
CMA distance (Bohr)    :  29.744
constraining FC (au)   :  0.0500

           -------------------------------------------------
          |                 G F N 2 - x T B                 |
           -------------------------------------------------

        Reference                      10.1021/acs.jctc.8b01176
      * Hamiltonian:
        H0-scaling (s, p, d)           1.850000    2.230000    2.230000
        zeta-weighting                 0.500000
      * Dispersion:
        s8                             2.700000
        a1                             0.520000
        a2                             5.000000
        s9                             5.000000
      * Repulsion:
        kExp                           1.500000    1.000000
        rExp                           1.000000
      * Coulomb:
        alpha                          2.000000
        third order                    shell-resolved
        anisotropic                    true
        a3                             3.000000
        a5                             4.000000
        cn-shift                       1.200000
        cn-exp                         4.000000
        max-rad                        5.000000

      * Solvation model:               GBSA
        Solvent                        water
        Parameter file                 internal GFN2-xTB/GBSA
        Dielectric constant                8.0200E+01
        Reference state                gsolv [1 M gas/solution]
        Free energy shift                  1.8574E-03 Eh       1.1656E+00 kcal/mol
        Temperature                        2.9815E+02 K
        Density                            1.0000E+00 kg/L
        Solvent mass                       1.8000E+01 g/mol
        Interaction kernel             Still
        Born radius scaling (c1)           1.5524E+00
        Born radii integrator          GBOBC
        Born offset                        2.4628E-02 a0       4.6540E-02 AA
        H-bond correction              true
        Ion screening                  false
        Surface tension                    1.0000E-05 Eh       1.5569E+01 dyn/cm
        Grid points                               230 per atom
q/qsh data taken from xtbrestart
CAMM data taken from xtbrestart

          ...................................................
          :                      SETUP                      :
          :.................................................:
          :  # basis functions                7046          :
          :  # atomic orbitals                7046          :
          :  # shells                         4706          :
          :  # electrons                      7046          :
          :  max. iterations                   250          :
          :  Hamiltonian                  GFN2-xTB          :
          :  restarted?                       true          :
          :  GBSA solvation                   true          :
          :  PC potential                    false          :
          :  electronic temp.          300.0000000     K    :
          :  accuracy                    1.0000000          :
          :  -> integral cutoff          0.2500000E+02      :
          :  -> integral neglect         0.1000000E-07      :
          :  -> SCF convergence          0.1000000E-05 Eh   :
          :  -> wf. convergence          0.1000000E-03 e    :
          :  Broyden damping             0.4000000          :
          ...................................................

 iter      E             dE          RMSdq      gap      omega  full diag
   1  -3764.2143960 -0.376421E+04  0.640E-05   10.55       0.0  T
   2  -3764.2143960 -0.351974E-08  0.501E-05   10.55      33.6  T
   3  -3764.2143960 -0.349974E-08  0.325E-05   10.55      51.7  T

   *** convergence criteria satisfied after 3 iterations ***

         #    Occupation            Energy/Eh            Energy/eV
      -------------------------------------------------------------
         1        2.0000           -0.6181480             -16.8207
       ...           ...                  ...                  ...
      3517        2.0000           -0.3760117             -10.2318
      3518        2.0000           -0.3757802             -10.2255
      3519        2.0000           -0.3754382             -10.2162
      3520        2.0000           -0.3745357             -10.1916
      3521        2.0000           -0.3741413             -10.1809
      3522        2.0000           -0.3728435             -10.1456
      3523        2.0000           -0.3724927             -10.1360 (HOMO)
      3524                          0.0151185               0.4114 (LUMO)
      3525                          0.0153971               0.4190
      3526                          0.0161720               0.4401
      3527                          0.0166612               0.4534
      3528                          0.0172648               0.4698
       ...                                ...                  ...
      7046                          0.3695459              10.0559
      -------------------------------------------------------------
                  HL-Gap            0.3876112 Eh           10.5474 eV
             Fermi-level           -0.1786871 Eh           -4.8623 eV

 SCC (total)                   0 d,  0 h,  8 min, 24.301 sec
 SCC setup                      ...        0 min,  1.987 sec (  0.394%)
 Dispersion                     ...        0 min,  4.162 sec (  0.825%)
 classical contributions        ...        0 min,  0.150 sec (  0.030%)
 integral evaluation            ...        0 min,  7.022 sec (  1.393%)
 iterations                     ...        3 min, 48.392 sec ( 45.289%)
 molecular gradient             ...        4 min, 11.489 sec ( 49.869%)
 printout                       ...        0 min, 11.099 sec (  2.201%)

         :::::::::::::::::::::::::::::::::::::::::::::::::::::
         ::                     SUMMARY                     ::
         :::::::::::::::::::::::::::::::::::::::::::::::::::::
         :: total energy           -3715.343534610781 Eh    ::
         :: total w/o Gsasa/hb     -3715.233468500325 Eh    ::
         :: gradient norm              0.667989429073 Eh/a0 ::
         :: HOMO-LUMO gap             10.547436808870 eV    ::
         ::.................................................::
         :: SCC energy             -3764.214396008291 Eh    ::
         :: -> isotropic ES            0.436799910074 Eh    ::
         :: -> anisotropic ES          1.499942474118 Eh    ::
         :: -> anisotropic XC          2.301291820582 Eh    ::
         :: -> dispersion             -4.705189588390 Eh    ::
         :: -> Gsolv                  -0.045548967727 Eh    ::
         ::    -> Gelec                0.064517142730 Eh    ::
         ::    -> Gsasa               -0.105544251161 Eh    ::
         ::    -> Ghb                 -0.006379302422 Eh    ::
         ::    -> Gshift               0.001857443127 Eh    ::
         :: repulsion energy          48.139522491222 Eh    ::
         :: add. restraining           0.000000000000 Eh    ::
         :: total charge              -0.000000000009 e     ::
         :::::::::::::::::::::::::::::::::::::::::::::::::::::

      ----------------------------------------------------------- 
     |              Fast Inertial Relaxation Engine              |
      ----------------------------------------------------------- 

          ...................................................
          :                      SETUP                      :
          :.................................................:
          :   energy convergence        0.5000000E-05 Eh    :
          :   grad. convergence         0.1000000E-02 Eh/a0 :
          :   optimization log               true           :
          :   writing optlog all                1     steps :
          :   Hessian reset                    20     steps :
          :   time step scaling                 5     steps :
          :   maximium step len.        1.0000000     a0    :
          :   initial time step         0.2500000     fs    :
          :   maximum time step         1.2500000     fs    :
          :   power reset thr           0.0000000     au    :
          :   alpha parameter           0.1000000           :
          :   BFGS update                   false           :
          :   preconditioning               false           :
          ...................................................

........................................................................
.............................. CYCLE    1 ..............................
........................................................................

 iter      E             dE          RMSdq      gap      omega  full diag
   1  -3764.4775594 -0.376448E+04  0.767E-03   10.56       0.0  T
   2  -3764.4776036 -0.441746E-04  0.416E-03   10.56       1.0  T
   3  -3764.4776043 -0.690214E-06  0.180E-03   10.56       1.0  T
   4  -3764.4776048 -0.537592E-06  0.447E-04   10.56       3.8  T
   5  -3764.4776051 -0.280631E-06  0.179E-04   10.56       9.4  T
     SCC iter.                  ...        6 min, 19.101 sec
     gradient                   ...        4 min, 16.129 sec
 * total energy  : -3715.3943350 Eh     change    :  -0.5080043E-01 Eh
   gradient norm :     0.6351900 Eh/a0  converged?    E=F G=F D=F
   time step     :     0.2500000 fs     power     :   0.2628774E-05
   step length   :     0.0782869 a0     speed     :   0.7574682E-02

........................................................................
.............................. CYCLE    2 ..............................
........................................................................

 iter      E             dE          RMSdq      gap      omega  full diag
   1  -3764.8656706 -0.376487E+04  0.113E-02   10.58       0.0  T
   2  -3764.8657656 -0.949813E-04  0.610E-03   10.58       1.0  T
   3  -3764.8657672 -0.153929E-05  0.264E-03   10.58       1.0  T
   4  -3764.8657683 -0.116461E-05  0.662E-04   10.57       2.5  T
   5  -3764.8657689 -0.611514E-06  0.276E-04   10.57       6.1  T
   6  -3764.8657690 -0.507225E-07  0.129E-04   10.57      13.1  T
     SCC iter.                  ...        7 min, 24.379 sec
     gradient                   ...        4 min, 11.940 sec
 * total energy  : -3715.4647997 Eh     change    :  -0.7046465E-01 Eh
   gradient norm :     0.5886795 Eh/a0  converged?    E=F G=F D=F
   time step     :     0.2500000 fs     power     :   0.3593717E-05
   step length   :     0.1153975 a0     speed     :   0.1116533E-01

........................................................................
.............................. CYCLE    3 ..............................
........................................................................

 iter      E             dE          RMSdq      gap      omega  full diag
   1  -3765.3688141 -0.376537E+04  0.145E-02   10.59       0.0  T
   2  -3765.3689696 -0.155441E-03  0.786E-03   10.59       1.0  T
   3  -3765.3689721 -0.255305E-05  0.337E-03   10.59       1.0  T
   4  -3765.3689740 -0.188969E-05  0.850E-04   10.59       2.0  T
   5  -3765.3689750 -0.100577E-05  0.358E-04   10.59       4.7  T
   6  -3765.3689751 -0.820019E-07  0.163E-04   10.59      10.3  T
   7  -3765.3689751 -0.399491E-07  0.108E-04   10.59      15.6  T
     SCC iter.                  ...        8 min, 37.975 sec
     gradient                   ...        4 min, 10.460 sec
 * total energy  : -3715.5482797 Eh     change    :  -0.8347997E-01 Eh
   gradient norm :     0.5300598 Eh/a0  converged?    E=F G=F D=F
   time step     :     0.2500000 fs     power     :   0.4185896E-05
   step length   :     0.1497874 a0     speed     :   0.1449274E-01

........................................................................
.............................. CYCLE    4 ..............................
........................................................................

 iter      E             dE          RMSdq      gap      omega  full diag
   1  -3765.9742364 -0.376597E+04  0.174E-02   10.61       0.0  T
   2  -3765.9744527 -0.216312E-03  0.938E-03   10.60       1.0  T
   3  -3765.9744563 -0.359750E-05  0.397E-03   10.60       1.0  T
   4  -3765.9744588 -0.252713E-05  0.995E-04   10.60       1.7  T
   5  -3765.9744602 -0.136458E-05  0.421E-04   10.60       4.0  T
   6  -3765.9744603 -0.964410E-07  0.179E-04   10.60       9.4  T
   7  -3765.9744604 -0.458876E-07  0.117E-04   10.60      14.3  T
     SCC iter.                  ...        8 min, 38.022 sec
     gradient                   ...        4 min, 12.970 sec
 * total energy  : -3715.6371540 Eh     change    :  -0.8887438E-01 Eh
   gradient norm :     0.4631778 Eh/a0  converged?    E=F G=F D=F
   time step     :     0.2500000 fs     power     :   0.4366805E-05
   step length   :     0.1806177 a0     speed     :   0.1747573E-01

........................................................................
.............................. CYCLE    5 ..............................
........................................................................

 iter      E             dE          RMSdq      gap      omega  full diag
   1  -3766.6664587 -0.376667E+04  0.197E-02   10.62       0.0  T
   2  -3766.6667261 -0.267463E-03  0.106E-02   10.61       1.0  T
   3  -3766.6667308 -0.471057E-05  0.440E-03   10.61       1.0  T
   4  -3766.6667339 -0.303032E-05  0.110E-03   10.61       1.5  T
   5  -3766.6667355 -0.163655E-05  0.484E-04   10.61       3.5  T
   6  -3766.6667356 -0.121131E-06  0.197E-04   10.61       8.5  T
   7  -3766.6667357 -0.542691E-07  0.130E-04   10.61      12.9  T
     SCC iter.                  ...        8 min, 39.352 sec
     gradient                   ...        4 min, 11.575 sec
 * total energy  : -3715.7238043 Eh     change    :  -0.8665028E-01 Eh
   gradient norm :     0.3933221 Eh/a0  converged?    E=F G=F D=F
   time step     :     0.2500000 fs     power     :   0.4150347E-05
   step length   :     0.2071723 a0     speed     :   0.2004504E-01

........................................................................
.............................. CYCLE    6 ..............................
........................................................................

 iter      E             dE          RMSdq      gap      omega  full diag
   1  -3767.5106920 -0.376751E+04  0.237E-02   10.62       0.0  T
   2  -3767.5110589 -0.366933E-03  0.127E-02   10.61       1.0  T
   3  -3767.5110661 -0.716006E-05  0.515E-03   10.62       1.0  T
   4  -3767.5110700 -0.394702E-05  0.127E-03   10.61       1.3  T
   5  -3767.5110721 -0.208853E-05  0.593E-04   10.61       2.8  T
   6  -3767.5110723 -0.167383E-06  0.225E-04   10.61       7.5  T
   7  -3767.5110723 -0.684977E-07  0.151E-04   10.61      11.1  T
     SCC iter.                  ...        8 min, 33.609 sec
     gradient                   ...        4 min, 11.999 sec
 * total energy  : -3715.8091633 Eh     change    :  -0.8535898E-01 Eh
   gradient norm :     0.3217733 Eh/a0  converged?    E=F G=F D=F
   time step     :     0.2750000 fs     power     :   0.3531284E-05
   step length   :     0.2541309 a0     speed     :   0.2235321E-01

........................................................................
.............................. CYCLE    7 ..............................
........................................................................

 iter      E             dE          RMSdq      gap      omega  full diag
   1  -3768.5030077 -0.376850E+04  0.276E-02   10.61       0.0  T
   2  -3768.5034576 -0.449861E-03  0.148E-02   10.61       1.0  T
   3  -3768.5034682 -0.105725E-04  0.570E-03   10.61       1.0  T
   4  -3768.5034726 -0.446218E-05  0.137E-03   10.61       1.2  T
   5  -3768.5034748 -0.214507E-05  0.701E-04   10.61       2.4  T
   6  -3768.5034750 -0.214558E-06  0.239E-04   10.61       7.0  T
   7  -3768.5034751 -0.753980E-07  0.166E-04   10.61      10.1  T
     SCC iter.                  ...        8 min, 36.346 sec
     gradient                   ...        4 min,  9.758 sec
 * total energy  : -3715.8837192 Eh     change    :  -0.7455592E-01 Eh
   gradient norm :     0.2650290 Eh/a0  converged?    E=F G=F D=F
   time step     :     0.3025000 fs     power     :   0.2567214E-05
   step length   :     0.3023512 a0     speed     :   0.2417694E-01

........................................................................
.............................. CYCLE    8 ..............................
........................................................................

 iter      E             dE          RMSdq      gap      omega  full diag
   1  -3769.6084243 -0.376961E+04  0.307E-02   10.61       0.0  T
   2  -3769.6088914 -0.467098E-03  0.164E-02   10.61       1.0  T
   3  -3769.6089064 -0.150032E-04  0.583E-03   10.61       1.0  T
   4  -3769.6089106 -0.413113E-05  0.134E-03   10.60       1.3  T
   5  -3769.6089119 -0.136338E-05  0.774E-04   10.60       2.2  T
   6  -3769.6089122 -0.248968E-06  0.228E-04   10.60       7.4  T
   7  -3769.6089123 -0.661494E-07  0.166E-04   10.60      10.1  T
     SCC iter.                  ...        8 min, 40.549 sec
     gradient                   ...        4 min, 10.391 sec
 * total energy  : -3715.9392906 Eh     change    :  -0.5557138E-01 Eh
   gradient norm :     0.2433460 Eh/a0  converged?    E=F G=F D=F
   time step     :     0.3327500 fs     power     :   0.1468578E-05
   step length   :     0.3463329 a0     speed     :   0.2517624E-01

........................................................................
.............................. CYCLE    9 ..............................
........................................................................

 iter      E             dE          RMSdq      gap      omega  full diag
   1  -3770.7437448 -0.377074E+04  0.325E-02   10.61       0.0  T
   2  -3770.7441284 -0.383602E-03  0.175E-02   10.60       1.0  T
   3  -3770.7441473 -0.188657E-04  0.542E-03   10.60       1.0  T
   4  -3770.7441508 -0.345470E-05  0.131E-03   10.60       1.3  T
   5  -3770.7441513 -0.527928E-06  0.760E-04   10.60       2.2  T
   6  -3770.7441515 -0.230029E-06  0.182E-04   10.60       9.2  T
     SCC iter.                  ...        7 min, 21.140 sec
     gradient                   ...        4 min, 10.397 sec
 * total energy  : -3715.9734322 Eh     change    :  -0.3414164E-01 Eh
   gradient norm :     0.2525669 Eh/a0  converged?    E=F G=F D=F
   time step     :     0.3660250 fs     power     :   0.5444152E-06
   step length   :     0.3784172 a0     speed     :   0.2500779E-01

........................................................................
.............................. CYCLE   10 ..............................
........................................................................

 iter      E             dE          RMSdq      gap      omega  full diag
   1  -3771.7956698 -0.377180E+04  0.333E-02   10.61       0.0  T
   2  -3771.7959162 -0.246439E-03  0.185E-02   10.61       1.0  T
   3  -3771.7959324 -0.161503E-04  0.475E-03   10.61       1.0  T
   4  -3771.7959406 -0.824038E-05  0.146E-03   10.61       1.2  T
   5  -3771.7959417 -0.108808E-05  0.824E-04   10.61       2.0  T
   6  -3771.7959419 -0.154955E-06  0.153E-04   10.61      11.0  T
   7  -3771.7959419 -0.268433E-07  0.117E-04   10.61      14.4  T
     SCC iter.                  ...        8 min, 30.233 sec
     gradient                   ...        4 min, 11.876 sec
 * total energy  : -3715.9901114 Eh     change    :  -0.1667912E-01 Eh
   gradient norm :     0.2630417 Eh/a0  converged?    E=F G=F D=F
   time step     :     0.4026275 fs     power     :  -0.5061383E-07
   step length   :     0.3962209 a0     speed     :   0.2380395E-01

........................................................................
.............................. CYCLE   11 ..............................
........................................................................
 * reset velocities

 iter      E             dE          RMSdq      gap      omega  full diag
   1  -3771.7769259 -0.377178E+04  0.106E-03   10.61       0.0  T
   2  -3771.7769268 -0.854977E-06  0.648E-04   10.61       2.6  T
   3  -3771.7769268 -0.117611E-07  0.273E-04   10.61       6.2  T
     SCC iter.                  ...        3 min, 43.631 sec
     gradient                   ...        4 min, 13.667 sec
 * total energy  : -3715.9927086 Eh     change    :  -0.2597202E-02 Eh
   gradient norm :     0.2567406 Eh/a0  converged?    E=F G=F D=F
   time step     :     0.2013138 fs     power     :   0.1691374E-06
   step length   :     0.0099950 a0     speed     :   0.1200944E-02

........................................................................
.............................. CYCLE   12 ..............................
........................................................................

 iter      E             dE          RMSdq      gap      omega  full diag
   1  -3771.7393790 -0.377174E+04  0.212E-03   10.61       0.0  T
   2  -3771.7393822 -0.320852E-05  0.130E-03   10.61       1.3  T
   3  -3771.7393822 -0.283467E-07  0.526E-04   10.61       3.2  T
   4  -3771.7393823 -0.828463E-07  0.137E-04   10.61      12.3  T
     SCC iter.                  ...        4 min, 55.551 sec
     gradient                   ...        4 min,  9.930 sec
 * total energy  : -3715.9976575 Eh     change    :  -0.4948974E-02 Eh
   gradient norm :     0.2444740 Eh/a0  converged?    E=F G=F D=F
   time step     :     0.2013138 fs     power     :   0.3181815E-06
   step length   :     0.0197503 a0     speed     :   0.2373096E-02

........................................................................
.............................. CYCLE   13 ..............................
........................................................................

 iter      E             dE          RMSdq      gap      omega  full diag
   1  -3771.6842554 -0.377168E+04  0.305E-03   10.61       0.0  T
   2  -3771.6842626 -0.722353E-05  0.188E-03   10.61       1.0  T
   3  -3771.6842627 -0.104107E-06  0.793E-04   10.61       2.1  T
   4  -3771.6842629 -0.187978E-06  0.210E-04   10.61       8.0  T
     SCC iter.                  ...        4 min, 56.089 sec
     gradient                   ...        4 min, 12.386 sec
 * total energy  : -3716.0044958 Eh     change    :  -0.6838214E-02 Eh
   gradient norm :     0.2267115 Eh/a0  converged?    E=F G=F D=F
   time step     :     0.2013138 fs     power     :   0.4334978E-06
   step length   :     0.0290379 a0     speed     :   0.3489052E-02

........................................................................
.............................. CYCLE   14 ..............................
........................................................................

 iter      E             dE          RMSdq      gap      omega  full diag
   1  -3771.6129988 -0.377161E+04  0.394E-03   10.62       0.0  T
   2  -3771.6130109 -0.120815E-04  0.242E-03   10.62       1.0  T
   3  -3771.6130110 -0.180558E-06  0.103E-03   10.62       1.6  T
   4  -3771.6130114 -0.313555E-06  0.273E-04   10.62       6.2  T
   5  -3771.6130115 -0.931486E-07  0.697E-05   10.62      24.1  T
     SCC iter.                  ...        6 min, 17.872 sec
     gradient                   ...        4 min, 11.797 sec
 * total energy  : -3716.0125942 Eh     change    :  -0.8098456E-02 Eh
   gradient norm :     0.2042226 Eh/a0  converged?    E=F G=F D=F
   time step     :     0.2013138 fs     power     :   0.5052071E-06
   step length   :     0.0376445 a0     speed     :   0.4523167E-02

........................................................................
.............................. CYCLE   15 ..............................
........................................................................

 iter      E             dE          RMSdq      gap      omega  full diag
   1  -3771.5275614 -0.377153E+04  0.472E-03   10.62       0.0  T
   2  -3771.5275789 -0.174404E-04  0.290E-03   10.62       1.0  T
   3  -3771.5275791 -0.265319E-06  0.123E-03   10.62       1.4  T
   4  -3771.5275796 -0.437479E-06  0.326E-04   10.62       5.2  T
   5  -3771.5275797 -0.132993E-06  0.830E-05   10.62      20.3  T
     SCC iter.                  ...        6 min,  8.532 sec
     gradient                   ...        4 min, 12.144 sec
 * total energy  : -3716.0212278 Eh     change    :  -0.8633581E-02 Eh
   gradient norm :     0.1780604 Eh/a0  converged?    E=F G=F D=F
   time step     :     0.2013138 fs     power     :   0.5282180E-06
   step length   :     0.0453784 a0     speed     :   0.5452438E-02

........................................................................
.............................. CYCLE   16 ..............................
........................................................................

 iter      E             dE          RMSdq      gap      omega  full diag
   1  -3771.4304625 -0.377143E+04  0.536E-03   10.63       0.0  T
   2  -3771.4304851 -0.226246E-04  0.330E-03   10.63       1.0  T
   3  -3771.4304855 -0.348793E-06  0.140E-03   10.63       1.2  T
   4  -3771.4304860 -0.556674E-06  0.372E-04   10.63       4.5  T
   5  -3771.4304862 -0.171473E-06  0.947E-05   10.63      17.8  T
     SCC iter.                  ...        6 min, 21.649 sec
     gradient                   ...        4 min, 13.451 sec
 * total energy  : -3716.0296585 Eh     change    :  -0.8430702E-02 Eh
   gradient norm :     0.1498083 Eh/a0  converged?    E=F G=F D=F
   time step     :     0.2013138 fs     power     :   0.5031867E-06
   step length   :     0.0520714 a0     speed     :   0.6256640E-02

........................................................................
.............................. CYCLE   17 ..............................
........................................................................

 iter      E             dE          RMSdq      gap      omega  full diag
   1  -3771.3133012 -0.377131E+04  0.648E-03   10.63       0.0  T
   2  -3771.3133344 -0.332331E-04  0.400E-03   10.63       1.0  T
   3  -3771.3133349 -0.515346E-06  0.169E-03   10.63       1.0  T
   4  -3771.3133357 -0.798018E-06  0.450E-04   10.63       3.7  T
   5  -3771.3133359 -0.249244E-06  0.113E-04   10.63      14.9  T
     SCC iter.                  ...        6 min, 16.453 sec
     gradient                   ...        4 min, 10.772 sec
 * total energy  : -3716.0379515 Eh     change    :  -0.8292970E-02 Eh
   gradient norm :     0.1190177 Eh/a0  converged?    E=F G=F D=F
   time step     :     0.2214451 fs     power     :   0.4275649E-06
   step length   :     0.0639492 a0     speed     :   0.6985288E-02

........................................................................
.............................. CYCLE   18 ..............................
........................................................................

 iter      E             dE          RMSdq      gap      omega  full diag
   1  -3771.1782738 -0.377118E+04  0.754E-03   10.64       0.0  T
   2  -3771.1783188 -0.449504E-04  0.467E-03   10.64       1.0  T
   3  -3771.1783195 -0.696580E-06  0.196E-03   10.64       1.0  T
   4  -3771.1783205 -0.105705E-05  0.524E-04   10.64       3.2  T
   5  -3771.1783209 -0.335052E-06  0.131E-04   10.64      12.9  T
   6  -3771.1783209 -0.139689E-07  0.899E-05   10.64      18.7  T
     SCC iter.                  ...        7 min, 22.283 sec
     gradient                   ...        4 min, 14.724 sec
 * total energy  : -3716.0450968 Eh     change    :  -0.7145310E-02 Eh
   gradient norm :     0.0918774 Eh/a0  converged?    E=F G=F D=F
   time step     :     0.2435896 fs     power     :   0.3048690E-06
   step length   :     0.0762629 a0     speed     :   0.7573024E-02

........................................................................
.............................. CYCLE   19 ..............................
........................................................................

 iter      E             dE          RMSdq      gap      omega  full diag
   1  -3771.0338869 -0.377103E+04  0.827E-03   10.65       0.0  T
   2  -3771.0339403 -0.534118E-04  0.516E-03   10.65       1.0  T
   3  -3771.0339411 -0.782376E-06  0.214E-03   10.65       1.0  T
   4  -3771.0339423 -0.125017E-05  0.570E-04   10.65       3.0  T
   5  -3771.0339427 -0.393437E-06  0.134E-04   10.65      12.6  T
   6  -3771.0339428 -0.123309E-07  0.875E-05   10.65      19.2  T
     SCC iter.                  ...        7 min, 33.087 sec
     gradient                   ...        4 min, 11.262 sec
 * total energy  : -3716.0501548 Eh     change    :  -0.5058075E-02 Eh
   gradient norm :     0.0818694 Eh/a0  converged?    E=F G=F D=F
   time step     :     0.2679486 fs     power     :   0.1601128E-06
   step length   :     0.0876041 a0     speed     :   0.7908385E-02

........................................................................
.............................. CYCLE   20 ..............................
........................................................................

 iter      E             dE          RMSdq      gap      omega  full diag
   1  -3770.8986629 -0.377090E+04  0.831E-03   10.66       0.0  T
   2  -3770.8987138 -0.509394E-04  0.523E-03   10.66       1.0  T
   3  -3770.8987145 -0.630673E-06  0.208E-03   10.66       1.0  T
   4  -3770.8987158 -0.129413E-05  0.560E-04   10.66       3.0  T
   5  -3770.8987161 -0.377367E-06  0.133E-04   10.66      12.6  T
   6  -3770.8987161 -0.104278E-07  0.817E-05   10.66      20.6  T
     SCC iter.                  ...        7 min, 21.743 sec
     gradient                   ...        4 min, 10.631 sec
 * total energy  : -3716.0529283 Eh     change    :  -0.2773483E-02 Eh
   gradient norm :     0.0954674 Eh/a0  converged?    E=F G=F D=F
   time step     :     0.2947435 fs     power     :   0.4586754E-07
   step length   :     0.0953139 a0     speed     :   0.7822169E-02
 * RMSD in coord.:     0.0374425 a0     energy gain  -0.7093937E+00 Eh

........................................................................
.............................. CYCLE   21 ..............................
........................................................................

 iter      E             dE          RMSdq      gap      omega  full diag
   1  -3770.8164981 -0.377082E+04  0.591E-03   10.67       0.0  T
   2  -3770.8165202 -0.221049E-04  0.376E-03   10.67       1.0  T
   3  -3770.8165203 -0.135122E-06  0.136E-03   10.67       1.2  T
   4  -3770.8165211 -0.726320E-06  0.371E-04   10.67       4.5  T
   5  -3770.8165212 -0.167217E-06  0.968E-05   10.67      17.4  T
     SCC iter.                  ...        6 min, 10.994 sec
     gradient                   ...        4 min, 11.023 sec
 * total energy  : -3716.0542099 Eh     change    :  -0.1281608E-02 Eh
   gradient norm :     0.1121539 Eh/a0  converged?    E=F G=F D=F
   time step     :     0.2500000 fs     power     :   0.2531640E-07
   step length   :     0.0755251 a0     speed     :   0.7307462E-02

........................................................................
.............................. CYCLE   22 ..............................
........................................................................

 iter      E             dE          RMSdq      gap      omega  full diag
   1  -3770.7697163 -0.377077E+04  0.489E-03   10.68       0.0  T
   2  -3770.7697266 -0.103670E-04  0.311E-03   10.68       1.0  T
   3  -3770.7697265  0.108414E-06  0.885E-04   10.68       1.9  T
   4  -3770.7697271 -0.562208E-06  0.254E-04   10.68       6.6  T
     SCC iter.                  ...        4 min, 56.721 sec
     gradient                   ...        4 min, 11.718 sec
 * total energy  : -3716.0557735 Eh     change    :  -0.1563539E-02 Eh
   gradient norm :     0.1242470 Eh/a0  converged?    E=F G=F D=F
   time step     :     0.2500000 fs     power     :   0.5903689E-07
   step length   :     0.0701990 a0     speed     :   0.6792134E-02

........................................................................
.............................. CYCLE   23 ..............................
........................................................................

 iter      E             dE          RMSdq      gap      omega  full diag
   1  -3770.7576270 -0.377076E+04  0.427E-03   10.69       0.0  T
   2  -3770.7576302 -0.320083E-05  0.267E-03   10.69       1.0  T
   3  -3770.7576301  0.121062E-06  0.407E-04   10.69       4.1  T
   4  -3770.7576305 -0.342350E-06  0.151E-04   10.69      11.1  T
     SCC iter.                  ...        5 min,  4.801 sec
     gradient                   ...        4 min, 11.562 sec
 * total energy  : -3716.0583034 Eh     change    :  -0.2529883E-02 Eh
   gradient norm :     0.1292382 Eh/a0  converged?    E=F G=F D=F
   time step     :     0.2500000 fs     power     :   0.1210762E-06
   step length   :     0.0665323 a0     speed     :   0.6437358E-02

........................................................................
.............................. CYCLE   24 ..............................
........................................................................

 iter      E             dE          RMSdq      gap      omega  full diag
   1  -3770.7777946 -0.377078E+04  0.417E-03   10.70       0.0  T
   2  -3770.7777951 -0.523604E-06  0.251E-03   10.70       1.0  T
   3  -3770.7777952 -0.925725E-07  0.184E-04   10.70       9.1  T
   4  -3770.7777953 -0.482887E-07  0.102E-04   10.70      16.5  T
     SCC iter.                  ...        4 min, 59.573 sec
     gradient                   ...        4 min, 12.426 sec
 * total energy  : -3716.0620111 Eh     change    :  -0.3707768E-02 Eh
   gradient norm :     0.1270562 Eh/a0  converged?    E=F G=F D=F
   time step     :     0.2500000 fs     power     :   0.1869999E-06
   step length   :     0.0651144 a0     speed     :   0.6300163E-02

........................................................................
.............................. CYCLE   25 ..............................
........................................................................

 iter      E             dE          RMSdq      gap      omega  full diag
   1  -3770.8268515 -0.377083E+04  0.449E-03   10.71       0.0  T
   2  -3770.8268528 -0.131186E-05  0.261E-03   10.71       1.0  T
   3  -3770.8268528 -0.276291E-07  0.358E-04   10.71       4.7  T
   4  -3770.8268530 -0.146683E-06  0.115E-04   10.71      14.6  T
     SCC iter.                  ...        5 min,  3.067 sec
     gradient                   ...        4 min, 11.248 sec
 * total energy  : -3716.0667337 Eh     change    :  -0.4722569E-02 Eh
   gradient norm :     0.1186824 Eh/a0  converged?    E=F G=F D=F
   time step     :     0.2500000 fs     power     :   0.2388353E-06
   step length   :     0.0657701 a0     speed     :   0.6363608E-02

........................................................................
.............................. CYCLE   26 ..............................
........................................................................

 iter      E             dE          RMSdq      gap      omega  full diag
   1  -3770.9098872 -0.377091E+04  0.557E-03   10.72       0.0  T
   2  -3770.9098928 -0.555248E-05  0.318E-03   10.72       1.0  T
   3  -3770.9098927  0.113460E-06  0.759E-04   10.72       2.2  T
   4  -3770.9098931 -0.460938E-06  0.172E-04   10.72       9.8  T
     SCC iter.                  ...        4 min, 53.083 sec
     gradient                   ...        4 min, 11.782 sec
 * total energy  : -3716.0726473 Eh     change    :  -0.5913645E-02 Eh
   gradient norm :     0.1042154 Eh/a0  converged?    E=F G=F D=F
   time step     :     0.2750000 fs     power     :   0.2659731E-06
   step length   :     0.0752287 a0     speed     :   0.6617076E-02

........................................................................
.............................. CYCLE   27 ..............................
........................................................................

 iter      E             dE          RMSdq      gap      omega  full diag
   1  -3771.0284824 -0.377103E+04  0.686E-03   10.72       0.0  T
   2  -3771.0284956 -0.132126E-04  0.388E-03   10.72       1.0  T
   3  -3771.0284955  0.167017E-06  0.113E-03   10.72       1.5  T
   4  -3771.0284962 -0.782020E-06  0.248E-04   10.72       6.8  T
   5  -3771.0284963 -0.982941E-07  0.119E-04   10.72      14.2  T
     SCC iter.                  ...        6 min, 13.736 sec
     gradient                   ...        4 min, 11.981 sec
 * total energy  : -3716.0792156 Eh     change    :  -0.6568292E-02 Eh
   gradient norm :     0.0860058 Eh/a0  converged?    E=F G=F D=F
   time step     :     0.3025000 fs     power     :   0.2579981E-06
   step length   :     0.0874581 a0     speed     :   0.6993426E-02

........................................................................
.............................. CYCLE   28 ..............................
........................................................................

 iter      E             dE          RMSdq      gap      omega  full diag
   1  -3771.1803050 -0.377118E+04  0.814E-03   10.73       0.0  T
   2  -3771.1803276 -0.225689E-04  0.459E-03   10.73       1.0  T
   3  -3771.1803274  0.158259E-06  0.143E-03   10.73       1.2  T
   4  -3771.1803285 -0.102274E-05  0.317E-04   10.73       5.3  T
   5  -3771.1803286 -0.162699E-06  0.132E-04   10.73      12.7  T
   6  -3771.1803286 -0.181553E-07  0.799E-05   10.73      21.0  T
     SCC iter.                  ...        7 min, 16.955 sec
     gradient                   ...        4 min, 11.860 sec
 * total energy  : -3716.0856272 Eh     change    :  -0.6411540E-02 Eh
   gradient norm :     0.0706037 Eh/a0  converged?    E=F G=F D=F
   time step     :     0.3327500 fs     power     :   0.2153252E-06
   step length   :     0.1017743 a0     speed     :   0.7398355E-02

........................................................................
.............................. CYCLE   29 ..............................
........................................................................

 iter      E             dE          RMSdq      gap      omega  full diag
   1  -3771.3542132 -0.377135E+04  0.901E-03   10.74       0.0  T
   2  -3771.3542411 -0.279446E-04  0.506E-03   10.74       1.0  T
   3  -3771.3542410  0.126913E-06  0.154E-03   10.74       1.1  T
   4  -3771.3542421 -0.106254E-05  0.350E-04   10.74       4.8  T
   5  -3771.3542423 -0.196482E-06  0.134E-04   10.74      12.6  T
   6  -3771.3542423 -0.153050E-07  0.770E-05   10.74      21.8  T
     SCC iter.                  ...        7 min, 28.795 sec
     gradient                   ...        4 min, 11.916 sec
 * total energy  : -3716.0911858 Eh     change    :  -0.5558653E-02 Eh
   gradient norm :     0.0677390 Eh/a0  converged?    E=F G=F D=F
   time step     :     0.3660250 fs     power     :   0.1577543E-06
   step length   :     0.1166447 a0     speed     :   0.7708492E-02

........................................................................
.............................. CYCLE   30 ..............................
........................................................................

 iter      E             dE          RMSdq      gap      omega  full diag
   1  -3771.5263381 -0.377153E+04  0.907E-03   10.74       0.0  T
   2  -3771.5263609 -0.227764E-04  0.507E-03   10.74       1.0  T
   3  -3771.5263609 -0.147943E-07  0.134E-03   10.74       1.3  T
   4  -3771.5263616 -0.726730E-06  0.308E-04   10.74       5.5  T
   5  -3771.5263618 -0.144936E-06  0.129E-04   10.74      13.0  T
     SCC iter.                  ...        6 min, 13.898 sec
     gradient                   ...        4 min, 11.682 sec
 * total energy  : -3716.0959495 Eh     change    :  -0.4763664E-02 Eh
   gradient norm :     0.0760243 Eh/a0  converged?    E=F G=F D=F
   time step     :     0.4026275 fs     power     :   0.1205925E-06
   step length   :     0.1298222 a0     speed     :   0.7799389E-02

........................................................................
.............................. CYCLE   31 ..............................
........................................................................

 iter      E             dE          RMSdq      gap      omega  full diag
   1  -3771.6690731 -0.377167E+04  0.847E-03   10.75       0.0  T
   2  -3771.6690836 -0.105218E-04  0.477E-03   10.75       1.0  T
   3  -3771.6690839 -0.292099E-06  0.869E-04   10.75       1.9  T
   4  -3771.6690841 -0.224511E-06  0.203E-04   10.75       8.3  T
     SCC iter.                  ...        4 min, 57.838 sec
     gradient                   ...        4 min, 12.610 sec
 * total energy  : -3716.1008396 Eh     change    :  -0.4890104E-02 Eh
   gradient norm :     0.0823568 Eh/a0  converged?    E=F G=F D=F
   time step     :     0.4428903 fs     power     :   0.1209454E-06
   step length   :     0.1417722 a0     speed     :   0.7743017E-02

........................................................................
.............................. CYCLE   32 ..............................
........................................................................

 iter      E             dE          RMSdq      gap      omega  full diag
   1  -3771.7593891 -0.377176E+04  0.783E-03   10.75       0.0  T
   2  -3771.7593919 -0.283166E-05  0.458E-03   10.75       1.0  T
   3  -3771.7593918  0.121815E-06  0.627E-04   10.75       2.7  T
   4  -3771.7593925 -0.685555E-06  0.189E-04   10.75       8.9  T
     SCC iter.                  ...        4 min, 54.986 sec
     gradient                   ...        4 min, 11.722 sec
 * total energy  : -3716.1067799 Eh     change    :  -0.5940308E-02 Eh
   gradient norm :     0.0783147 Eh/a0  converged?    E=F G=F D=F
   time step     :     0.4871793 fs     power     :   0.1399402E-06
   step length   :     0.1557895 a0     speed     :   0.7735076E-02

........................................................................
.............................. CYCLE   33 ..............................
........................................................................

 iter      E             dE          RMSdq      gap      omega  full diag
   1  -3771.7824183 -0.377178E+04  0.782E-03   10.76       0.0  T
   2  -3771.7824288 -0.104709E-04  0.489E-03   10.76       1.0  T
   3  -3771.7824274  0.139329E-05  0.114E-03   10.76       1.5  T
   4  -3771.7824299 -0.258837E-05  0.226E-04   10.76       7.5  T
   5  -3771.7824300 -0.348382E-07  0.127E-04   10.76      13.3  T
   6  -3771.7824300 -0.753016E-08  0.526E-05   10.76      32.0  T
     SCC iter.                  ...        7 min, 27.616 sec
     gradient                   ...        4 min, 10.229 sec
 * total energy  : -3716.1136487 Eh     change    :  -0.6868750E-02 Eh
   gradient norm :     0.0653954 Eh/a0  converged?    E=F G=F D=F
   time step     :     0.5358972 fs     power     :   0.1413757E-06
   step length   :     0.1742744 a0     speed     :   0.7866239E-02

........................................................................
.............................. CYCLE   34 ..............................
........................................................................

 iter      E             dE          RMSdq      gap      omega  full diag
   1  -3771.7406560 -0.377174E+04  0.842E-03   10.78       0.0  T
   2  -3771.7406862 -0.301680E-04  0.547E-03   10.78       1.0  T
   3  -3771.7406855  0.632815E-06  0.168E-03   10.78       1.0  T
   4  -3771.7406879 -0.236829E-05  0.396E-04   10.78       4.2  T
   5  -3771.7406881 -0.216980E-06  0.156E-04   10.78      10.8  T
   6  -3771.7406881 -0.165428E-07  0.812E-05   10.78      20.7  T
     SCC iter.                  ...        7 min, 32.927 sec
     gradient                   ...        4 min, 12.728 sec
 * total energy  : -3716.1202252 Eh     change    :  -0.6576560E-02 Eh
   gradient norm :     0.0579386 Eh/a0  converged?    E=F G=F D=F
   time step     :     0.5894869 fs     power     :   0.1102998E-06
   step length   :     0.1964689 a0     speed     :   0.8061849E-02

........................................................................
.............................. CYCLE   35 ..............................
........................................................................

 iter      E             dE          RMSdq      gap      omega  full diag
   1  -3771.6722137 -0.377167E+04  0.895E-03   10.80       0.0  T
   2  -3771.6722489 -0.351618E-04  0.573E-03   10.80       1.0  T
   3  -3771.6722488  0.105482E-06  0.161E-03   10.80       1.0  T
   4  -3771.6722504 -0.158865E-05  0.493E-04   10.80       3.4  T
   5  -3771.6722507 -0.301861E-06  0.175E-04   10.80       9.6  T
   6  -3771.6722507 -0.168243E-07  0.776E-05   10.80      21.7  T
     SCC iter.                  ...        7 min, 20.152 sec
     gradient                   ...        4 min, 12.125 sec
 * total energy  : -3716.1259228 Eh     change    :  -0.5697576E-02 Eh
   gradient norm :     0.0639723 Eh/a0  converged?    E=F G=F D=F
   time step     :     0.6484356 fs     power     :   0.8241149E-07
   step length   :     0.2181169 a0     speed     :   0.8136498E-02

........................................................................
.............................. CYCLE   36 ..............................
........................................................................

 iter      E             dE          RMSdq      gap      omega  full diag
   1  -3771.6390445 -0.377164E+04  0.995E-03   10.83       0.0  T
   2  -3771.6390604 -0.158876E-04  0.598E-03   10.83       1.0  T
   3  -3771.6390612 -0.783765E-06  0.913E-04   10.83       1.8  T
   4  -3771.6390616 -0.454972E-06  0.323E-04   10.83       5.2  T
     SCC iter.                  ...        4 min, 55.335 sec
     gradient                   ...        4 min, 10.945 sec
 * total energy  : -3716.1318949 Eh     change    :  -0.5972148E-02 Eh
   gradient norm :     0.0641144 Eh/a0  converged?    E=F G=F D=F
   time step     :     0.7132792 fs     power     :   0.8506741E-07
   step length   :     0.2385958 a0     speed     :   0.8091301E-02

........................................................................
.............................. CYCLE   37 ..............................
........................................................................

 iter      E             dE          RMSdq      gap      omega  full diag
   1  -3771.6875599 -0.377169E+04  0.120E-02   10.85       0.0  T
   2  -3771.6875682 -0.827905E-05  0.696E-03   10.86       1.0  T
   3  -3771.6875681  0.139311E-06  0.123E-03   10.86       1.4  T
   4  -3771.6875701 -0.202301E-05  0.348E-04   10.86       4.8  T
   5  -3771.6875701 -0.162413E-07  0.128E-04   10.86      13.2  T
   6  -3771.6875701 -0.625778E-08  0.328E-05   10.86      51.3  T
     SCC iter.                  ...        7 min, 30.897 sec
     gradient                   ...        4 min, 12.400 sec
 * total energy  : -3716.1384698 Eh     change    :  -0.6574870E-02 Eh
   gradient norm :     0.0523736 Eh/a0  converged?    E=F G=F D=F
   time step     :     0.7846071 fs     power     :   0.7927852E-07
   step length   :     0.2634474 a0     speed     :   0.8121884E-02

........................................................................
.............................. CYCLE   38 ..............................
........................................................................

 iter      E             dE          RMSdq      gap      omega  full diag
   1  -3771.8173116 -0.377182E+04  0.133E-02   10.88       0.0  T
   2  -3771.8173350 -0.234241E-04  0.768E-03   10.88       1.0  T
   3  -3771.8173339  0.108508E-05  0.170E-03   10.88       1.0  T
   4  -3771.8173372 -0.332197E-05  0.360E-04   10.88       4.7  T
   5  -3771.8173374 -0.107623E-06  0.178E-04   10.88       9.4  T
   6  -3771.8173374 -0.876480E-08  0.581E-05   10.88      29.0  T
     SCC iter.                  ...        7 min, 18.147 sec
     gradient                   ...        4 min, 12.206 sec
 * total energy  : -3716.1439125 Eh     change    :  -0.5442704E-02 Eh
   gradient norm :     0.0536158 Eh/a0  converged?    E=F G=F D=F
   time step     :     0.8630678 fs     power     :   0.4493314E-07
   step length   :     0.2912079 a0     speed     :   0.8161563E-02

........................................................................
.............................. CYCLE   39 ..............................
........................................................................

 iter      E             dE          RMSdq      gap      omega  full diag
   1  -3771.9525765 -0.377195E+04  0.119E-02   10.91       0.0  T
   2  -3771.9525910 -0.144689E-04  0.692E-03   10.91       1.0  T
   3  -3771.9525914 -0.400137E-06  0.103E-03   10.91       1.6  T
   4  -3771.9525921 -0.772024E-06  0.276E-04   10.91       6.1  T
   5  -3771.9525922 -0.469072E-07  0.145E-04   10.91      11.6  T
     SCC iter.                  ...        6 min, 17.838 sec
     gradient                   ...        4 min,  9.782 sec
 * total energy  : -3716.1488058 Eh     change    :  -0.4893329E-02 Eh
   gradient norm :     0.0587035 Eh/a0  converged?    E=F G=F D=F
   time step     :     0.9493746 fs     power     :   0.4074638E-07
   step length   :     0.3143466 a0     speed     :   0.8009147E-02

........................................................................
.............................. CYCLE   40 ..............................
........................................................................

 iter      E             dE          RMSdq      gap      omega  full diag
   1  -3772.0233194 -0.377202E+04  0.116E-02   10.93       0.0  T
   2  -3772.0233348 -0.154262E-04  0.691E-03   10.93       1.0  T
   3  -3772.0233330  0.182799E-05  0.157E-03   10.93       1.1  T
   4  -3772.0233375 -0.444743E-05  0.343E-04   10.93       4.9  T
   5  -3772.0233375 -0.406649E-07  0.186E-04   10.93       9.0  T
   6  -3772.0233375 -0.190926E-07  0.736E-05   10.93      22.8  T
     SCC iter.                  ...        7 min, 16.439 sec
     gradient                   ...        4 min, 11.160 sec
 * total energy  : -3716.1546392 Eh     change    :  -0.5833370E-02 Eh
   gradient norm :     0.0498951 Eh/a0  converged?    E=F G=F D=F
   time step     :     1.0443120 fs     power     :   0.4389059E-07
   step length   :     0.3417447 a0     speed     :   0.7915651E-02

........................................................................
.............................. CYCLE   41 ..............................
........................................................................

 iter      E             dE          RMSdq      gap      omega  full diag
   1  -3772.0448183 -0.377204E+04  0.127E-02   10.96       0.0  T
   2  -3772.0448492 -0.309762E-04  0.780E-03   10.96       1.0  T
   3  -3772.0448473  0.190830E-05  0.177E-03   10.96       1.0  T
   4  -3772.0448523 -0.496602E-05  0.431E-04   10.96       3.9  T
   5  -3772.0448525 -0.169495E-06  0.230E-04   10.96       7.3  T
   6  -3772.0448525 -0.343202E-07  0.104E-04   10.96      16.2  T
     SCC iter.                  ...        7 min, 17.559 sec
     gradient                   ...        4 min, 12.334 sec
 * total energy  : -3716.1596412 Eh     change    :  -0.5001984E-02 Eh
   gradient norm :     0.0501968 Eh/a0  converged?    E=F G=F D=F
   time step     :     1.1487432 fs     power     :   0.2116843E-07
   step length   :     0.3741588 a0     speed     :   0.7878582E-02

........................................................................
.............................. CYCLE   42 ..............................
........................................................................

 iter      E             dE          RMSdq      gap      omega  full diag
   1  -3772.1104965 -0.377211E+04  0.141E-02   10.99       0.0  T
   2  -3772.1105052 -0.873136E-05  0.819E-03   10.99       1.0  T
   3  -3772.1105056 -0.322886E-06  0.101E-03   10.99       1.7  T
   4  -3772.1105067 -0.115411E-05  0.321E-04   10.99       5.2  T
   5  -3772.1105067 -0.267019E-07  0.158E-04   10.99      10.7  T
   6  -3772.1105067 -0.972977E-08  0.462E-05   10.99      36.4  T
     SCC iter.                  ...        7 min, 19.292 sec
     gradient                   ...        4 min, 12.003 sec
 * total energy  : -3716.1636837 Eh     change    :  -0.4042494E-02 Eh
   gradient norm :     0.0475442 Eh/a0  converged?    E=F G=F D=F
   time step     :     1.2500000 fs     power     :   0.8761650E-08
   step length   :     0.3978806 a0     speed     :   0.7699417E-02
 * RMSD in coord.:     0.0596215 a0     energy gain  -0.1107554E+00 Eh

........................................................................
.............................. CYCLE   43 ..............................
........................................................................

 iter      E             dE          RMSdq      gap      omega  full diag
   1  -3772.1240409 -0.377212E+04  0.239E-03   11.00       0.0  T
   2  -3772.1240412 -0.279080E-06  0.138E-03   11.00       1.2  T
   3  -3772.1240412  0.138871E-07  0.208E-04   11.00       8.1  T
   4  -3772.1240413 -0.587161E-07  0.514E-05   11.00      32.7  T
     SCC iter.                  ...        5 min,  1.144 sec
     gradient                   ...        4 min, 11.868 sec
 * total energy  : -3716.1642626 Eh     change    :  -0.5788634E-03 Eh
   gradient norm :     0.0478180 Eh/a0  converged?    E=F G=F D=F
   time step     :     0.2500000 fs     power     :   0.2646328E-07
   step length   :     0.0728819 a0     speed     :   0.7051720E-02

........................................................................
.............................. CYCLE   44 ..............................
........................................................................

 iter      E             dE          RMSdq      gap      omega  full diag
   1  -3772.1369681 -0.377214E+04  0.229E-03   11.01       0.0  T
   2  -3772.1369686 -0.533559E-06  0.134E-03   11.01       1.3  T
   3  -3772.1369686  0.232976E-07  0.241E-04   11.01       7.0  T
   4  -3772.1369687 -0.706250E-07  0.499E-05   11.01      33.7  T
     SCC iter.                  ...        5 min,  0.157 sec
     gradient                   ...        4 min, 12.244 sec
 * total energy  : -3716.1651123 Eh     change    :  -0.8497253E-03 Eh
   gradient norm :     0.0443496 Eh/a0  converged?    E=F G=F D=F
   time step     :     0.2500000 fs     power     :   0.4076886E-07
   step length   :     0.0677770 a0     speed     :   0.6557791E-02

........................................................................
.............................. CYCLE   45 ..............................
........................................................................

 iter      E             dE          RMSdq      gap      omega  full diag
   1  -3772.1476734 -0.377215E+04  0.245E-03   11.01       0.0  T
   2  -3772.1476742 -0.846358E-06  0.147E-03   11.01       1.1  T
   3  -3772.1476742  0.123282E-07  0.268E-04   11.01       6.3  T
   4  -3772.1476743 -0.746140E-07  0.614E-05   11.01      27.4  T
     SCC iter.                  ...        4 min, 58.699 sec
     gradient                   ...        4 min, 11.692 sec
 * total energy  : -3716.1661092 Eh     change    :  -0.9969425E-03 Eh
   gradient norm :     0.0382386 Eh/a0  converged?    E=F G=F D=F
   time step     :     0.2500000 fs     power     :   0.4705111E-07
   step length   :     0.0640402 a0     speed     :   0.6196231E-02

........................................................................
.............................. CYCLE   46 ..............................
........................................................................

 iter      E             dE          RMSdq      gap      omega  full diag
   1  -3772.1544634 -0.377215E+04  0.269E-03   11.02       0.0  T
   2  -3772.1544644 -0.103760E-05  0.163E-03   11.02       1.0  T
   3  -3772.1544645 -0.577256E-08  0.277E-04   11.02       6.1  T
   4  -3772.1544645 -0.769755E-07  0.725E-05   11.02      23.2  T
     SCC iter.                  ...        4 min, 55.353 sec
     gradient                   ...        4 min, 11.249 sec
 * total energy  : -3716.1670920 Eh     change    :  -0.9827658E-03 Eh
   gradient norm :     0.0311766 Eh/a0  converged?    E=F G=F D=F
   time step     :     0.2500000 fs     power     :   0.4442230E-07
   step length   :     0.0612975 a0     speed     :   0.5930864E-02

........................................................................
.............................. CYCLE   47 ..............................
........................................................................

 iter      E             dE          RMSdq      gap      omega  full diag
   1  -3772.1556335 -0.377216E+04  0.288E-03   11.02       0.0  T
   2  -3772.1556345 -0.101721E-05  0.175E-03   11.02       1.0  T
   3  -3772.1556345 -0.222094E-07  0.269E-04   11.02       6.2  T
   4  -3772.1556346 -0.804639E-07  0.808E-05   11.02      20.8  T
     SCC iter.                  ...        4 min, 53.020 sec
     gradient                   ...        4 min, 10.769 sec
 * total energy  : -3716.1679247 Eh     change    :  -0.8327042E-03 Eh
   gradient norm :     0.0256254 Eh/a0  converged?    E=F G=F D=F
   time step     :     0.2500000 fs     power     :   0.3523345E-07
   step length   :     0.0590869 a0     speed     :   0.5716973E-02

........................................................................
.............................. CYCLE   48 ..............................
........................................................................

 iter      E             dE          RMSdq      gap      omega  full diag
   1  -3772.1492518 -0.377215E+04  0.321E-03   11.02       0.0  T
   2  -3772.1492528 -0.984568E-06  0.193E-03   11.02       1.0  T
   3  -3772.1492528 -0.273403E-07  0.288E-04   11.02       5.8  T
   4  -3772.1492529 -0.114110E-06  0.954E-05   11.02      17.6  T
     SCC iter.                  ...        4 min, 55.527 sec
     gradient                   ...        4 min, 12.516 sec
 * total energy  : -3716.1685962 Eh     change    :  -0.6715177E-03 Eh
   gradient norm :     0.0241172 Eh/a0  converged?    E=F G=F D=F
   time step     :     0.2750000 fs     power     :   0.2280234E-07
   step length   :     0.0625900 a0     speed     :   0.5505378E-02

........................................................................
.............................. CYCLE   49 ..............................
........................................................................

 iter      E             dE          RMSdq      gap      omega  full diag
   1  -3772.1344345 -0.377213E+04  0.330E-03   11.03       0.0  T
   2  -3772.1344354 -0.844754E-06  0.195E-03   11.03       1.0  T
   3  -3772.1344354 -0.367891E-08  0.317E-04   11.03       5.3  T
   4  -3772.1344355 -0.163947E-06  0.102E-04   11.03      16.4  T
     SCC iter.                  ...        4 min, 55.191 sec
     gradient                   ...        4 min, 11.688 sec
 * total energy  : -3716.1690930 Eh     change    :  -0.4968007E-03 Eh
   gradient norm :     0.0270586 Eh/a0  converged?    E=F G=F D=F
   time step     :     0.3025000 fs     power     :   0.1362683E-07
   step length   :     0.0653615 a0     speed     :   0.5226511E-02

........................................................................
.............................. CYCLE   50 ..............................
........................................................................

 iter      E             dE          RMSdq      gap      omega  full diag
   1  -3772.1131865 -0.377211E+04  0.319E-03   11.03       0.0  T
   2  -3772.1131874 -0.813774E-06  0.185E-03   11.03       1.0  T
   3  -3772.1131873  0.165605E-07  0.336E-04   11.03       5.0  T
   4  -3772.1131875 -0.179049E-06  0.969E-05   11.03      17.4  T
     SCC iter.                  ...        4 min, 55.713 sec
     gradient                   ...        4 min, 12.249 sec
 * total energy  : -3716.1695233 Eh     change    :  -0.4302516E-03 Eh
   gradient norm :     0.0308536 Eh/a0  converged?    E=F G=F D=F
   time step     :     0.3327500 fs     power     :   0.1137918E-07
   step length   :     0.0672853 a0     speed     :   0.4891221E-02

........................................................................
.............................. CYCLE   51 ..............................
........................................................................

 iter      E             dE          RMSdq      gap      omega  full diag
   1  -3772.0888507 -0.377209E+04  0.305E-03   11.04       0.0  T
   2  -3772.0888517 -0.942684E-06  0.175E-03   11.04       1.0  T
   3  -3772.0888517  0.152186E-07  0.335E-04   11.04       5.0  T
   4  -3772.0888518 -0.145296E-06  0.837E-05   11.04      20.1  T
     SCC iter.                  ...        4 min, 59.700 sec
     gradient                   ...        4 min, 11.738 sec
 * total energy  : -3716.1700383 Eh     change    :  -0.5150565E-03 Eh
   gradient norm :     0.0326544 Eh/a0  converged?    E=F G=F D=F
   time step     :     0.3660250 fs     power     :   0.1468436E-07
   step length   :     0.0692240 a0     speed     :   0.4574682E-02

........................................................................
.............................. CYCLE   52 ..............................
........................................................................

 iter      E             dE          RMSdq      gap      omega  full diag
   1  -3772.0653481 -0.377207E+04  0.309E-03   11.04       0.0  T
   2  -3772.0653492 -0.112157E-05  0.177E-03   11.04       1.0  T
   3  -3772.0653492  0.684304E-08  0.322E-04   11.04       5.2  T
   4  -3772.0653493 -0.100671E-06  0.706E-05   11.04      23.8  T
     SCC iter.                  ...        4 min, 56.949 sec
     gradient                   ...        4 min, 10.784 sec
 * total energy  : -3716.1707370 Eh     change    :  -0.6986615E-03 Eh
   gradient norm :     0.0314765 Eh/a0  converged?    E=F G=F D=F
   time step     :     0.4026275 fs     power     :   0.1955275E-07
   step length   :     0.0720515 a0     speed     :   0.4328674E-02

........................................................................
.............................. CYCLE   53 ..............................
........................................................................

 iter      E             dE          RMSdq      gap      omega  full diag
   1  -3772.0471828 -0.377205E+04  0.337E-03   11.04       0.0  T
   2  -3772.0471839 -0.116686E-05  0.196E-03   11.04       1.0  T
   3  -3772.0471839 -0.502314E-08  0.296E-04   11.04       5.7  T
   4  -3772.0471840 -0.742375E-07  0.629E-05   11.04      26.8  T
     SCC iter.                  ...        5 min,  0.558 sec
     gradient                   ...        4 min, 12.459 sec
 * total energy  : -3716.1716074 Eh     change    :  -0.8704064E-03 Eh
   gradient norm :     0.0278235 Eh/a0  converged?    E=F G=F D=F
   time step     :     0.4428903 fs     power     :   0.2189171E-07
   step length   :     0.0762974 a0     speed     :   0.4167050E-02

........................................................................
.............................. CYCLE   54 ..............................
........................................................................

 iter      E             dE          RMSdq      gap      omega  full diag
   1  -3772.0392356 -0.377204E+04  0.376E-03   11.05       0.0  T
   2  -3772.0392365 -0.972675E-06  0.222E-03   11.05       1.0  T
   3  -3772.0392365 -0.978207E-08  0.275E-04   11.05       6.1  T
   4  -3772.0392366 -0.916825E-07  0.750E-05   11.05      22.4  T
     SCC iter.                  ...        4 min, 58.457 sec
     gradient                   ...        4 min, 13.512 sec
 * total energy  : -3716.1725275 Eh     change    :  -0.9200753E-03 Eh
   gradient norm :     0.0237211 Eh/a0  converged?    E=F G=F D=F
   time step     :     0.4871793 fs     power     :   0.1960286E-07
   step length   :     0.0819516 a0     speed     :   0.4068961E-02

........................................................................
.............................. CYCLE   55 ..............................
........................................................................

 iter      E             dE          RMSdq      gap      omega  full diag
   1  -3772.0452966 -0.377205E+04  0.400E-03   11.05       0.0  T
   2  -3772.0452974 -0.794769E-06  0.237E-03   11.05       1.0  T
   3  -3772.0452974  0.199657E-07  0.310E-04   11.05       5.4  T
   4  -3772.0452976 -0.173308E-06  0.990E-05   11.05      17.0  T
     SCC iter.                  ...        4 min, 52.653 sec
     gradient                   ...        4 min, 12.268 sec
 * total energy  : -3716.1733467 Eh     change    :  -0.8192449E-03 Eh
   gradient norm :     0.0220677 Eh/a0  converged?    E=F G=F D=F
   time step     :     0.5358972 fs     power     :   0.1410080E-07
   step length   :     0.0882952 a0     speed     :   0.3985389E-02

........................................................................
.............................. CYCLE   56 ..............................
........................................................................

 iter      E             dE          RMSdq      gap      omega  full diag
   1  -3772.0643483 -0.377206E+04  0.389E-03   11.05       0.0  T
   2  -3772.0643495 -0.114456E-05  0.230E-03   11.05       1.0  T
   3  -3772.0643495  0.288319E-07  0.368E-04   11.05       4.6  T
   4  -3772.0643497 -0.206481E-06  0.111E-04   11.05      15.2  T
     SCC iter.                  ...        4 min, 59.749 sec
     gradient                   ...        4 min, 10.079 sec
 * total energy  : -3716.1740231 Eh     change    :  -0.6763608E-03 Eh
   gradient norm :     0.0236336 Eh/a0  converged?    E=F G=F D=F
   time step     :     0.5894869 fs     power     :   0.9613346E-08
   step length   :     0.0941589 a0     speed     :   0.3863689E-02

........................................................................
.............................. CYCLE   57 ..............................
........................................................................

 iter      E             dE          RMSdq      gap      omega  full diag
   1  -3772.0889523 -0.377209E+04  0.356E-03   11.05       0.0  T
   2  -3772.0889540 -0.167592E-05  0.209E-03   11.05       1.0  T
   3  -3772.0889540 -0.130613E-07  0.392E-04   11.05       4.3  T
   4  -3772.0889541 -0.133334E-06  0.105E-04   11.05      16.0  T
     SCC iter.                  ...        5 min,  3.244 sec
     gradient                   ...        4 min, 12.047 sec
 * total energy  : -3716.1746887 Eh     change    :  -0.6656625E-03 Eh
   gradient norm :     0.0260368 Eh/a0  converged?    E=F G=F D=F
   time step     :     0.6484356 fs     power     :   0.9417767E-08
   step length   :     0.0994396 a0     speed     :   0.3709435E-02

........................................................................
.............................. CYCLE   58 ..............................
........................................................................

 iter      E             dE          RMSdq      gap      omega  full diag
   1  -3772.1087889 -0.377211E+04  0.339E-03   11.06       0.0  T
   2  -3772.1087903 -0.143957E-05  0.199E-03   11.06       1.0  T
   3  -3772.1087903 -0.432074E-07  0.339E-04   11.06       5.0  T
   4  -3772.1087904 -0.749137E-07  0.901E-05   11.06      18.7  T
     SCC iter.                  ...        4 min, 55.378 sec
     gradient                   ...        4 min, 11.568 sec
 * total energy  : -3716.1755585 Eh     change    :  -0.8697657E-03 Eh
   gradient norm :     0.0262251 Eh/a0  converged?    E=F G=F D=F
   time step     :     0.7132792 fs     power     :   0.1298282E-07
   step length   :     0.1057615 a0     speed     :   0.3586602E-02

........................................................................
.............................. CYCLE   59 ..............................
........................................................................

 iter      E             dE          RMSdq      gap      omega  full diag
   1  -3772.1141829 -0.377211E+04  0.370E-03   11.06       0.0  T
   2  -3772.1141837 -0.780770E-06  0.216E-03   11.06       1.0  T
   3  -3772.1141837 -0.681130E-07  0.288E-04   11.06       5.8  T
   4  -3772.1141838 -0.787477E-07  0.988E-05   11.06      17.0  T
     SCC iter.                  ...        4 min, 56.757 sec
     gradient                   ...        4 min, 11.440 sec
 * total energy  : -3716.1767064 Eh     change    :  -0.1147911E-02 Eh
   gradient norm :     0.0227043 Eh/a0  converged?    E=F G=F D=F
   time step     :     0.7846071 fs     power     :   0.1566959E-07
   step length   :     0.1150406 a0     speed     :   0.3546613E-02

........................................................................
.............................. CYCLE   60 ..............................
........................................................................

 iter      E             dE          RMSdq      gap      omega  full diag
   1  -3772.0993782 -0.377210E+04  0.437E-03   11.06       0.0  T
   2  -3772.0993796 -0.141477E-05  0.254E-03   11.06       1.0  T
   3  -3772.0993797 -0.841619E-07  0.406E-04   11.06       4.1  T
   4  -3772.0993798 -0.138935E-06  0.120E-04   11.06      14.1  T
     SCC iter.                  ...        4 min, 58.661 sec
     gradient                   ...        4 min, 11.481 sec
 * total energy  : -3716.1779028 Eh     change    :  -0.1196401E-02 Eh
   gradient norm :     0.0200055 Eh/a0  converged?    E=F G=F D=F
   time step     :     0.8630678 fs     power     :   0.1305204E-07
   step length   :     0.1274701 a0     speed     :   0.3572551E-02

........................................................................
.............................. CYCLE   61 ..............................
........................................................................

 iter      E             dE          RMSdq      gap      omega  full diag
   1  -3772.0692028 -0.377207E+04  0.456E-03   11.07       0.0  T
   2  -3772.0692053 -0.250649E-05  0.263E-03   11.07       1.0  T
   3  -3772.0692054 -0.954619E-07  0.503E-04   11.07       3.3  T
   4  -3772.0692055 -0.141708E-06  0.121E-04   11.07      13.9  T
     SCC iter.                  ...        4 min, 54.920 sec
     gradient                   ...        4 min, 12.397 sec
 * total energy  : -3716.1790006 Eh     change    :  -0.1097807E-02 Eh
   gradient norm :     0.0228883 Eh/a0  converged?    E=F G=F D=F
   time step     :     0.9493746 fs     power     :   0.1060724E-07
   step length   :     0.1403657 a0     speed     :   0.3576338E-02

........................................................................
.............................. CYCLE   62 ..............................
........................................................................

 iter      E             dE          RMSdq      gap      omega  full diag
   1  -3772.0419806 -0.377204E+04  0.426E-03   11.08       0.0  T
   2  -3772.0419824 -0.178677E-05  0.244E-03   11.08       1.0  T
   3  -3772.0419825 -0.996301E-07  0.438E-04   11.08       3.8  T
   4  -3772.0419827 -0.117034E-06  0.118E-04   11.08      14.3  T
     SCC iter.                  ...        4 min, 54.346 sec
     gradient                   ...        4 min, 12.140 sec
 * total energy  : -3716.1803274 Eh     change    :  -0.1326792E-02 Eh
   gradient norm :     0.0217844 Eh/a0  converged?    E=F G=F D=F
   time step     :     1.0443120 fs     power     :   0.1331504E-07
   step length   :     0.1539014 a0     speed     :   0.3564735E-02

........................................................................
[...]
  3286   6 C     3287   6 C                                       1.5351270
  3287   6 C     3288   6 C                                       1.5291617
  3289   6 C     3290   6 C                                       1.5390266
  3290   6 C     3291   6 C                                       1.5312153
  3290   6 C     3292   6 C                                       1.5378539
  3292   6 C     3293   6 C                                       1.5320979
  3293   6 C     3294   6 C                                       1.5286438
  3293   6 C     3295   6 C                                       1.5378435
  3295   6 C     3296   6 C                                       1.5341038
  3296   6 C     3297   6 C                                       1.5248520
  3296   6 C     3298   6 C                                       1.5359663
  3298   6 C     3299   6 C                                       1.5336447
  3299   6 C     3300   6 C                                       1.5279491
  3299   6 C     3301   6 C                                       1.5397535
  3301   6 C     3302   6 C                                       1.5377974
  3302   6 C     3303   6 C                                       1.5260820
  3302   6 C     3304   6 C                                       1.5345903
  3304   6 C     3305   6 C                                       1.5355593
  3305   6 C     3306   6 C                                       1.5283339
  3305   6 C     3307   6 C                                       1.5316786
  3307   6 C     3308   6 C                                       1.5398801
  3308   6 C     3309   6 C                                       1.5287172
  3308   6 C     3310   6 C                                       1.5348147
  3310   6 C     3311   6 C                                       1.5370359
  3311   6 C     3312   6 C                                       1.5313407
  3311   6 C     3313   6 C                                       1.5354173
  3313   6 C     3314   6 C                                       1.5339638
  3314   6 C     3315   6 C                                       1.5292840
  3316   6 C     3317   6 C                                       1.5393354
  3317   6 C     3318   6 C                                       1.5247371
  3317   6 C     3319   6 C                                       1.5333783
  3319   6 C     3320   6 C                                       1.5365590
  3320   6 C     3321   6 C                                       1.5300222
  3320   6 C     3322   6 C                                       1.5343401
  3322   6 C     3323   6 C                                       1.5395943
  3323   6 C     3324   6 C                                       1.5306988
  3323   6 C     3325   6 C                                       1.5355963
  3325   6 C     3326   6 C                                       1.5353415
  3326   6 C     3327   6 C                                       1.5267761
  3326   6 C     3328   6 C                                       1.5371030
  3328   6 C     3329   6 C                                       1.5369479
  3329   6 C     3330   6 C                                       1.5293378
  3329   6 C     3331   6 C                                       1.5314417
  3331   6 C     3332   6 C                                       1.5363633
  3332   6 C     3333   6 C                                       1.5283863
  3332   6 C     3334   6 C                                       1.5348541
  3334   6 C     3335   6 C                                       1.5359862
  3335   6 C     3336   6 C                                       1.5283739
  3335   6 C     3337   6 C                                       1.5338778
  3338   6 C     3339   6 C                                       1.5288636
  3338   6 C     3340   6 C                                       1.5356875
  3340   6 C     3341   6 C                                       1.5367426
  3341   6 C     3342   6 C                                       1.5262084
  3341   6 C     3343   6 C                                       1.5347139
  3343   6 C     3344   6 C                                       1.5359614
  3344   6 C     3345   6 C                                       1.5284562
  3344   6 C     3346   6 C                                       1.5330351
  3346   6 C     3347   6 C                                       1.5363146
  3347   6 C     3348   6 C                                       1.5290160
  3347   6 C     3349   6 C                                       1.5318463
  3349   6 C     3350   6 C                                       1.5325820
  3350   6 C     3351   6 C                                       1.5279206
  3350   6 C     3352   6 C                                       1.5353403
  3352   6 C     3353   6 C                                       1.5270482
  3353   6 C     3354   6 C                                       1.5245342
  3265   6 C     3355   1 H                                       1.0885146
  3265   6 C     3356   1 H                                       1.0870607
  3265   6 C     3357   1 H                                       1.0880447
  3354   6 C     3358   1 H                                       1.0881432
  3354   6 C     3359   1 H                                       1.0885445
  3354   6 C     3360   1 H                                       1.0885357
  3352   6 C     3361   1 H                                       1.0943736
  3352   6 C     3362   1 H                                       1.0929127
  3349   6 C     3363   1 H                                       1.0902276
  3349   6 C     3364   1 H                                       1.0933605
  3347   6 C     3365   1 H                                       1.0939145
  3348   6 C     3366   1 H                                       1.0887219
  3348   6 C     3367   1 H                                       1.0865719
  3348   6 C     3368   1 H                                       1.0882913
  3346   6 C     3369   1 H                                       1.0915424
  3346   6 C     3370   1 H                                       1.0942891
  3343   6 C     3371   1 H                                       1.0939665
  3343   6 C     3372   1 H                                       1.0932549
  3350   6 C     3373   1 H                                       1.0953981
  3351   6 C     3374   1 H                                       1.0863301
  3351   6 C     3375   1 H                                       1.0880815
  3351   6 C     3376   1 H                                       1.0868507
  3344   6 C     3377   1 H                                       1.0921003
  3345   6 C     3378   1 H                                       1.0870708
  3345   6 C     3379   1 H                                       1.0885913
  3345   6 C     3380   1 H                                       1.0886406
  3341   6 C     3381   1 H                                       1.0931399
  3342   6 C     3382   1 H                                       1.0877625
  3342   6 C     3383   1 H                                       1.0866825
  3342   6 C     3384   1 H                                       1.0876092
  3340   6 C     3385   1 H                                       1.0933139
  3340   6 C     3386   1 H                                       1.0927870
  3338   6 C     3387   1 H                                       1.0951586
  3339   6 C     3388   1 H                                       1.0869690
  3339   6 C     3389   1 H                                       1.0887068
  3339   6 C     3390   1 H                                       1.0885735
  3337   6 C     3391   1 H                                       1.0899354
  3337   6 C     3392   1 H                                       1.0925396
  3335   6 C     3393   1 H                                       1.0935169
  3336   6 C     3394   1 H                                       1.0887128
  3336   6 C     3395   1 H                                       1.0879001
  3336   6 C     3396   1 H                                       1.0872768
  3334   6 C     3397   1 H                                       1.0920613
  3334   6 C     3398   1 H                                       1.0937745
  3332   6 C     3399   1 H                                       1.0934934
  3333   6 C     3400   1 H                                       1.0863035
  3333   6 C     3401   1 H                                       1.0882546
  3333   6 C     3402   1 H                                       1.0886308
  3331   6 C     3403   1 H                                       1.0908031
  3331   6 C     3404   1 H                                       1.0935048
  3329   6 C     3405   1 H                                       1.0931807
  3330   6 C     3406   1 H                                       1.0882645
  3330   6 C     3407   1 H                                       1.0882357
  3330   6 C     3408   1 H                                       1.0866551
  3328   6 C     3409   1 H                                       1.0937366
  3328   6 C     3410   1 H                                       1.0940637
  3326   6 C     3411   1 H                                       1.0922965
  3327   6 C     3412   1 H                                       1.0883857
  3327   6 C     3413   1 H                                       1.0867460
  3327   6 C     3414   1 H                                       1.0868153
  3325   6 C     3415   1 H                                       1.0939931
  3325   6 C     3416   1 H                                       1.0940270
  3323   6 C     3417   1 H                                       1.0928745
  3324   6 C     3418   1 H                                       1.0884994
  3324   6 C     3419   1 H                                       1.0880024
  3324   6 C     3420   1 H                                       1.0882749
  3322   6 C     3421   1 H                                       1.0909143
  3322   6 C     3422   1 H                                       1.0932751
  3320   6 C     3423   1 H                                       1.0929565
  3321   6 C     3424   1 H                                       1.0883760
  3321   6 C     3425   1 H                                       1.0882369
  3321   6 C     3426   1 H                                       1.0871236
  3319   6 C     3427   1 H                                       1.0929340
  3319   6 C     3428   1 H                                       1.0918779
  3317   6 C     3429   1 H                                       1.0969411
  3318   6 C     3430   1 H                                       1.0876336
  3318   6 C     3431   1 H                                       1.0872316
  3318   6 C     3432   1 H                                       1.0863789
  3316   6 C     3433   1 H                                       1.0931485
  3316   6 C     3434   1 H                                       1.0916857
  3314   6 C     3435   1 H                                       1.0903867
  3315   6 C     3436   1 H                                       1.0867311
  3315   6 C     3437   1 H                                       1.0873315
  3315   6 C     3438   1 H                                       1.0878450
  3313   6 C     3439   1 H                                       1.0901728
  3313   6 C     3440   1 H                                       1.0939686
  3311   6 C     3441   1 H                                       1.0918254
  3312   6 C     3442   1 H                                       1.0867596
  3312   6 C     3443   1 H                                       1.0862797
  3312   6 C     3444   1 H                                       1.0885055
  3310   6 C     3445   1 H                                       1.0925714
  3310   6 C     3446   1 H                                       1.0946680
  3308   6 C     3447   1 H                                       1.0933388
  3309   6 C     3448   1 H                                       1.0856814
  3309   6 C     3449   1 H                                       1.0881733
  3309   6 C     3450   1 H                                       1.0882389
  3307   6 C     3451   1 H                                       1.0917540
  3307   6 C     3452   1 H                                       1.0942801
  3305   6 C     3453   1 H                                       1.0921884
  3306   6 C     3454   1 H                                       1.0887746
  3306   6 C     3455   1 H                                       1.0881678
  3306   6 C     3456   1 H                                       1.0857050
  3304   6 C     3457   1 H                                       1.0946424
  3304   6 C     3458   1 H                                       1.0941799
  3302   6 C     3459   1 H                                       1.0948667
  3303   6 C     3460   1 H                                       1.0876472
  3303   6 C     3461   1 H                                       1.0880859
  3303   6 C     3462   1 H                                       1.0864847
  3301   6 C     3463   1 H                                       1.0919018
  3301   6 C     3464   1 H                                       1.0922643
  3299   6 C     3465   1 H                                       1.0938332
  3300   6 C     3466   1 H                                       1.0881569
  3300   6 C     3467   1 H                                       1.0876086
  3300   6 C     3468   1 H                                       1.0888422
  3298   6 C     3469   1 H                                       1.0938183
  3298   6 C     3470   1 H                                       1.0929496
  3296   6 C     3471   1 H                                       1.0918784
  3297   6 C     3472   1 H                                       1.0877080
  3297   6 C     3473   1 H                                       1.0867592
  3297   6 C     3474   1 H                                       1.0870479
  3295   6 C     3475   1 H                                       1.0944659
  3295   6 C     3476   1 H                                       1.0939580
  3293   6 C     3477   1 H                                       1.0928577
  3294   6 C     3478   1 H                                       1.0850787
  3294   6 C     3479   1 H                                       1.0883931
  3294   6 C     3480   1 H                                       1.0887276
  3292   6 C     3481   1 H                                       1.0916782
  3292   6 C     3482   1 H                                       1.0941024
  3290   6 C     3483   1 H                                       1.0923169
  3291   6 C     3484   1 H                                       1.0889314
  3291   6 C     3485   1 H                                       1.0844103
  3291   6 C     3486   1 H                                       1.0890284
  3289   6 C     3487   1 H                                       1.0914848
  3289   6 C     3488   1 H                                       1.0920390
  3287   6 C     3489   1 H                                       1.0963378
  3288   6 C     3490   1 H                                       1.0884875
  3288   6 C     3491   1 H                                       1.0879005
  3288   6 C     3492   1 H                                       1.0877982
  3286   6 C     3493   1 H                                       1.0907396
  3286   6 C     3494   1 H                                       1.0935777
  3284   6 C     3495   1 H                                       1.0927113
  3285   6 C     3496   1 H                                       1.0871319
  3285   6 C     3497   1 H                                       1.0890120
  3285   6 C     3498   1 H                                       1.0869975
  3283   6 C     3499   1 H                                       1.0939530
  3283   6 C     3500   1 H                                       1.0941455
  3281   6 C     3501   1 H                                       1.0928137
  3282   6 C     3502   1 H                                       1.0886549
  3282   6 C     3503   1 H                                       1.0865729
  3282   6 C     3504   1 H                                       1.0886293
  3280   6 C     3505   1 H                                       1.0915825
  3280   6 C     3506   1 H                                       1.0939500
  3278   6 C     3507   1 H                                       1.0936101
  3279   6 C     3508   1 H                                       1.0871429
  3279   6 C     3509   1 H                                       1.0869625
  3279   6 C     3510   1 H                                       1.0879701
  3277   6 C     3511   1 H                                       1.0908442
  3277   6 C     3512   1 H                                       1.0922865
  3275   6 C     3513   1 H                                       1.0925946
  3276   6 C     3514   1 H                                       1.0885096
  3276   6 C     3515   1 H                                       1.0885323
  3276   6 C     3516   1 H                                       1.0872915
  3274   6 C     3517   1 H                                       1.0930288
  3274   6 C     3518   1 H                                       1.0931558
  3272   6 C     3519   1 H                                       1.0943857
  3273   6 C     3520   1 H                                       1.0867666
  3273   6 C     3521   1 H                                       1.0873580
  3273   6 C     3522   1 H                                       1.0885258
  3271   6 C     3523   1 H                                       1.0939133
  3271   6 C     3524   1 H                                       1.0939941
  3269   6 C     3525   1 H                                       1.0925794
  3270   6 C     3526   1 H                                       1.0868935
  3270   6 C     3527   1 H                                       1.0884279
  3270   6 C     3528   1 H                                       1.0887272
  3268   6 C     3529   1 H                                       1.0912987
  3268   6 C     3530   1 H                                       1.0936400
  3266   6 C     3531   1 H                                       1.0957707
  3267   6 C     3532   1 H                                       1.0867858
  3267   6 C     3533   1 H                                       1.0876527
  3267   6 C     3534   1 H                                       1.0878354
  3353   6 C     3535   1 H                                       1.0915248
  3353   6 C     3536   1 H                                       1.0912861

 * 2 distinct bonds (by element types)

   Z      Z             #   av. dist./Å        max./Å        min./Å
   1 H    6 C        2366     1.0902996     1.0991929     1.0842391
   6 C    6 C        1101     1.5323544     1.5399898     1.5221037


optimized geometry written to: xtbopt.xyz


           -------------------------------------------------
          | TOTAL ENERGY            -3716.247034674598 Eh   |
          | GRADIENT NORM               0.000802725544 Eh/α |
          | HOMO-LUMO GAP              11.232076255834 eV   |
           -------------------------------------------------

------------------------------------------------------------------------
 * finished run on 2024/06/24 at 13:47:30.389     
------------------------------------------------------------------------
 total:
 * wall-time:     3 d, 19 h, 46 min, 11.955 sec
 *  cpu-time:    21 d,  4 h, 54 min, 41.340 sec
 * ratio c/w:     5.546 speedup
 SCF:
 * wall-time:     0 d,  0 h,  8 min, 24.462 sec
 *  cpu-time:     0 d,  0 h, 46 min,  9.080 sec
 * ratio c/w:     5.489 speedup
 ANC optimizer:
 * wall-time:     3 d, 19 h, 36 min, 19.394 sec
 *  cpu-time:    21 d,  4 h,  6 min, 47.284 sec
 * ratio c/w:     5.547 speedup

