      -----------------------------------------------------------      
     |                   =====================                   |     
     |                           x T B                           |     
     |                   =====================                   |     
     |                         S. Grimme                         |     
     |          Mulliken Center for Theoretical Chemistry        |     
     |                    University of Bonn                     |     
      -----------------------------------------------------------      

   * xtb version 6.6.1 (8d0f1dd) compiled by 'stahn@M-Bot' on 2023-08-01

   xtb is free software: you can redistribute it and/or modify it under
   the terms of the GNU Lesser General Public License as published by
   the Free Software Foundation, either version 3 of the License, or
   (at your option) any later version.
   
   xtb is distributed in the hope that it will be useful,
   but WITHOUT ANY WARRANTY; without even the implied warranty of
   MERCHANTABILITY or FITNESS FOR A PARTICULAR PURPOSE.  See the
   GNU Lesser General Public License for more details.
   
   Cite this work as:
   * C. Bannwarth, E. Caldeweyher, S. Ehlert, A. Hansen, P. Pracht,
     J. Seibert, S. Spicher, S. Grimme, WIREs Comput. Mol. Sci., 2020, 11,
     e01493. DOI: 10.1002/wcms.1493
   
   for GFN2-xTB:
   * C. Bannwarth, S. Ehlert and S. Grimme., J. Chem. Theory Comput., 2019,
     15, 1652-1671. DOI: 10.1021/acs.jctc.8b01176
   for GFN1-xTB:
   * S. Grimme, C. Bannwarth, P. Shushkov, J. Chem. Theory Comput., 2017,
     13, 1989-2009. DOI: 10.1021/acs.jctc.7b00118
   for GFN0-xTB:
   * P. Pracht, E. Caldeweyher, S. Ehlert, S. Grimme, ChemRxiv, 2019, preprint.
     DOI: 10.26434/chemrxiv.8326202.v1
   for GFN-FF:
   * S. Spicher and S. Grimme, Angew. Chem. Int. Ed., 2020, 59, 15665-15673.
     DOI: 10.1002/anie.202004239
   
   for ALPB and GBSA implicit solvation:
   * S. Ehlert, M. Stahn, S. Spicher, S. Grimme, J. Chem. Theory Comput.,
     2021, 17, 4250-4261. DOI: 10.1021/acs.jctc.1c00471
   
   for DFT-D4:
   * E. Caldeweyher, C. Bannwarth and S. Grimme, J. Chem. Phys., 2017,
     147, 034112. DOI: 10.1063/1.4993215
   * E. Caldeweyher, S. Ehlert, A. Hansen, H. Neugebauer, S. Spicher,
     C. Bannwarth and S. Grimme, J. Chem. Phys., 2019, 150, 154122.
     DOI: 10.1063/1.5090222
   * E. Caldeweyher, J.-M. Mewes, S. Ehlert and S. Grimme, Phys. Chem. Chem. Phys.
     2020, 22, 8499-8512. DOI: 10.1039/D0CP00502A
   
   for sTDA-xTB:
   * S. Grimme and C. Bannwarth, J. Chem. Phys., 2016, 145, 054103.
     DOI: 10.1063/1.4959605
   
   in the mass-spec context:
   * V. Asgeirsson, C. Bauer and S. Grimme, Chem. Sci., 2017, 8, 4879.
     DOI: 10.1039/c7sc00601b
   * J. Koopman and S. Grimme, ACS Omega 2019, 4, 12, 15120-15133.
     DOI: 10.1021/acsomega.9b02011
   
   for metadynamics refer to:
   * S. Grimme, J. Chem. Theory Comput., 2019, 155, 2847-2862
     DOI: 10.1021/acs.jctc.9b00143
   
   for SPH calculations refer to:
   * S. Spicher and S. Grimme, J. Chem. Theory Comput., 2021, 17, 1701-1714
     DOI: 10.1021/acs.jctc.0c01306
   
   with help from (in alphabetical order)
   P. Atkinson, C. Bannwarth, F. Bohle, G. Brandenburg, E. Caldeweyher
   M. Checinski, S. Dohm, S. Ehlert, S. Ehrlich, I. Gerasimov, C. Hölzer
   A. Katbashev, J. Koopman, C. Lavigne, S. Lehtola, F. März, M. Müller,
   F. Musil, H. Neugebauer, J. Pisarek, C. Plett, P. Pracht, F. Pultar,
   J. Seibert, P. Shushkov, S. Spicher, M. Stahn, M. Steiner, T. Strunk,
   J. Stückrath, T. Rose, and J. Unsleber
   
 * started run on 2024/06/17 at 15:18:46.192     

           -------------------------------------------------
          |                Calculation Setup                |
           -------------------------------------------------

          program call               : /home/abt-grimme/AK-bin/xtb input.xyz --input input.inp --opt --gbsa water
          hostname                   : boar034.thch.uni-bonn.de
          coordinate file            : input.xyz
          omp threads                :                     8

   ID    Z sym.   atoms
    1    6 C      1-120, 363-482, 725-844, 1087-1206, 1449-1568, 1811-1930,
                  2173-2292, 2535-2654, 2897-3016
    2    1 H      121-362, 483-724, 845-1086, 1207-1448, 1569-1810,
                  1931-2172, 2293-2534, 2655-2896, 3017-3258

molecular fragmentation (1/2 indicates fragments):
111111111111111111111111111111111111111111111111111111111111111111111111
111111111111111111111111111111111111111111111111111111111111111111111111
111111111111111111111111111111111111111111111111111111111111111111111111
111111111111111111111111111111111111111111111111111111111111111111111111
111111111111111111111111111111111111111111111111111111111111111111111111
112222222222222222222222222222222222222222222222222222222222222222222222
222222222222222222222222222222222222222222222222222222222222222222222222
222222222222222222222222222222222222222222222222222222222222222222222222
222222222222222222222222222222222222222222222222222222222222222222222222
222222222222222222222222222222222222222222222222222222222222222222222222
222222222222222222222222222222222222222222222222222222222222222222222222
222222222222222222222222222222222222222222222222222222222222222222222222
222222222222222222222222222222222222222222222222222222222222222222222222
222222222222222222222222222222222222222222222222222222222222222222222222
222222222222222222222222222222222222222222222222222222222222222222222222
222222222222222222222222222222222222222222222222222222222222222222222222
222222222222222222222222222222222222222222222222222222222222222222222222
222222222222222222222222222222222222222222222222222222222222222222222222
222222222222222222222222222222222222222222222222222222222222222222222222
222222222222222222222222222222222222222222222222222222222222222222222222
222222222222222222222222222222222222222222222222222222222222222222222222
222222222222222222222222222222222222222222222222222222222222222222222222
222222222222222222222222222222222222222222222222222222222222222222222222
222222222222222222222222222222222222222222222222222222222222222222222222
222222222222222222222222222222222222222222222222222222222222222222222222
222222222222222222222222222222222222222222222222222222222222222222222222
222222222222222222222222222222222222222222222222222222222222222222222222
222222222222222222222222222222222222222222222222222222222222222222222222
222222222222222222222222222222222222222222222222222222222222222222222222
222222222222222222222222222222222222222222222222222222222222222222222222
222222222222222222222222222222222222222222222222222222222222222222222222
222222222222222222222222222222222222222222222222222222222222222222222222
222222222222222222222222222222222222222222222222222222222222222222222222
222222222222222222222222222222222222222222222222222222222222222222222222
222222222222222222222222222222222222222222222222222222222222222222222222
222222222222222222222222222222222222222222222222222222222222222222222222
222222222222222222222222222222222222222222222222222222222222222222222222
222222222222222222222222222222222222222222222222222222222222222222222222
222222222222222222222222222222222222222222222222222222222222222222222222
222222222222222222222222222222222222222222222222222222222222222222222222
222222222222222222222222222222222222222222222222222222222222222222222222
222222222222222222222222222222222222222222222222222222222222222222222222
222222222222222222222222222222222222222222222222222222222222222222222222
222222222222222222222222222222222222222222222222222222222222222222222222
222222222222222222222222222222222222222222222222222222222222222222222222
222222222222222222
# atoms in fragment 1/2:   362  2896
 fragment masses (1/2) :     1685.21    13481.68
CMA distance (Bohr)    :  14.182
constraining FC (au)   :  0.0500

           -------------------------------------------------
          |                 G F N 2 - x T B                 |
           -------------------------------------------------

        Reference                      10.1021/acs.jctc.8b01176
      * Hamiltonian:
        H0-scaling (s, p, d)           1.850000    2.230000    2.230000
        zeta-weighting                 0.500000
      * Dispersion:
        s8                             2.700000
        a1                             0.520000
        a2                             5.000000
        s9                             5.000000
      * Repulsion:
        kExp                           1.500000    1.000000
        rExp                           1.000000
      * Coulomb:
        alpha                          2.000000
        third order                    shell-resolved
        anisotropic                    true
        a3                             3.000000
        a5                             4.000000
        cn-shift                       1.200000
        cn-exp                         4.000000
        max-rad                        5.000000

      * Solvation model:               GBSA
        Solvent                        water
        Parameter file                 internal GFN2-xTB/GBSA
        Dielectric constant                8.0200E+01
        Reference state                gsolv [1 M gas/solution]
        Free energy shift                  1.8574E-03 Eh       1.1656E+00 kcal/mol
        Temperature                        2.9815E+02 K
        Density                            1.0000E+00 kg/L
        Solvent mass                       1.8000E+01 g/mol
        Interaction kernel             Still
        Born radius scaling (c1)           1.5524E+00
        Born radii integrator          GBOBC
        Born offset                        2.4628E-02 a0       4.6540E-02 AA
        H-bond correction              true
        Ion screening                  false
        Surface tension                    1.0000E-05 Eh       1.5569E+01 dyn/cm
        Grid points                               230 per atom
q/qsh data taken from xtbrestart
CAMM data taken from xtbrestart

          ...................................................
          :                      SETUP                      :
          :.................................................:
          :  # basis functions                6498          :
          :  # atomic orbitals                6498          :
          :  # shells                         4338          :
          :  # electrons                      6498          :
          :  max. iterations                   250          :
          :  Hamiltonian                  GFN2-xTB          :
          :  restarted?                       true          :
          :  GBSA solvation                   true          :
          :  PC potential                    false          :
          :  electronic temp.          300.0000000     K    :
          :  accuracy                    1.0000000          :
          :  -> integral cutoff          0.2500000E+02      :
          :  -> integral neglect         0.1000000E-07      :
          :  -> SCF convergence          0.1000000E-05 Eh   :
          :  -> wf. convergence          0.1000000E-03 e    :
          :  Broyden damping             0.4000000          :
          ...................................................

 iter      E             dE          RMSdq      gap      omega  full diag
   1  -3472.3038979 -0.347230E+04  0.758E-05   10.81       0.0  T
   2  -3472.3038979 -0.413456E-08  0.596E-05   10.81      29.4  T
   3  -3472.3038979 -0.609452E-08  0.304E-05   10.81      57.6  T

   *** convergence criteria satisfied after 3 iterations ***

         #    Occupation            Energy/Eh            Energy/eV
      -------------------------------------------------------------
         1        2.0000           -0.6163299             -16.7712
       ...           ...                  ...                  ...
      3243        2.0000           -0.3860037             -10.5037
      3244        2.0000           -0.3858150             -10.4986
      3245        2.0000           -0.3856084             -10.4929
      3246        2.0000           -0.3854166             -10.4877
      3247        2.0000           -0.3845542             -10.4643
      3248        2.0000           -0.3839317             -10.4473
      3249        2.0000           -0.3832511             -10.4288 (HOMO)
      3250                          0.0139830               0.3805 (LUMO)
      3251                          0.0155723               0.4237
      3252                          0.0161139               0.4385
      3253                          0.0182878               0.4976
      3254                          0.0191107               0.5200
       ...                                ...                  ...
      6498                          0.3804201              10.3518
      -------------------------------------------------------------
                  HL-Gap            0.3972341 Eh           10.8093 eV
             Fermi-level           -0.1846341 Eh           -5.0241 eV

 SCC (total)                   0 d,  0 h,  7 min, 24.904 sec
 SCC setup                      ...        0 min,  1.689 sec (  0.380%)
 Dispersion                     ...        0 min,  3.746 sec (  0.842%)
 classical contributions        ...        0 min,  0.135 sec (  0.030%)
 integral evaluation            ...        0 min,  5.883 sec (  1.322%)
 iterations                     ...        3 min, 11.385 sec ( 43.017%)
 molecular gradient             ...        3 min, 53.240 sec ( 52.425%)
 printout                       ...        0 min,  8.826 sec (  1.984%)

         :::::::::::::::::::::::::::::::::::::::::::::::::::::
         ::                     SUMMARY                     ::
         :::::::::::::::::::::::::::::::::::::::::::::::::::::
         :: total energy           -3426.827986339831 Eh    ::
         :: total w/o Gsasa/hb     -3426.733638393873 Eh    ::
         :: gradient norm              0.636035690341 Eh/a0 ::
         :: HOMO-LUMO gap             10.809291065908 eV    ::
         ::.................................................::
         :: SCC energy             -3472.303897944059 Eh    ::
         :: -> isotropic ES            0.279377194854 Eh    ::
         :: -> anisotropic ES          1.294552098775 Eh    ::
         :: -> anisotropic XC          2.130804423710 Eh    ::
         :: -> dispersion             -4.263086826850 Eh    ::
         :: -> Gsolv                  -0.030969847757 Eh    ::
         ::    -> Gelec                0.063378098201 Eh    ::
         ::    -> Gsasa               -0.091972996815 Eh    ::
         ::    -> Ghb                 -0.004232392270 Eh    ::
         ::    -> Gshift               0.001857443127 Eh    ::
         :: repulsion energy          44.777969151849 Eh    ::
         :: add. restraining           0.000000000000 Eh    ::
         :: total charge              -0.000000000011 e     ::
         :::::::::::::::::::::::::::::::::::::::::::::::::::::

      ----------------------------------------------------------- 
     |              Fast Inertial Relaxation Engine              |
      ----------------------------------------------------------- 

          ...................................................
          :                      SETUP                      :
          :.................................................:
          :   energy convergence        0.5000000E-05 Eh    :
          :   grad. convergence         0.1000000E-02 Eh/a0 :
          :   optimization log               true           :
          :   writing optlog all                1     steps :
          :   Hessian reset                    20     steps :
          :   time step scaling                 5     steps :
          :   maximium step len.        1.0000000     a0    :
          :   initial time step         0.2500000     fs    :
          :   maximum time step         1.2500000     fs    :
          :   power reset thr           0.0000000     au    :
          :   alpha parameter           0.1000000           :
          :   BFGS update                   false           :
          :   preconditioning               false           :
          ...................................................

........................................................................
.............................. CYCLE    1 ..............................
........................................................................

 iter      E             dE          RMSdq      gap      omega  full diag
   1  -3472.5393575 -0.347254E+04  0.751E-03   10.85       0.0  T
   2  -3472.5394029 -0.453851E-04  0.394E-03   10.85       1.0  T
   3  -3472.5394033 -0.424846E-06  0.184E-03   10.85       1.0  T
   4  -3472.5394035 -0.154672E-06  0.226E-04   10.85       7.8  T
   5  -3472.5394035 -0.379755E-07  0.145E-04   10.85      12.1  T
     SCC iter.                  ...        4 min, 55.682 sec
     gradient                   ...        3 min, 51.852 sec
 * total energy  : -3426.8740196 Eh     change    :  -0.4603327E-01 Eh
   gradient norm :     0.6020494 Eh/a0  converged?    E=F G=F D=F
   time step     :     0.2500000 fs     power     :   0.2375062E-05
   step length   :     0.0745420 a0     speed     :   0.7212342E-02

........................................................................
.............................. CYCLE    2 ..............................
........................................................................

 iter      E             dE          RMSdq      gap      omega  full diag
   1  -3472.8862325 -0.347289E+04  0.110E-02   10.90       0.0  T
   2  -3472.8863296 -0.970496E-04  0.577E-03   10.90       1.0  T
   3  -3472.8863306 -0.982039E-06  0.269E-03   10.90       1.0  T
   4  -3472.8863309 -0.380979E-06  0.350E-04   10.90       5.0  T
   5  -3472.8863310 -0.905443E-07  0.232E-04   10.90       7.6  T
     SCC iter.                  ...        4 min, 58.590 sec
     gradient                   ...        3 min, 58.592 sec
 * total energy  : -3426.9372724 Eh     change    :  -0.6325276E-01 Eh
   gradient norm :     0.5527312 Eh/a0  converged?    E=F G=F D=F
   time step     :     0.2500000 fs     power     :   0.3209333E-05
   step length   :     0.1097450 a0     speed     :   0.1061842E-01

........................................................................
.............................. CYCLE    3 ..............................
........................................................................

 iter      E             dE          RMSdq      gap      omega  full diag
   1  -3473.3353077 -0.347334E+04  0.141E-02   10.95       0.0  T
   2  -3473.3354654 -0.157705E-03  0.740E-03   10.95       1.0  T
   3  -3473.3354671 -0.168981E-05  0.343E-03   10.95       1.0  T
   4  -3473.3354678 -0.649652E-06  0.459E-04   10.94       3.8  T
   5  -3473.3354679 -0.151578E-06  0.305E-04   10.94       5.7  T
     SCC iter.                  ...        4 min, 54.753 sec
     gradient                   ...        3 min, 51.790 sec
 * total energy  : -3427.0111123 Eh     change    :  -0.7383992E-01 Eh
   gradient norm :     0.4912088 Eh/a0  converged?    E=F G=F D=F
   time step     :     0.2500000 fs     power     :   0.3673658E-05
   step length   :     0.1420375 a0     speed     :   0.1374289E-01

........................................................................
.............................. CYCLE    4 ..............................
........................................................................

 iter      E             dE          RMSdq      gap      omega  full diag
   1  -3473.8749060 -0.347387E+04  0.167E-02   10.96       0.0  T
   2  -3473.8751230 -0.217063E-03  0.875E-03   10.96       1.0  T
   3  -3473.8751255 -0.249875E-05  0.401E-03   10.95       1.0  T
   4  -3473.8751264 -0.928413E-06  0.554E-04   10.95       3.2  T
   5  -3473.8751267 -0.210504E-06  0.367E-04   10.95       4.8  T
     SCC iter.                  ...        4 min, 51.801 sec
     gradient                   ...        3 min, 51.159 sec
 * total energy  : -3427.0880963 Eh     change    :  -0.7698399E-01 Eh
   gradient norm :     0.4220182 Eh/a0  converged?    E=F G=F D=F
   time step     :     0.2500000 fs     power     :   0.3738580E-05
   step length   :     0.1705645 a0     speed     :   0.1650303E-01

........................................................................
.............................. CYCLE    5 ..............................
........................................................................

 iter      E             dE          RMSdq      gap      omega  full diag
   1  -3474.4910000 -0.347449E+04  0.187E-02   10.96       0.0  T
   2  -3474.4912641 -0.264082E-03  0.978E-03   10.96       1.0  T
   3  -3474.4912674 -0.335377E-05  0.442E-03   10.96       1.0  T
   4  -3474.4912686 -0.118007E-05  0.633E-04   10.96       2.8  T
   5  -3474.4912689 -0.256264E-06  0.417E-04   10.96       4.2  T
   6  -3474.4912690 -0.153814E-06  0.182E-04   10.95       9.6  T
     SCC iter.                  ...        5 min, 46.741 sec
     gradient                   ...        3 min, 52.355 sec
 * total energy  : -3427.1610382 Eh     change    :  -0.7294195E-01 Eh
   gradient norm :     0.3520980 Eh/a0  converged?    E=F G=F D=F
   time step     :     0.2500000 fs     power     :   0.3435415E-05
   step length   :     0.1945877 a0     speed     :   0.1882740E-01

........................................................................
.............................. CYCLE    6 ..............................
........................................................................

 iter      E             dE          RMSdq      gap      omega  full diag
   1  -3475.2409779 -0.347524E+04  0.221E-02   10.96       0.0  T
   2  -3475.2413307 -0.352784E-03  0.116E-02   10.96       1.0  T
   3  -3475.2413358 -0.507598E-05  0.510E-03   10.96       1.0  T
   4  -3475.2413374 -0.159261E-05  0.758E-04   10.96       2.3  T
   5  -3475.2413377 -0.325623E-06  0.485E-04   10.95       3.6  T
   6  -3475.2413379 -0.173390E-06  0.194E-04   10.95       9.0  T
     SCC iter.                  ...        5 min, 45.472 sec
     gradient                   ...        3 min, 53.074 sec
 * total energy  : -3427.2300501 Eh     change    :  -0.6901190E-01 Eh
   gradient norm :     0.2852563 Eh/a0  converged?    E=F G=F D=F
   time step     :     0.2750000 fs     power     :   0.2773192E-05
   step length   :     0.2369354 a0     speed     :   0.2084070E-01

........................................................................
.............................. CYCLE    7 ..............................
........................................................................

 iter      E             dE          RMSdq      gap      omega  full diag
   1  -3476.1189337 -0.347612E+04  0.252E-02   10.96       0.0  T
   2  -3476.1193466 -0.412915E-03  0.132E-02   10.96       1.0  T
   3  -3476.1193540 -0.743481E-05  0.552E-03   10.96       1.0  T
   4  -3476.1193561 -0.205999E-05  0.890E-04   10.95       2.0  T
   5  -3476.1193565 -0.370801E-06  0.558E-04   10.95       3.1  T
   6  -3476.1193567 -0.193809E-06  0.203E-04   10.95       8.7  T
     SCC iter.                  ...        5 min, 53.910 sec
     gradient                   ...        3 min, 52.192 sec
 * total energy  : -3427.2869442 Eh     change    :  -0.5689407E-01 Eh
   gradient norm :     0.2423343 Eh/a0  converged?    E=F G=F D=F
   time step     :     0.3025000 fs     power     :   0.1855240E-05
   step length   :     0.2788361 a0     speed     :   0.2229660E-01

........................................................................
.............................. CYCLE    8 ..............................
........................................................................

 iter      E             dE          RMSdq      gap      omega  full diag
   1  -3477.0873763 -0.347709E+04  0.275E-02   10.95       0.0  T
   2  -3477.0877693 -0.393039E-03  0.146E-02   10.95       1.0  T
   3  -3477.0877794 -0.101018E-04  0.543E-03   10.95       1.0  T
   4  -3477.0877817 -0.230031E-05  0.996E-04   10.95       1.8  T
   5  -3477.0877820 -0.336070E-06  0.604E-04   10.95       2.9  T
   6  -3477.0877822 -0.178130E-06  0.187E-04   10.95       9.3  T
     SCC iter.                  ...        5 min, 55.051 sec
     gradient                   ...        3 min, 52.604 sec
 * total energy  : -3427.3264130 Eh     change    :  -0.3946874E-01 Eh
   gradient norm :     0.2385967 Eh/a0  converged?    E=F G=F D=F
   time step     :     0.3327500 fs     power     :   0.9326936E-06
   step length   :     0.3141851 a0     speed     :   0.2283929E-01

........................................................................
.............................. CYCLE    9 ..............................
........................................................................

 iter      E             dE          RMSdq      gap      omega  full diag
   1  -3478.0689440 -0.347807E+04  0.292E-02   10.95       0.0  T
   2  -3478.0692217 -0.277695E-03  0.159E-02   10.95       1.0  T
   3  -3478.0692340 -0.123588E-04  0.454E-03   10.95       1.0  T
   4  -3478.0692360 -0.203570E-05  0.105E-03   10.95       1.7  T
   5  -3478.0692363 -0.212709E-06  0.596E-04   10.95       2.9  T
   6  -3478.0692364 -0.126219E-06  0.144E-04   10.94      12.2  T
     SCC iter.                  ...        5 min, 54.589 sec
     gradient                   ...        3 min, 51.455 sec
 * total energy  : -3427.3494032 Eh     change    :  -0.2299020E-01 Eh
   gradient norm :     0.2538165 Eh/a0  converged?    E=F G=F D=F
   time step     :     0.3660250 fs     power     :   0.2696466E-06
   step length   :     0.3373226 a0     speed     :   0.2229204E-01

........................................................................
.............................. CYCLE   10 ..............................
........................................................................

 iter      E             dE          RMSdq      gap      omega  full diag
   1  -3478.9696045 -0.347897E+04  0.314E-02   10.95       0.0  T
   2  -3478.9697347 -0.130162E-03  0.177E-02   10.95       1.0  T
   3  -3478.9697482 -0.134851E-04  0.290E-03   10.95       1.0  T
   4  -3478.9697496 -0.143075E-05  0.105E-03   10.94       1.7  T
   5  -3478.9697497 -0.698792E-07  0.517E-04   10.94       3.4  T
   6  -3478.9697497 -0.725126E-07  0.815E-05   10.94      21.5  T
     SCC iter.                  ...        5 min, 55.342 sec
     gradient                   ...        3 min, 53.416 sec
 * total energy  : -3427.3609176 Eh     change    :  -0.1151448E-01 Eh
   gradient norm :     0.2536601 Eh/a0  converged?    E=F G=F D=F
   time step     :     0.4026275 fs     power     :  -0.1087081E-06
   step length   :     0.3497642 a0     speed     :   0.2101295E-01

........................................................................
.............................. CYCLE   11 ..............................
........................................................................
 * reset velocities

 iter      E             dE          RMSdq      gap      omega  full diag
   1  -3478.9523243 -0.347895E+04  0.118E-03   10.94       0.0  T
   2  -3478.9523251 -0.808138E-06  0.679E-04   10.94       2.6  T
   3  -3478.9523251 -0.419595E-08  0.269E-04   10.94       6.5  T
     SCC iter.                  ...        3 min,  1.121 sec
     gradient                   ...        3 min, 50.769 sec
 * total energy  : -3427.3633278 Eh     change    :  -0.2410168E-02 Eh
   gradient norm :     0.2464706 Eh/a0  converged?    E=F G=F D=F
   time step     :     0.2013138 fs     power     :   0.1565845E-06
   step length   :     0.0096385 a0     speed     :   0.1158112E-02

........................................................................
.............................. CYCLE   12 ..............................
........................................................................

 iter      E             dE          RMSdq      gap      omega  full diag
   1  -3478.9179179 -0.347892E+04  0.233E-03   10.94       0.0  T
   2  -3478.9179210 -0.312558E-05  0.134E-03   10.94       1.3  T
   3  -3478.9179211 -0.178461E-07  0.529E-04   10.94       3.3  T
   4  -3478.9179211 -0.865157E-08  0.446E-05   10.94      39.3  T
     SCC iter.                  ...        3 min, 58.410 sec
     gradient                   ...        3 min, 51.223 sec
 * total energy  : -3427.3678778 Eh     change    :  -0.4549971E-02 Eh
   gradient norm :     0.2323814 Eh/a0  converged?    E=F G=F D=F
   time step     :     0.2013138 fs     power     :   0.2910558E-06
   step length   :     0.0190037 a0     speed     :   0.2283390E-02

........................................................................
.............................. CYCLE   13 ..............................
........................................................................

 iter      E             dE          RMSdq      gap      omega  full diag
   1  -3478.8674135 -0.347887E+04  0.341E-03   10.94       0.0  T
   2  -3478.8674202 -0.676538E-05  0.196E-03   10.94       1.0  T
   3  -3478.8674203 -0.449395E-07  0.781E-04   10.94       2.2  T
   4  -3478.8674203 -0.237883E-07  0.749E-05   10.94      23.4  T
     SCC iter.                  ...        3 min, 56.788 sec
     gradient                   ...        3 min, 52.578 sec
 * total energy  : -3427.3740588 Eh     change    :  -0.6181051E-02 Eh
   gradient norm :     0.2118500 Eh/a0  converged?    E=F G=F D=F
   time step     :     0.2013138 fs     power     :   0.3884981E-06
   step length   :     0.0278330 a0     speed     :   0.3344269E-02

........................................................................
.............................. CYCLE   14 ..............................
........................................................................

 iter      E             dE          RMSdq      gap      omega  full diag
   1  -3478.8021329 -0.347880E+04  0.438E-03   10.94       0.0  T
   2  -3478.8021441 -0.112556E-04  0.252E-03   10.95       1.0  T
   3  -3478.8021442 -0.786754E-07  0.101E-03   10.95       1.7  T
   4  -3478.8021442 -0.423156E-07  0.100E-04   10.95      17.4  T
   5  -3478.8021443 -0.117498E-07  0.686E-05   10.95      25.5  T
     SCC iter.                  ...        4 min, 54.172 sec
     gradient                   ...        3 min, 51.772 sec
 * total energy  : -3427.3811847 Eh     change    :  -0.7125902E-02 Eh
   gradient norm :     0.1856036 Eh/a0  converged?    E=F G=F D=F
   time step     :     0.2013138 fs     power     :   0.4383562E-06
   step length   :     0.0358796 a0     speed     :   0.4311114E-02

........................................................................
.............................. CYCLE   15 ..............................
........................................................................

 iter      E             dE          RMSdq      gap      omega  full diag
   1  -3478.7238389 -0.347872E+04  0.522E-03   10.95       0.0  T
   2  -3478.7238550 -0.160997E-04  0.300E-03   10.95       1.0  T
   3  -3478.7238551 -0.105265E-06  0.120E-03   10.95       1.5  T
   4  -3478.7238551 -0.551127E-07  0.114E-04   10.95      15.3  T
   5  -3478.7238551 -0.156842E-07  0.765E-05   10.95      22.9  T
     SCC iter.                  ...        4 min, 52.404 sec
     gradient                   ...        3 min, 51.042 sec
 * total energy  : -3427.3884721 Eh     change    :  -0.7287348E-02 Eh
   gradient norm :     0.1546787 Eh/a0  converged?    E=F G=F D=F
   time step     :     0.2013138 fs     power     :   0.4358107E-06
   step length   :     0.0429213 a0     speed     :   0.5157204E-02

........................................................................
.............................. CYCLE   16 ..............................
........................................................................

 iter      E             dE          RMSdq      gap      omega  full diag
   1  -3478.6347357 -0.347863E+04  0.589E-03   10.95       0.0  T
   2  -3478.6347564 -0.207259E-04  0.339E-03   10.95       1.0  T
   3  -3478.6347565 -0.133821E-06  0.137E-03   10.95       1.3  T
   4  -3478.6347566 -0.698724E-07  0.129E-04   10.95      13.6  T
   5  -3478.6347566 -0.199880E-07  0.857E-05   10.95      20.4  T
     SCC iter.                  ...        4 min, 55.665 sec
     gradient                   ...        3 min, 51.070 sec
 * total energy  : -3427.3951357 Eh     change    :  -0.6663634E-02 Eh
   gradient norm :     0.1204810 Eh/a0  converged?    E=F G=F D=F
   time step     :     0.2013138 fs     power     :   0.3823060E-06
   step length   :     0.0487656 a0     speed     :   0.5859433E-02

........................................................................
.............................. CYCLE   17 ..............................
........................................................................

 iter      E             dE          RMSdq      gap      omega  full diag
   1  -3478.5268964 -0.347853E+04  0.707E-03   10.95       0.0  T
   2  -3478.5269266 -0.301734E-04  0.406E-03   10.95       1.0  T
   3  -3478.5269268 -0.190105E-06  0.165E-03   10.95       1.1  T
   4  -3478.5269269 -0.984378E-07  0.153E-04   10.95      11.4  T
   5  -3478.5269269 -0.284372E-07  0.100E-04   10.95      17.5  T
     SCC iter.                  ...        4 min, 59.494 sec
     gradient                   ...        3 min, 52.551 sec
 * total energy  : -3427.4009495 Eh     change    :  -0.5813784E-02 Eh
   gradient norm :     0.0817306 Eh/a0  converged?    E=F G=F D=F
   time step     :     0.2214451 fs     power     :   0.2736797E-06
   step length   :     0.0590674 a0     speed     :   0.6452042E-02

........................................................................
.............................. CYCLE   18 ..............................
........................................................................

 iter      E             dE          RMSdq      gap      omega  full diag
   1  -3478.4019348 -0.347840E+04  0.810E-03   10.95       0.0  T
   2  -3478.4019751 -0.403181E-04  0.466E-03   10.95       1.0  T
   3  -3478.4019754 -0.250165E-06  0.191E-03   10.95       1.0  T
   4  -3478.4019755 -0.127223E-06  0.175E-04   10.95      10.0  T
   5  -3478.4019755 -0.375667E-07  0.112E-04   10.95      15.6  T
     SCC iter.                  ...        4 min, 53.896 sec
     gradient                   ...        3 min, 52.575 sec
 * total energy  : -3427.4047289 Eh     change    :  -0.3779457E-02 Eh
   gradient norm :     0.0480383 Eh/a0  converged?    E=F G=F D=F
   time step     :     0.2435896 fs     power     :   0.1159809E-06
   step length   :     0.0690206 a0     speed     :   0.6853857E-02

........................................................................
.............................. CYCLE   19 ..............................
........................................................................

 iter      E             dE          RMSdq      gap      omega  full diag
   1  -3478.2696806 -0.347827E+04  0.849E-03   10.95       0.0  T
   2  -3478.2697259 -0.452342E-04  0.490E-03   10.95       1.0  T
   3  -3478.2697262 -0.279517E-06  0.203E-03   10.95       1.0  T
   4  -3478.2697263 -0.136517E-06  0.183E-04   10.95       9.6  T
   5  -3478.2697263 -0.417881E-07  0.113E-04   10.95      15.5  T
     SCC iter.                  ...        4 min, 53.354 sec
     gradient                   ...        3 min, 52.669 sec
 * total energy  : -3427.4055207 Eh     change    :  -0.7917580E-03 Eh
   gradient norm :     0.0545195 Eh/a0  converged?    E=F G=F D=F
   time step     :     0.2679486 fs     power     :  -0.5189556E-07
   step length   :     0.0757793 a0     speed     :   0.6840916E-02

........................................................................
.............................. CYCLE   20 ..............................
........................................................................
 * reset velocities

 iter      E             dE          RMSdq      gap      omega  full diag
   1  -3478.2709065 -0.347827E+04  0.120E-04   10.95       0.0  T
   2  -3478.2709065 -0.567070E-08  0.771E-05   10.95      22.7  T
   3  -3478.2709065 -0.301497E-08  0.334E-05   10.95      52.5  T
     SCC iter.                  ...        2 min, 56.469 sec
     gradient                   ...        3 min, 53.077 sec
 * total energy  : -3427.4055706 Eh     change    :  -0.4984742E-04 Eh
   gradient norm :     0.0541432 Eh/a0  converged?    E=F G=F D=T
   time step     :     0.1339743 fs     power     :   0.4920079E-08
   step length   :     0.0009175 a0     speed     :   0.1656525E-03
 * RMSD in coord.:     0.0347605 a0     energy gain  -0.5775842E+00 Eh

........................................................................
.............................. CYCLE   21 ..............................
........................................................................

 iter      E             dE          RMSdq      gap      omega  full diag
   1  -3478.2771496 -0.347828E+04  0.558E-04   10.95       0.0  T
   2  -3478.2771497 -0.892146E-07  0.318E-04   10.95       5.5  T
   3  -3478.2771497 -0.889941E-09  0.868E-05   10.95      20.2  T
     SCC iter.                  ...        3 min,  0.095 sec
     gradient                   ...        3 min, 53.024 sec
 * total energy  : -3427.4058305 Eh     change    :  -0.2599483E-03 Eh
   gradient norm :     0.0523147 Eh/a0  converged?    E=F G=F D=F
   time step     :     0.2500000 fs     power     :   0.1355506E-07
   step length   :     0.0048848 a0     speed     :   0.4726293E-03

........................................................................
.............................. CYCLE   22 ..............................
........................................................................

 iter      E             dE          RMSdq      gap      omega  full diag
   1  -3478.2871297 -0.347829E+04  0.907E-04   10.95       0.0  T
   2  -3478.2871299 -0.228412E-06  0.518E-04   10.95       3.4  T
   3  -3478.2871299 -0.442378E-08  0.140E-04   10.95      12.5  T
     SCC iter.                  ...        3 min,  0.790 sec
     gradient                   ...        3 min, 52.288 sec
 * total energy  : -3427.4062347 Eh     change    :  -0.4042084E-03 Eh
   gradient norm :     0.0495344 Eh/a0  converged?    E=F G=F D=F
   time step     :     0.2500000 fs     power     :   0.2083463E-07
   step length   :     0.0079491 a0     speed     :   0.7691174E-03

........................................................................
.............................. CYCLE   23 ..............................
........................................................................

 iter      E             dE          RMSdq      gap      omega  full diag
   1  -3478.3003439 -0.347830E+04  0.122E-03   10.95       0.0  T
   2  -3478.3003443 -0.399655E-06  0.696E-04   10.95       2.5  T
   3  -3478.3003444 -0.101745E-07  0.185E-04   10.95       9.4  T
     SCC iter.                  ...        2 min, 59.867 sec
     gradient                   ...        3 min, 51.982 sec
 * total energy  : -3427.4067509 Eh     change    :  -0.5161480E-03 Eh
   gradient norm :     0.0461435 Eh/a0  converged?    E=F G=F D=F
   time step     :     0.2500000 fs     power     :   0.2629950E-07
   step length   :     0.0108442 a0     speed     :   0.1049231E-02

........................................................................
.............................. CYCLE   24 ..............................
........................................................................

 iter      E             dE          RMSdq      gap      omega  full diag
   1  -3478.3160875 -0.347832E+04  0.148E-03   10.95       0.0  T
   2  -3478.3160880 -0.562599E-06  0.848E-04   10.95       2.1  T
   3  -3478.3160880 -0.170999E-07  0.220E-04   10.95       8.0  T
     SCC iter.                  ...        2 min, 54.691 sec
     gradient                   ...        3 min, 52.585 sec
 * total energy  : -3427.4073426 Eh     change    :  -0.5917415E-03 Eh
   gradient norm :     0.0426226 Eh/a0  converged?    E=F G=F D=F
   time step     :     0.2500000 fs     power     :   0.2983921E-07
   step length   :     0.0135214 a0     speed     :   0.1308266E-02

........................................................................
.............................. CYCLE   25 ..............................
........................................................................

 iter      E             dE          RMSdq      gap      omega  full diag
   1  -3478.3334547 -0.347833E+04  0.169E-03   10.95       0.0  T
   2  -3478.3334553 -0.674714E-06  0.966E-04   10.95       1.8  T
   3  -3478.3334554 -0.239193E-07  0.240E-04   10.95       7.3  T
     SCC iter.                  ...        2 min, 57.214 sec
     gradient                   ...        3 min, 51.983 sec
 * total energy  : -3427.4079770 Eh     change    :  -0.6343668E-03 Eh
   gradient norm :     0.0395391 Eh/a0  converged?    E=F G=F D=F
   time step     :     0.2500000 fs     power     :   0.3173601E-07
   step length   :     0.0159471 a0     speed     :   0.1542967E-02

........................................................................
.............................. CYCLE   26 ..............................
........................................................................

 iter      E             dE          RMSdq      gap      omega  full diag
   1  -3478.3532946 -0.347835E+04  0.203E-03   10.95       0.0  T
   2  -3478.3532955 -0.858131E-06  0.116E-03   10.95       1.5  T
   3  -3478.3532955 -0.351033E-07  0.268E-04   10.95       6.5  T
   4  -3478.3532955 -0.145142E-07  0.692E-05   10.95      25.3  T
     SCC iter.                  ...        4 min,  5.404 sec
     gradient                   ...        3 min, 52.286 sec
 * total energy  : -3427.4087015 Eh     change    :  -0.7245425E-03 Eh
   gradient norm :     0.0372416 Eh/a0  converged?    E=F G=F D=F
   time step     :     0.2750000 fs     power     :   0.3263062E-07
   step length   :     0.0201615 a0     speed     :   0.1773395E-02

........................................................................
.............................. CYCLE   27 ..............................
........................................................................

 iter      E             dE          RMSdq      gap      omega  full diag
   1  -3478.3742907 -0.347837E+04  0.232E-03   10.95       0.0  T
   2  -3478.3742916 -0.932577E-06  0.133E-03   10.95       1.3  T
   3  -3478.3742917 -0.433129E-07  0.276E-04   10.95       6.4  T
   4  -3478.3742917 -0.184191E-07  0.766E-05   10.95      22.9  T
     SCC iter.                  ...        4 min,  1.722 sec
     gradient                   ...        3 min, 51.645 sec
 * total energy  : -3427.4095166 Eh     change    :  -0.8151306E-03 Eh
   gradient norm :     0.0363446 Eh/a0  converged?    E=F G=F D=F
   time step     :     0.3025000 fs     power     :   0.3328077E-07
   step length   :     0.0249474 a0     speed     :   0.1994872E-02

........................................................................
.............................. CYCLE   28 ..............................
........................................................................

 iter      E             dE          RMSdq      gap      omega  full diag
   1  -3478.3942585 -0.347839E+04  0.254E-03   10.95       0.0  T
   2  -3478.3942593 -0.789690E-06  0.146E-03   10.95       1.2  T
   3  -3478.3942594 -0.530808E-07  0.248E-04   10.95       7.1  T
   4  -3478.3942594 -0.216742E-07  0.837E-05   10.95      20.9  T
     SCC iter.                  ...        3 min, 58.073 sec
     gradient                   ...        3 min, 52.237 sec
 * total energy  : -3427.4104483 Eh     change    :  -0.9316561E-03 Eh
   gradient norm :     0.0367681 Eh/a0  converged?    E=F G=F D=F
   time step     :     0.3327500 fs     power     :   0.3489014E-07
   step length   :     0.0303670 a0     speed     :   0.2207494E-02

........................................................................
.............................. CYCLE   29 ..............................
........................................................................

 iter      E             dE          RMSdq      gap      omega  full diag
   1  -3478.4104066 -0.347841E+04  0.268E-03   10.95       0.0  T
   2  -3478.4104071 -0.484895E-06  0.155E-03   10.95       1.1  T
   3  -3478.4104072 -0.593891E-07  0.195E-04   10.95       9.0  T
   4  -3478.4104072 -0.244527E-07  0.872E-05   10.95      20.1  T
     SCC iter.                  ...        4 min,  0.130 sec
     gradient                   ...        3 min, 52.211 sec
 * total energy  : -3427.4115565 Eh     change    :  -0.1108162E-02 Eh
   gradient norm :     0.0374035 Eh/a0  converged?    E=F G=F D=F
   time step     :     0.3660250 fs     power     :   0.3834569E-07
   step length   :     0.0366482 a0     speed     :   0.2421902E-02

........................................................................
.............................. CYCLE   30 ..............................
........................................................................

 iter      E             dE          RMSdq      gap      omega  full diag
   1  -3478.4199392 -0.347842E+04  0.282E-03   10.95       0.0  T
   2  -3478.4199395 -0.277075E-06  0.165E-03   10.95       1.1  T
   3  -3478.4199395 -0.593391E-07  0.158E-04   10.95      11.1  T
   4  -3478.4199395 -0.282103E-07  0.864E-05   10.95      20.3  T
     SCC iter.                  ...        3 min, 58.610 sec
     gradient                   ...        3 min, 51.193 sec
 * total energy  : -3427.4129172 Eh     change    :  -0.1360781E-02 Eh
   gradient norm :     0.0366789 Eh/a0  converged?    E=F G=F D=F
   time step     :     0.4026275 fs     power     :   0.4323503E-07
   step length   :     0.0442350 a0     speed     :   0.2657529E-02

........................................................................
.............................. CYCLE   31 ..............................
........................................................................

 iter      E             dE          RMSdq      gap      omega  full diag
   1  -3478.4209485 -0.347842E+04  0.307E-03   10.95       0.0  T
   2  -3478.4209490 -0.561889E-06  0.182E-03   10.95       1.0  T
   3  -3478.4209491 -0.540676E-07  0.178E-04   10.95       9.8  T
   4  -3478.4209491 -0.324758E-07  0.791E-05   10.95      22.1  T
     SCC iter.                  ...        3 min, 59.201 sec
     gradient                   ...        3 min, 49.848 sec
 * total energy  : -3427.4145701 Eh     change    :  -0.1652911E-02 Eh
   gradient norm :     0.0335442 Eh/a0  converged?    E=F G=F D=F
   time step     :     0.4428903 fs     power     :   0.4741709E-07
   step length   :     0.0536457 a0     speed     :   0.2929908E-02

........................................................................
.............................. CYCLE   32 ..............................
........................................................................

 iter      E             dE          RMSdq      gap      omega  full diag
   1  -3478.4139576 -0.347841E+04  0.352E-03   10.95       0.0  T
   2  -3478.4139591 -0.152816E-05  0.211E-03   10.95       1.0  T
   3  -3478.4139592 -0.598957E-07  0.282E-04   10.95       6.2  T
   4  -3478.4139592 -0.351515E-07  0.794E-05   10.95      22.1  T
     SCC iter.                  ...        3 min, 55.755 sec
     gradient                   ...        3 min, 51.864 sec
 * total energy  : -3427.4164587 Eh     change    :  -0.1888522E-02 Eh
   gradient norm :     0.0287658 Eh/a0  converged?    E=F G=F D=F
   time step     :     0.4871793 fs     power     :   0.4802436E-07
   step length   :     0.0652007 a0     speed     :   0.3237269E-02

........................................................................
.............................. CYCLE   33 ..............................
........................................................................

 iter      E             dE          RMSdq      gap      omega  full diag
   1  -3478.4043021 -0.347840E+04  0.406E-03   10.96       0.0  T
   2  -3478.4043045 -0.247203E-05  0.244E-03   10.96       1.0  T
   3  -3478.4043046 -0.705227E-07  0.362E-04   10.95       4.8  T
   4  -3478.4043046 -0.375589E-07  0.818E-05   10.95      21.4  T
     SCC iter.                  ...        3 min, 57.887 sec
     gradient                   ...        3 min, 51.833 sec
 * total energy  : -3427.4184434 Eh     change    :  -0.1984691E-02 Eh
   gradient norm :     0.0259138 Eh/a0  converged?    E=F G=F D=F
   time step     :     0.5358972 fs     power     :   0.4445421E-07
   step length   :     0.0787555 a0     speed     :   0.3554796E-02

........................................................................
.............................. CYCLE   34 ..............................
........................................................................

 iter      E             dE          RMSdq      gap      omega  full diag
   1  -3478.4042391 -0.347840E+04  0.452E-03   10.96       0.0  T
   2  -3478.4042410 -0.188958E-05  0.272E-03   10.96       1.0  T
   3  -3478.4042411 -0.861673E-07  0.268E-04   10.96       6.5  T
   4  -3478.4042411 -0.371547E-07  0.851E-05   10.96      20.6  T
     SCC iter.                  ...        3 min, 58.782 sec
     gradient                   ...        3 min, 52.781 sec
 * total energy  : -3427.4204622 Eh     change    :  -0.2018838E-02 Eh
   gradient norm :     0.0269945 Eh/a0  converged?    E=F G=F D=F
   time step     :     0.5894869 fs     power     :   0.4093858E-07
   step length   :     0.0934239 a0     speed     :   0.3833531E-02

........................................................................
.............................. CYCLE   35 ..............................
........................................................................

 iter      E             dE          RMSdq      gap      omega  full diag
   1  -3478.4277778 -0.347843E+04  0.511E-03   10.96       0.0  T
   2  -3478.4277782 -0.452118E-06  0.303E-03   10.96       1.0  T
   3  -3478.4277783 -0.121634E-06  0.164E-04   10.96      10.7  T
   4  -3478.4277784 -0.262939E-07  0.943E-05   10.96      18.6  T
     SCC iter.                  ...        3 min, 56.569 sec
     gradient                   ...        3 min, 52.084 sec
 * total energy  : -3427.4226447 Eh     change    :  -0.2182482E-02 Eh
   gradient norm :     0.0267992 Eh/a0  converged?    E=F G=F D=F
   time step     :     0.6484356 fs     power     :   0.4105101E-07
   step length   :     0.1087119 a0     speed     :   0.4055323E-02

........................................................................
.............................. CYCLE   36 ..............................
........................................................................

 iter      E             dE          RMSdq      gap      omega  full diag
   1  -3478.4811204 -0.347848E+04  0.617E-03   10.96       0.0  T
   2  -3478.4811216 -0.129032E-05  0.357E-03   10.96       1.0  T
   3  -3478.4811218 -0.167018E-06  0.248E-04   10.96       7.1  T
   4  -3478.4811218 -0.240516E-07  0.109E-04   10.96      16.1  T
     SCC iter.                  ...        3 min, 56.724 sec
     gradient                   ...        3 min, 51.752 sec
 * total energy  : -3427.4250465 Eh     change    :  -0.2401781E-02 Eh
   gradient norm :     0.0224970 Eh/a0  converged?    E=F G=F D=F
   time step     :     0.7132792 fs     power     :   0.4023173E-07
   step length   :     0.1261828 a0     speed     :   0.4279133E-02

........................................................................
.............................. CYCLE   37 ..............................
........................................................................

 iter      E             dE          RMSdq      gap      omega  full diag
   1  -3478.5526918 -0.347855E+04  0.706E-03   10.96       0.0  T
   2  -3478.5526951 -0.329915E-05  0.404E-03   10.96       1.0  T
   3  -3478.5526953 -0.181472E-06  0.419E-04   10.96       4.2  T
   4  -3478.5526953 -0.345772E-07  0.113E-04   10.96      15.4  T
     SCC iter.                  ...        4 min,  0.494 sec
     gradient                   ...        3 min, 51.097 sec
 * total energy  : -3427.4274448 Eh     change    :  -0.2398308E-02 Eh
   gradient norm :     0.0220517 Eh/a0  converged?    E=F G=F D=F
   time step     :     0.7846071 fs     power     :   0.3478423E-07
   step length   :     0.1466600 a0     speed     :   0.4521416E-02

........................................................................
.............................. CYCLE   38 ..............................
........................................................................

 iter      E             dE          RMSdq      gap      omega  full diag
   1  -3478.6063845 -0.347861E+04  0.668E-03   10.96       0.0  T
   2  -3478.6063855 -0.972037E-06  0.388E-03   10.96       1.0  T
   3  -3478.6063856 -0.154170E-06  0.207E-04   10.96       8.5  T
   4  -3478.6063856 -0.178156E-07  0.901E-05   10.96      19.4  T
     SCC iter.                  ...        3 min, 58.762 sec
     gradient                   ...        3 min, 51.470 sec
 * total energy  : -3427.4299027 Eh     change    :  -0.2457881E-02 Eh
   gradient norm :     0.0245089 Eh/a0  converged?    E=F G=F D=F
   time step     :     0.8630678 fs     power     :   0.3378731E-07
   step length   :     0.1674901 a0     speed     :   0.4694176E-02

........................................................................
.............................. CYCLE   39 ..............................
........................................................................

 iter      E             dE          RMSdq      gap      omega  full diag
   1  -3478.6168555 -0.347862E+04  0.617E-03   10.97       0.0  T
   2  -3478.6168576 -0.212612E-05  0.369E-03   10.97       1.0  T
   3  -3478.6168578 -0.193540E-06  0.240E-04   10.97       7.3  T
   4  -3478.6168578 -0.247578E-07  0.115E-04   10.97      15.2  T
     SCC iter.                  ...        4 min,  3.235 sec
     gradient                   ...        3 min, 51.677 sec
 * total energy  : -3427.4327138 Eh     change    :  -0.2811181E-02 Eh
   gradient norm :     0.0209587 Eh/a0  converged?    E=F G=F D=F
   time step     :     0.9493746 fs     power     :   0.3512126E-07
   step length   :     0.1903800 a0     speed     :   0.4850637E-02

........................................................................
.............................. CYCLE   40 ..............................
........................................................................

 iter      E             dE          RMSdq      gap      omega  full diag
   1  -3478.6017590 -0.347860E+04  0.628E-03   10.97       0.0  T
   2  -3478.6017644 -0.545002E-05  0.378E-03   10.97       1.0  T
   3  -3478.6017647 -0.289511E-06  0.492E-04   10.97       3.6  T
   4  -3478.6017648 -0.578489E-07  0.164E-04   10.97      10.7  T
     SCC iter.                  ...        3 min, 55.443 sec
     gradient                   ...        3 min, 51.182 sec
 * total energy  : -3427.4356749 Eh     change    :  -0.2961087E-02 Eh
   gradient norm :     0.0232380 Eh/a0  converged?    E=F G=F D=F
   time step     :     1.0443120 fs     power     :   0.3261076E-07
   step length   :     0.2183581 a0     speed     :   0.5057712E-02

........................................................................
.............................. CYCLE   41 ..............................
........................................................................

 iter      E             dE          RMSdq      gap      omega  full diag
   1  -3478.6195347 -0.347862E+04  0.703E-03   10.97       0.0  T
   2  -3478.6195356 -0.887685E-06  0.412E-03   10.98       1.0  T
   3  -3478.6195359 -0.276119E-06  0.241E-04   10.98       7.3  T
   4  -3478.6195359 -0.335008E-07  0.145E-04   10.98      12.1  T
     SCC iter.                  ...        3 min, 53.938 sec
     gradient                   ...        3 min, 51.694 sec
 * total energy  : -3427.4391203 Eh     change    :  -0.3445411E-02 Eh
   gradient norm :     0.0212754 Eh/a0  converged?    E=F G=F D=F
   time step     :     1.1487432 fs     power     :   0.3653266E-07
   step length   :     0.2482134 a0     speed     :   0.5226576E-02

........................................................................
.............................. CYCLE   42 ..............................
........................................................................

 iter      E             dE          RMSdq      gap      omega  full diag
   1  -3478.6686627 -0.347867E+04  0.866E-03   10.98       0.0  T
   2  -3478.6686668 -0.411791E-05  0.502E-03   10.98       1.0  T
   3  -3478.6686670 -0.258049E-06  0.419E-04   10.98       4.2  T
   4  -3478.6686671 -0.419241E-07  0.125E-04   10.98      14.0  T
     SCC iter.                  ...        4 min,  0.614 sec
     gradient                   ...        3 min, 52.061 sec
 * total energy  : -3427.4428880 Eh     change    :  -0.3767659E-02 Eh
   gradient norm :     0.0216389 Eh/a0  converged?    E=F G=F D=F
   time step     :     1.2500000 fs     power     :   0.3434647E-07
   step length   :     0.2828795 a0     speed     :   0.5474023E-02
 * RMSD in coord.:     0.0323012 a0     energy gain  -0.3731744E-01 Eh

........................................................................
.............................. CYCLE   43 ..............................
........................................................................

 iter      E             dE          RMSdq      gap      omega  full diag
   1  -3478.6714338 -0.347867E+04  0.139E-03   10.98       0.0  T
   2  -3478.6714339 -0.360124E-07  0.815E-04   10.98       2.2  T
   3  -3478.6714339 -0.108939E-07  0.506E-05   10.98      34.6  T
     SCC iter.                  ...        3 min,  0.126 sec
     gradient                   ...        3 min, 53.604 sec
 * total energy  : -3427.4436085 Eh     change    :  -0.7204711E-03 Eh
   gradient norm :     0.0216243 Eh/a0  converged?    E=F G=F D=F
   time step     :     0.2500000 fs     power     :   0.3761888E-07
   step length   :     0.0548947 a0     speed     :   0.5311356E-02

........................................................................
.............................. CYCLE   44 ..............................
........................................................................

 iter      E             dE          RMSdq      gap      omega  full diag
   1  -3478.6678758 -0.347867E+04  0.133E-03   10.99       0.0  T
   2  -3478.6678760 -0.166102E-06  0.781E-04   10.99       2.2  T
   3  -3478.6678760 -0.115670E-07  0.855E-05   10.99      20.5  T
     SCC iter.                  ...        2 min, 57.809 sec
     gradient                   ...        3 min, 52.320 sec
 * total energy  : -3427.4443772 Eh     change    :  -0.7687095E-03 Eh
   gradient norm :     0.0200107 Eh/a0  converged?    E=F G=F D=F
   time step     :     0.2500000 fs     power     :   0.3998694E-07
   step length   :     0.0537135 a0     speed     :   0.5197070E-02

........................................................................
.............................. CYCLE   45 ..............................
........................................................................

 iter      E             dE          RMSdq      gap      omega  full diag
   1  -3478.6597729 -0.347866E+04  0.146E-03   10.99       0.0  T
   2  -3478.6597734 -0.409579E-06  0.857E-04   10.99       2.0  T
   3  -3478.6597734 -0.141799E-07  0.161E-04   10.99      10.9  T
     SCC iter.                  ...        2 min, 55.163 sec
     gradient                   ...        3 min, 51.696 sec
 * total energy  : -3427.4451609 Eh     change    :  -0.7836981E-03 Eh
   gradient norm :     0.0178515 Eh/a0  converged?    E=F G=F D=F
   time step     :     0.2500000 fs     power     :   0.4024800E-07
   step length   :     0.0531342 a0     speed     :   0.5141023E-02

........................................................................
.............................. CYCLE   46 ..............................
........................................................................

 iter      E             dE          RMSdq      gap      omega  full diag
   1  -3478.6500272 -0.347865E+04  0.160E-03   10.99       0.0  T
   2  -3478.6500278 -0.535636E-06  0.933E-04   10.99       1.9  T
   3  -3478.6500278 -0.157679E-07  0.189E-04   10.99       9.3  T
     SCC iter.                  ...        2 min, 57.652 sec
     gradient                   ...        3 min, 52.432 sec
 * total energy  : -3427.4459253 Eh     change    :  -0.7644784E-03 Eh
   gradient norm :     0.0166844 Eh/a0  converged?    E=F G=F D=F
   time step     :     0.2500000 fs     power     :   0.3889383E-07
   step length   :     0.0530426 a0     speed     :   0.5132152E-02

........................................................................
.............................. CYCLE   47 ..............................
........................................................................

 iter      E             dE          RMSdq      gap      omega  full diag
   1  -3478.6422610 -0.347864E+04  0.162E-03   10.99       0.0  T
   2  -3478.6422614 -0.405192E-06  0.944E-04   10.99       1.9  T
   3  -3478.6422614 -0.142759E-07  0.152E-04   10.99      11.5  T
     SCC iter.                  ...        2 min, 56.924 sec
     gradient                   ...        3 min, 52.365 sec
 * total energy  : -3427.4466620 Eh     change    :  -0.7366865E-03 Eh
   gradient norm :     0.0169329 Eh/a0  converged?    E=F G=F D=F
   time step     :     0.2500000 fs     power     :   0.3762174E-07
   step length   :     0.0530568 a0     speed     :   0.5133532E-02

........................................................................
.............................. CYCLE   48 ..............................
........................................................................

 iter      E             dE          RMSdq      gap      omega  full diag
   1  -3478.6390602 -0.347864E+04  0.172E-03   10.99       0.0  T
   2  -3478.6390604 -0.195721E-06  0.101E-03   10.99       1.7  T
   3  -3478.6390604 -0.135783E-07  0.861E-05   10.99      20.4  T
   4  -3478.6390604 -0.415230E-08  0.284E-05   10.99      61.8  T
     SCC iter.                  ...        3 min, 55.486 sec
     gradient                   ...        3 min, 50.519 sec
 * total energy  : -3427.4474596 Eh     change    :  -0.7975491E-03 Eh
   gradient norm :     0.0174005 Eh/a0  converged?    E=F G=F D=F
   time step     :     0.2750000 fs     power     :   0.3735806E-07
   step length   :     0.0582388 a0     speed     :   0.5122647E-02

........................................................................
.............................. CYCLE   49 ..............................
........................................................................

 iter      E             dE          RMSdq      gap      omega  full diag
   1  -3478.6429195 -0.347864E+04  0.188E-03   10.99       0.0  T
   2  -3478.6429196 -0.654909E-07  0.110E-03   10.99       1.6  T
   3  -3478.6429196 -0.144491E-07  0.592E-05   10.99      29.6  T
   4  -3478.6429196 -0.462569E-08  0.271E-05   10.99      64.6  T
     SCC iter.                  ...        3 min, 52.799 sec
     gradient                   ...        3 min, 51.116 sec
 * total energy  : -3427.4483402 Eh     change    :  -0.8805971E-03 Eh
   gradient norm :     0.0167189 Eh/a0  converged?    E=F G=F D=F
   time step     :     0.3025000 fs     power     :   0.3762525E-07
   step length   :     0.0639066 a0     speed     :   0.5110172E-02

........................................................................
.............................. CYCLE   50 ..............................
........................................................................

 iter      E             dE          RMSdq      gap      omega  full diag
   1  -3478.6545602 -0.347865E+04  0.215E-03   10.99       0.0  T
   2  -3478.6545604 -0.213365E-06  0.125E-03   10.99       1.4  T
   3  -3478.6545604 -0.215732E-07  0.939E-05   10.99      18.7  T
   4  -3478.6545604 -0.494902E-08  0.372E-05   10.99      47.1  T
     SCC iter.                  ...        3 min, 52.578 sec
     gradient                   ...        3 min, 50.239 sec
 * total energy  : -3427.4493004 Eh     change    :  -0.9602372E-03 Eh
   gradient norm :     0.0147917 Eh/a0  converged?    E=F G=F D=F
   time step     :     0.3327500 fs     power     :   0.3689752E-07
   step length   :     0.0705196 a0     speed     :   0.5126331E-02

........................................................................
.............................. CYCLE   51 ..............................
........................................................................

 iter      E             dE          RMSdq      gap      omega  full diag
   1  -3478.6716424 -0.347867E+04  0.242E-03   10.99       0.0  T
   2  -3478.6716429 -0.508623E-06  0.141E-03   11.00       1.2  T
   3  -3478.6716429 -0.295395E-07  0.159E-04   10.99      11.0  T
   4  -3478.6716429 -0.691716E-08  0.477E-05   10.99      36.7  T
     SCC iter.                  ...        3 min, 59.244 sec
     gradient                   ...        3 min, 52.569 sec
 * total energy  : -3427.4503055 Eh     change    :  -0.1005066E-02 Eh
   gradient norm :     0.0135908 Eh/a0  converged?    E=F G=F D=F
   time step     :     0.3660250 fs     power     :   0.3452307E-07
   step length   :     0.0784889 a0     speed     :   0.5186959E-02

........................................................................
.............................. CYCLE   52 ..............................
........................................................................

 iter      E             dE          RMSdq      gap      omega  full diag
   1  -3478.6871188 -0.347869E+04  0.245E-03   11.00       0.0  T
   2  -3478.6871192 -0.412724E-06  0.143E-03   11.00       1.2  T
   3  -3478.6871192 -0.313507E-07  0.136E-04   11.00      12.9  T
   4  -3478.6871192 -0.639693E-08  0.470E-05   11.00      37.3  T
     SCC iter.                  ...        3 min, 55.763 sec
     gradient                   ...        3 min, 52.250 sec
 * total energy  : -3427.4513406 Eh     change    :  -0.1035096E-02 Eh
   gradient norm :     0.0144335 Eh/a0  converged?    E=F G=F D=F
   time step     :     0.4026275 fs     power     :   0.3237269E-07
   step length   :     0.0874168 a0     speed     :   0.5251781E-02

........................................................................
.............................. CYCLE   53 ..............................
........................................................................

 iter      E             dE          RMSdq      gap      omega  full diag
   1  -3478.6930918 -0.347869E+04  0.232E-03   11.00       0.0  T
   2  -3478.6930919 -0.103757E-06  0.136E-03   11.00       1.3  T
   3  -3478.6930920 -0.282180E-07  0.731E-05   11.00      24.0  T
   4  -3478.6930920 -0.487580E-08  0.390E-05   11.00      44.9  T
     SCC iter.                  ...        3 min, 56.547 sec
     gradient                   ...        3 min, 51.738 sec
 * total energy  : -3427.4524469 Eh     change    :  -0.1106330E-02 Eh
   gradient norm :     0.0146043 Eh/a0  converged?    E=F G=F D=F
   time step     :     0.4428903 fs     power     :   0.3189653E-07
   step length   :     0.0964841 a0     speed     :   0.5269565E-02

........................................................................
.............................. CYCLE   54 ..............................
........................................................................

 iter      E             dE          RMSdq      gap      omega  full diag
   1  -3478.6864092 -0.347869E+04  0.237E-03   11.00       0.0  T
   2  -3478.6864096 -0.408987E-06  0.140E-03   11.00       1.3  T
   3  -3478.6864097 -0.337527E-07  0.120E-04   11.00      14.6  T
   4  -3478.6864097 -0.603995E-08  0.456E-05   11.00      38.4  T
     SCC iter.                  ...        4 min,  0.592 sec
     gradient                   ...        3 min, 51.164 sec
 * total energy  : -3427.4536473 Eh     change    :  -0.1200377E-02 Eh
   gradient norm :     0.0130103 Eh/a0  converged?    E=F G=F D=F
   time step     :     0.4871793 fs     power     :   0.3123051E-07
   step length   :     0.1064990 a0     speed     :   0.5287759E-02

........................................................................
.............................. CYCLE   55 ..............................
........................................................................

 iter      E             dE          RMSdq      gap      omega  full diag
   1  -3478.6722766 -0.347867E+04  0.249E-03   11.00       0.0  T
   2  -3478.6722775 -0.938051E-06  0.147E-03   11.00       1.2  T
   3  -3478.6722776 -0.473055E-07  0.225E-04   11.00       7.8  T
   4  -3478.6722776 -0.973432E-08  0.627E-05   11.00      28.0  T
     SCC iter.                  ...        4 min,  6.099 sec
     gradient                   ...        3 min, 51.077 sec
 * total energy  : -3427.4549062 Eh     change    :  -0.1258888E-02 Eh
   gradient norm :     0.0130654 Eh/a0  converged?    E=F G=F D=F
   time step     :     0.5358972 fs     power     :   0.2936885E-07
   step length   :     0.1184416 a0     speed     :   0.5346110E-02

........................................................................
.............................. CYCLE   56 ..............................
........................................................................

 iter      E             dE          RMSdq      gap      omega  full diag
   1  -3478.6656996 -0.347867E+04  0.237E-03   11.01       0.0  T
   2  -3478.6657000 -0.404324E-06  0.140E-03   11.01       1.3  T
   3  -3478.6657000 -0.480277E-07  0.135E-04   11.01      13.0  T
   4  -3478.6657000 -0.866521E-08  0.633E-05   11.01      27.7  T
     SCC iter.                  ...        3 min, 52.847 sec
     gradient                   ...        3 min, 52.441 sec
 * total energy  : -3427.4562495 Eh     change    :  -0.1343375E-02 Eh
   gradient norm :     0.0140021 Eh/a0  converged?    E=F G=F D=F
   time step     :     0.5894869 fs     power     :   0.2903387E-07
   step length   :     0.1311581 a0     speed     :   0.5381906E-02

........................................................................
.............................. CYCLE   57 ..............................
........................................................................

 iter      E             dE          RMSdq      gap      omega  full diag
   1  -3478.6766910 -0.347868E+04  0.268E-03   11.01       0.0  T
   2  -3478.6766913 -0.290983E-06  0.156E-03   11.01       1.1  T
   3  -3478.6766913 -0.384284E-07  0.134E-04   11.01      13.0  T
   4  -3478.6766913 -0.109767E-07  0.566E-05   11.01      31.0  T
     SCC iter.                  ...        3 min, 58.006 sec
     gradient                   ...        3 min, 57.064 sec
 * total energy  : -3427.4577392 Eh     change    :  -0.1489632E-02 Eh
   gradient norm :     0.0124941 Eh/a0  converged?    E=F G=F D=F
   time step     :     0.6484356 fs     power     :   0.2923210E-07
   step length   :     0.1448404 a0     speed     :   0.5403038E-02

........................................................................
.............................. CYCLE   58 ..............................
........................................................................

 iter      E             dE          RMSdq      gap      omega  full diag
   1  -3478.7001466 -0.347870E+04  0.318E-03   11.02       0.0  T
   2  -3478.7001474 -0.759795E-06  0.184E-03   11.02       1.0  T
   3  -3478.7001474 -0.380282E-07  0.213E-04   11.02       8.2  T
   4  -3478.7001474 -0.126811E-07  0.562E-05   11.02      31.2  T
     SCC iter.                  ...        3 min, 55.136 sec
     gradient                   ...        3 min, 51.153 sec
 * total energy  : -3427.4593344 Eh     change    :  -0.1595202E-02 Eh
   gradient norm :     0.0128535 Eh/a0  converged?    E=F G=F D=F
   time step     :     0.7132792 fs     power     :   0.2803245E-07
   step length   :     0.1614788 a0     speed     :   0.5476095E-02

........................................................................
.............................. CYCLE   59 ..............................
........................................................................

 iter      E             dE          RMSdq      gap      omega  full diag
   1  -3478.7144715 -0.347871E+04  0.303E-03   11.02       0.0  T
   2  -3478.7144717 -0.195583E-06  0.179E-03   11.02       1.0  T
   3  -3478.7144718 -0.506070E-07  0.116E-04   11.02      15.1  T
   4  -3478.7144718 -0.970294E-08  0.675E-05   11.02      26.0  T
     SCC iter.                  ...        3 min, 57.331 sec
     gradient                   ...        3 min, 52.573 sec
 * total energy  : -3427.4610793 Eh     change    :  -0.1744960E-02 Eh
   gradient norm :     0.0126648 Eh/a0  converged?    E=F G=F D=F
   time step     :     0.7846071 fs     power     :   0.2842918E-07
   step length   :     0.1793733 a0     speed     :   0.5529944E-02

........................................................................
.............................. CYCLE   60 ..............................
........................................................................

 iter      E             dE          RMSdq      gap      omega  full diag
   1  -3478.7142625 -0.347871E+04  0.324E-03   11.03       0.0  T
   2  -3478.7142639 -0.133486E-05  0.197E-03   11.03       1.0  T
   3  -3478.7142639 -0.715636E-07  0.244E-04   11.03       7.2  T
   4  -3478.7142639 -0.180553E-07  0.852E-05   11.03      20.6  T
     SCC iter.                  ...        3 min, 54.860 sec
     gradient                   ...        3 min, 53.017 sec
 * total energy  : -3427.4629836 Eh     change    :  -0.1904267E-02 Eh
   gradient norm :     0.0114580 Eh/a0  converged?    E=F G=F D=F
   time step     :     0.8630678 fs     power     :   0.2751682E-07
   step length   :     0.2000932 a0     speed     :   0.5607929E-02

........................................................................
.............................. CYCLE   61 ..............................
........................................................................

 iter      E             dE          RMSdq      gap      omega  full diag
   1  -3478.7292039 -0.347873E+04  0.368E-03   11.03       0.0  T
   2  -3478.7292043 -0.418439E-06  0.220E-03   11.03       1.0  T
   3  -3478.7292044 -0.570408E-07  0.126E-04   11.03      13.9  T
   4  -3478.7292044 -0.112473E-07  0.654E-05   11.03      26.8  T
     SCC iter.                  ...        3 min, 56.255 sec
     gradient                   ...        3 min, 53.124 sec
 * total energy  : -3427.4650121 Eh     change    :  -0.2028464E-02 Eh
   gradient norm :     0.0114910 Eh/a0  converged?    E=F G=F D=F
   time step     :     0.9493746 fs     power     :   0.2695874E-07
   step length   :     0.2241580 a0     speed     :   0.5711257E-02

........................................................................
.............................. CYCLE   62 ..............................
........................................................................

 iter      E             dE          RMSdq      gap      omega  full diag
   1  -3478.7722881 -0.347877E+04  0.517E-03   11.04       0.0  T
   2  -3478.7722893 -0.121333E-05  0.299E-03   11.04       1.0  T
   3  -3478.7722894 -0.768864E-07  0.246E-04   11.04       7.1  T
   4  -3478.7722894 -0.143896E-07  0.720E-05   11.04      24.3  T
     SCC iter.                  ...        4 min,  2.638 sec
     gradient                   ...        3 min, 53.360 sec
 * total energy  : -3427.4671585 Eh     change    :  -0.2146405E-02 Eh
   gradient norm :     0.0105658 Eh/a0  converged?    E=F G=F D=F
   time step     :     1.0443120 fs     power     :   0.2508785E-07
   step length   :     0.2509561 a0     speed     :   0.5812762E-02

........................................................................
.............................. CYCLE   63 ..............................
........................................................................

 iter      E             dE          RMSdq      gap      omega  full diag
   1  -3478.7887076 -0.347879E+04  0.491E-03   11.04       0.0  T
   2  -3478.7887082 -0.684099E-06  0.291E-03   11.04       1.0  T
   3  -3478.7887083 -0.680434E-07  0.161E-04   11.04      10.9  T
   4  -3478.7887083 -0.243745E-07  0.704E-05   11.04      24.9  T
     SCC iter.                  ...        3 min, 58.107 sec
     gradient                   ...        3 min, 52.033 sec
 * total energy  : -3427.4693775 Eh     change    :  -0.2218979E-02 Eh
   gradient norm :     0.0094310 Eh/a0  converged?    E=F G=F D=F
   time step     :     1.1487432 fs     power     :   0.2384483E-07
   step length   :     0.2808000 a0     speed     :   0.5912746E-02

........................................................................
.............................. CYCLE   64 ..............................
........................................................................

 iter      E             dE          RMSdq      gap      omega  full diag
   1  -3478.7834285 -0.347878E+04  0.492E-03   11.05       0.0  T
   2  -3478.7834304 -0.196254E-05  0.294E-03   11.05       1.0  T
   3  -3478.7834305 -0.666064E-07  0.255E-04   11.05       6.9  T
   4  -3478.7834305 -0.289365E-07  0.745E-05   11.05      23.5  T
     SCC iter.                  ...        3 min, 58.519 sec
     gradient                   ...        4 min,  0.056 sec
 * total energy  : -3427.4716007 Eh     change    :  -0.2223247E-02 Eh
   gradient norm :     0.0109840 Eh/a0  converged?    E=F G=F D=F
   time step     :     1.2500000 fs     power     :   0.2140212E-07
   step length   :     0.3115845 a0     speed     :   0.6029495E-02

........................................................................
.............................. CYCLE   65 ..............................
........................................................................

 iter      E             dE          RMSdq      gap      omega  full diag
   1  -3478.8232187 -0.347882E+04  0.594E-03   11.05       0.0  T
   2  -3478.8232206 -0.190387E-05  0.344E-03   11.05       1.0  T
   3  -3478.8232207 -0.734340E-07  0.310E-04   11.05       5.7  T
   4  -3478.8232207 -0.299710E-07  0.786E-05   11.05      22.3  T
     SCC iter.                  ...        3 min, 55.203 sec
     gradient                   ...        3 min, 53.153 sec
 * total energy  : -3427.4736855 Eh     change    :  -0.2084826E-02 Eh
   gradient norm :     0.0104865 Eh/a0  converged?    E=F G=F D=F
   time step     :     1.2500000 fs     power     :   0.1972244E-07
   step length   :     0.3121530 a0     speed     :   0.6040495E-02

........................................................................
.............................. CYCLE   66 ..............................
........................................................................

 iter      E             dE          RMSdq      gap      omega  full diag
   1  -3478.8247113 -0.347882E+04  0.442E-03   11.06       0.0  T
   2  -3478.8247126 -0.128058E-05  0.264E-03   11.06       1.0  T
   3  -3478.8247127 -0.699952E-07  0.203E-04   11.06       8.6  T
   4  -3478.8247127 -0.210143E-07  0.805E-05   11.06      21.8  T
     SCC iter.                  ...        3 min, 56.626 sec
     gradient                   ...        3 min, 52.856 sec
 * total energy  : -3427.4756676 Eh     change    :  -0.1982028E-02 Eh
   gradient norm :     0.0089434 Eh/a0  converged?    E=F G=F D=F
[...]
  3011   6 C     3012   6 C                                       1.5242131
  3012   6 C     3013   6 C                                       1.5245505
  3013   6 C     3014   6 C                                       1.5249629
  3014   6 C     3015   6 C                                       1.5244754
  3015   6 C     3016   6 C                                       1.5211551
  3015   6 C     3017   1 H                                       1.0929165
  3015   6 C     3018   1 H                                       1.0919872
  3014   6 C     3019   1 H                                       1.0934300
  3014   6 C     3020   1 H                                       1.0926391
  3013   6 C     3021   1 H                                       1.0935115
  3013   6 C     3022   1 H                                       1.0927144
  3012   6 C     3023   1 H                                       1.0926876
  3012   6 C     3024   1 H                                       1.0917572
  3011   6 C     3025   1 H                                       1.0928646
  3011   6 C     3026   1 H                                       1.0933755
  3010   6 C     3027   1 H                                       1.0916149
  3010   6 C     3028   1 H                                       1.0914333
  3009   6 C     3029   1 H                                       1.0923857
  3009   6 C     3030   1 H                                       1.0938079
  3008   6 C     3031   1 H                                       1.0929558
  3008   6 C     3032   1 H                                       1.0923018
  3007   6 C     3033   1 H                                       1.0928257
  3007   6 C     3034   1 H                                       1.0929964
  3006   6 C     3035   1 H                                       1.0927241
  3006   6 C     3036   1 H                                       1.0925198
  3005   6 C     3037   1 H                                       1.0928609
  3005   6 C     3038   1 H                                       1.0928856
  3004   6 C     3039   1 H                                       1.0918293
  3004   6 C     3040   1 H                                       1.0928826
  3003   6 C     3041   1 H                                       1.0916835
  3003   6 C     3042   1 H                                       1.0936357
  3002   6 C     3043   1 H                                       1.0922240
  3002   6 C     3044   1 H                                       1.0913135
  3001   6 C     3045   1 H                                       1.0944879
  3001   6 C     3046   1 H                                       1.0945078
  3000   6 C     3047   1 H                                       1.0902302
  3000   6 C     3048   1 H                                       1.0935175
  2999   6 C     3049   1 H                                       1.0930099
  2999   6 C     3050   1 H                                       1.0915900
  2998   6 C     3051   1 H                                       1.0930496
  2998   6 C     3052   1 H                                       1.0937768
  2997   6 C     3053   1 H                                       1.0929995
  2997   6 C     3054   1 H                                       1.0898552
  2996   6 C     3055   1 H                                       1.0930721
  2996   6 C     3056   1 H                                       1.0921196
  2995   6 C     3057   1 H                                       1.0915569
  2995   6 C     3058   1 H                                       1.0930359
  2994   6 C     3059   1 H                                       1.0940877
  2994   6 C     3060   1 H                                       1.0920071
  2993   6 C     3061   1 H                                       1.0912358
  2993   6 C     3062   1 H                                       1.0928185
  2992   6 C     3063   1 H                                       1.0933668
  2992   6 C     3064   1 H                                       1.0933619
  2991   6 C     3065   1 H                                       1.0930988
  2991   6 C     3066   1 H                                       1.0936544
  2990   6 C     3067   1 H                                       1.0927915
  2990   6 C     3068   1 H                                       1.0910345
  2989   6 C     3069   1 H                                       1.0931089
  2989   6 C     3070   1 H                                       1.0935087
  2988   6 C     3071   1 H                                       1.0931397
  2988   6 C     3072   1 H                                       1.0923302
  2987   6 C     3073   1 H                                       1.0927387
  2987   6 C     3074   1 H                                       1.0934520
  2986   6 C     3075   1 H                                       1.0921427
  2986   6 C     3076   1 H                                       1.0911756
  2985   6 C     3077   1 H                                       1.0926111
  2985   6 C     3078   1 H                                       1.0935364
  2984   6 C     3079   1 H                                       1.0936576
  2984   6 C     3080   1 H                                       1.0932844
  2983   6 C     3081   1 H                                       1.0898037
  2983   6 C     3082   1 H                                       1.0926121
  2982   6 C     3083   1 H                                       1.0937969
  2982   6 C     3084   1 H                                       1.0934946
  2981   6 C     3085   1 H                                       1.0918329
  2981   6 C     3086   1 H                                       1.0937273
  2980   6 C     3087   1 H                                       1.0928717
  2980   6 C     3088   1 H                                       1.0916229
  2979   6 C     3089   1 H                                       1.0938181
  2979   6 C     3090   1 H                                       1.0914268
  2978   6 C     3091   1 H                                       1.0917483
  2978   6 C     3092   1 H                                       1.0917738
  2977   6 C     3093   1 H                                       1.0935610
  2977   6 C     3094   1 H                                       1.0934565
  2976   6 C     3095   1 H                                       1.0910839
  2976   6 C     3096   1 H                                       1.0930266
  2975   6 C     3097   1 H                                       1.0936133
  2975   6 C     3098   1 H                                       1.0936379
  2974   6 C     3099   1 H                                       1.0920845
  2974   6 C     3100   1 H                                       1.0927239
  2973   6 C     3101   1 H                                       1.0938969
  2973   6 C     3102   1 H                                       1.0935843
  2972   6 C     3103   1 H                                       1.0918124
  2972   6 C     3104   1 H                                       1.0922425
  2971   6 C     3105   1 H                                       1.0945215
  2971   6 C     3106   1 H                                       1.0920665
  2970   6 C     3107   1 H                                       1.0909304
  2970   6 C     3108   1 H                                       1.0945401
  2969   6 C     3109   1 H                                       1.0933487
  2969   6 C     3110   1 H                                       1.0918695
  2968   6 C     3111   1 H                                       1.0925185
  2968   6 C     3112   1 H                                       1.0936388
  2967   6 C     3113   1 H                                       1.0914756
  2967   6 C     3114   1 H                                       1.0931762
  2966   6 C     3115   1 H                                       1.0917906
  2966   6 C     3116   1 H                                       1.0930217
  2965   6 C     3117   1 H                                       1.0939737
  2965   6 C     3118   1 H                                       1.0917340
  2964   6 C     3119   1 H                                       1.0942633
  2964   6 C     3120   1 H                                       1.0927631
  2963   6 C     3121   1 H                                       1.0906070
  2963   6 C     3122   1 H                                       1.0911726
  2962   6 C     3123   1 H                                       1.0933354
  2962   6 C     3124   1 H                                       1.0914530
  2961   6 C     3125   1 H                                       1.0917506
  2961   6 C     3126   1 H                                       1.0925618
  2960   6 C     3127   1 H                                       1.0941179
  2960   6 C     3128   1 H                                       1.0924536
  2959   6 C     3129   1 H                                       1.0924089
  2959   6 C     3130   1 H                                       1.0915897
  2958   6 C     3131   1 H                                       1.0938040
  2958   6 C     3132   1 H                                       1.0931724
  2957   6 C     3133   1 H                                       1.0925231
  2957   6 C     3134   1 H                                       1.0934552
  2956   6 C     3135   1 H                                       1.0933692
  2956   6 C     3136   1 H                                       1.0935280
  2955   6 C     3137   1 H                                       1.0923119
  2955   6 C     3138   1 H                                       1.0916111
  2954   6 C     3139   1 H                                       1.0930378
  2954   6 C     3140   1 H                                       1.0937898
  2953   6 C     3141   1 H                                       1.0930516
  2953   6 C     3142   1 H                                       1.0928806
  2952   6 C     3143   1 H                                       1.0898542
  2952   6 C     3144   1 H                                       1.0932983
  2951   6 C     3145   1 H                                       1.0924798
  2951   6 C     3146   1 H                                       1.0924803
  2950   6 C     3147   1 H                                       1.0929368
  2950   6 C     3148   1 H                                       1.0922711
  2949   6 C     3149   1 H                                       1.0929765
  2949   6 C     3150   1 H                                       1.0915329
  2948   6 C     3151   1 H                                       1.0922334
  2948   6 C     3152   1 H                                       1.0926224
  2947   6 C     3153   1 H                                       1.0905327
  2947   6 C     3154   1 H                                       1.0926698
  2946   6 C     3155   1 H                                       1.0942051
  2946   6 C     3156   1 H                                       1.0928505
  2945   6 C     3157   1 H                                       1.0928191
  2945   6 C     3158   1 H                                       1.0938424
  2944   6 C     3159   1 H                                       1.0921970
  2944   6 C     3160   1 H                                       1.0903890
  2943   6 C     3161   1 H                                       1.0926883
  2943   6 C     3162   1 H                                       1.0925606
  2942   6 C     3163   1 H                                       1.0924145
  2942   6 C     3164   1 H                                       1.0930658
  2941   6 C     3165   1 H                                       1.0923586
  2941   6 C     3166   1 H                                       1.0939697
  2940   6 C     3167   1 H                                       1.0926901
  2940   6 C     3168   1 H                                       1.0912346
  2939   6 C     3169   1 H                                       1.0928012
  2939   6 C     3170   1 H                                       1.0939115
  2938   6 C     3171   1 H                                       1.0925880
  2938   6 C     3172   1 H                                       1.0924519
  2937   6 C     3173   1 H                                       1.0919160
  2937   6 C     3174   1 H                                       1.0926912
  2936   6 C     3175   1 H                                       1.0926195
  2936   6 C     3176   1 H                                       1.0931309
  2935   6 C     3177   1 H                                       1.0933676
  2935   6 C     3178   1 H                                       1.0933064
  2934   6 C     3179   1 H                                       1.0927436
  2934   6 C     3180   1 H                                       1.0927874
  2933   6 C     3181   1 H                                       1.0924056
  2933   6 C     3182   1 H                                       1.0911191
  2932   6 C     3183   1 H                                       1.0923630
  2932   6 C     3184   1 H                                       1.0936976
  2931   6 C     3185   1 H                                       1.0934274
  2931   6 C     3186   1 H                                       1.0925599
  2930   6 C     3187   1 H                                       1.0913091
  2930   6 C     3188   1 H                                       1.0917427
  2929   6 C     3189   1 H                                       1.0931489
  2929   6 C     3190   1 H                                       1.0929561
  2928   6 C     3191   1 H                                       1.0922658
  2928   6 C     3192   1 H                                       1.0927698
  2927   6 C     3193   1 H                                       1.0933645
  2927   6 C     3194   1 H                                       1.0925140
  2926   6 C     3195   1 H                                       1.0925216
  2926   6 C     3196   1 H                                       1.0928366
  2925   6 C     3197   1 H                                       1.0927907
  2925   6 C     3198   1 H                                       1.0911871
  2924   6 C     3199   1 H                                       1.0932823
  2924   6 C     3200   1 H                                       1.0925820
  2923   6 C     3201   1 H                                       1.0936675
  2923   6 C     3202   1 H                                       1.0930594
  2922   6 C     3203   1 H                                       1.0931183
  2922   6 C     3204   1 H                                       1.0920808
  2921   6 C     3205   1 H                                       1.0934019
  2921   6 C     3206   1 H                                       1.0936045
  2920   6 C     3207   1 H                                       1.0928064
  2920   6 C     3208   1 H                                       1.0916334
  2919   6 C     3209   1 H                                       1.0933225
  2919   6 C     3210   1 H                                       1.0934886
  2918   6 C     3211   1 H                                       1.0927084
  2918   6 C     3212   1 H                                       1.0912996
  2917   6 C     3213   1 H                                       1.0923383
  2917   6 C     3214   1 H                                       1.0933658
  2916   6 C     3215   1 H                                       1.0934866
  2916   6 C     3216   1 H                                       1.0915542
  2915   6 C     3217   1 H                                       1.0916758
  2915   6 C     3218   1 H                                       1.0922668
  2914   6 C     3219   1 H                                       1.0944906
  2914   6 C     3220   1 H                                       1.0923041
  2913   6 C     3221   1 H                                       1.0910724
  2913   6 C     3222   1 H                                       1.0923221
  2912   6 C     3223   1 H                                       1.0940785
  2912   6 C     3224   1 H                                       1.0928408
  2911   6 C     3225   1 H                                       1.0923617
  2911   6 C     3226   1 H                                       1.0933612
  2910   6 C     3227   1 H                                       1.0932089
  2910   6 C     3228   1 H                                       1.0905420
  2909   6 C     3229   1 H                                       1.0915152
  2909   6 C     3230   1 H                                       1.0934011
  2908   6 C     3231   1 H                                       1.0933332
  2908   6 C     3232   1 H                                       1.0924077
  2907   6 C     3233   1 H                                       1.0930421
  2907   6 C     3234   1 H                                       1.0935808
  2906   6 C     3235   1 H                                       1.0924104
  2906   6 C     3236   1 H                                       1.0902983
  2905   6 C     3237   1 H                                       1.0928440
  2905   6 C     3238   1 H                                       1.0936738
  2904   6 C     3239   1 H                                       1.0934747
  2904   6 C     3240   1 H                                       1.0913566
  2903   6 C     3241   1 H                                       1.0905433
  2903   6 C     3242   1 H                                       1.0933722
  2902   6 C     3243   1 H                                       1.0936496
  2902   6 C     3244   1 H                                       1.0930506
  2901   6 C     3245   1 H                                       1.0911643
  2901   6 C     3246   1 H                                       1.0909126
  2900   6 C     3247   1 H                                       1.0930233
  2900   6 C     3248   1 H                                       1.0931822
  2899   6 C     3249   1 H                                       1.0931847
  2899   6 C     3250   1 H                                       1.0921530
  2898   6 C     3251   1 H                                       1.0923714
  2898   6 C     3252   1 H                                       1.0931811
  2897   6 C     3253   1 H                                       1.0870922
  2897   6 C     3254   1 H                                       1.0874367
  2897   6 C     3255   1 H                                       1.0882520
  3016   6 C     3256   1 H                                       1.0874680
  3016   6 C     3257   1 H                                       1.0877769
  3016   6 C     3258   1 H                                       1.0879784

 * 2 distinct bonds (by element types)

   Z      Z             #   av. dist./Å        max./Å        min./Å
   1 H    6 C        2178     1.0925575     1.0945401     1.0868871
   6 C    6 C        1071     1.5272133     1.5340052     1.5211551


optimized geometry written to: xtbopt.xyz


           -------------------------------------------------
          | TOTAL ENERGY            -3427.553776021238 Eh   |
          | GRADIENT NORM               0.000836917683 Eh/α |
          | HOMO-LUMO GAP              11.302753540735 eV   |
           -------------------------------------------------

------------------------------------------------------------------------
 * finished run on 2024/06/20 at 21:33:33.168     
------------------------------------------------------------------------
 total:
 * wall-time:     3 d,  6 h, 14 min, 46.951 sec
 *  cpu-time:    17 d,  0 h, 41 min,  1.680 sec
 * ratio c/w:     5.223 speedup
 SCF:
 * wall-time:     0 d,  0 h,  7 min, 25.046 sec
 *  cpu-time:     0 d,  0 h, 38 min, 43.628 sec
 * ratio c/w:     5.221 speedup
 ANC optimizer:
 * wall-time:     3 d,  6 h,  6 min, 39.747 sec
 *  cpu-time:    17 d,  0 h,  1 min, 20.696 sec
 * ratio c/w:     5.224 speedup

