3536
 energy: -3716.262483628479 gnorm: 0.000807256298 xtb: 6.6.1 (8d0f1dd)
C           64.04406943842535       42.26534886725364       55.95971844460529
C           64.61188216788770       42.39951139057880       54.54940077812481
C           66.11978106498712       42.63424880626057       54.62851077401895
C           63.95879402591778       43.54156781575042       53.75822513526133
C           62.43059524255399       43.48946867800941       53.64620016584025
C           61.95525770202354       42.15520719824588       53.07732653508234
C           61.89622281571275       44.61589496229625       52.74563707399829
C           61.95872793837888       46.03461720398865       53.32112165016562
C           61.02207167317080       46.17959623032689       54.51968319537191
C           61.55007228420279       47.07784937515257       52.26953869487435
C           62.54285397412244       47.35793641161433       51.13632644285078
C           63.83091492446302       47.97613274970116       51.67813364568087
C           61.90850462508392       48.32508274352352       50.12250246933394
C           60.91620517362328       47.71492826052426       49.12358077191720
C           61.63539305670101       46.82644936467590       48.11005289446743
C           60.13886847692363       48.83990756736258       48.40419393055600
C           58.62965523511193       48.83099156661998       48.67677413597897
C           57.96073333775745       47.67021620820259       47.94151149580902
C           57.97345220467601       50.15413452366667       48.24905493781736
C           58.20838543822821       51.33502007999411       49.19800926613317
C           57.48316610992825       51.12796379411650       50.52761217809205
C           57.73599698965796       52.66444022371073       48.59028802887710
C           58.44995550421807       53.13637477527631       47.31563773061569
C           59.96521913850006       53.15502622620133       47.49616335445977
C           57.92793302641327       54.53085246919124       46.93508498697642
C           58.20751483510156       54.93973318827418       45.48191513448640
C           58.00912747666533       56.44575145217934       45.31230570600626
C           57.30584501795118       54.16729279214622       44.50994076658633
C           57.85699611892073       54.02604039337697       43.08375293245278
C           56.73870986077991       53.52881924948069       42.17116709140193
C           59.06049198780784       53.07458779835948       43.06381948756128
C           59.67566908374376       52.75879334590653       41.69074173448879
C           60.88924981841915       51.85457341916876       41.90348611314515
C           60.06113350845912       54.04397657960659       40.95143152484739
C           60.62895113668893       53.88276901778264       39.53332531046740
C           61.07524692436680       55.26048697758821       39.04156585913843
C           59.60932791010472       53.25402579704293       38.56500032359558
C           60.19030929140789       52.15055283397066       37.67280265255009
C           61.08771322225089       52.73250782198328       36.58084633515551
C           59.08337865786594       51.30764948083205       37.02330311991246
C           58.27776403011294       50.40280066487406       37.96781618866152
C           59.19562688615628       49.50856453514346       38.79791724883290
C           57.31212176882094       49.54999385841788       37.13102534515433
C           56.19718827399587       48.87368014431286       37.94008800208744
C           55.63845360879778       47.68421714403224       37.16013601295073
C           55.07042725370439       49.85688340103990       38.28668504021248
C           54.33832138422034       49.50650670381404       39.59394377831941
C           52.90123860599779       50.01855039865346       39.54278294945624
C           55.12611597033411       50.07447254801755       40.78240463477412
C           54.71557128775703       49.56886511862995       42.17587132114773
C           53.68559023762613       50.49080548802759       42.82410179124094
C           55.93962072537140       49.49591083344826       43.10278209244670
C           56.83161495842372       48.26449647443759       42.90044429541757
C           56.21400832912862       47.05274990205984       43.59256747666610
C           58.23132852998863       48.57030493533006       43.44783862385778
C           59.28453326648636       47.46454925531462       43.29469228800280
C           60.50912181453334       47.83436542831018       44.12886618180010
C           59.65379908773046       47.27071004164154       41.82067793620468
C           60.55881887586010       46.07205988722637       41.51082166470305
C           60.95394136948825       46.11704393877282       40.03396244957875
C           59.88264892153357       44.73090838113836       41.85480999465753
C           60.53896368586062       43.99443418278603       43.02786768355184
C           61.88415832403946       43.41211572147927       42.59448040011782
C           59.65663130214067       42.85621163824369       43.55555433154935
C           58.37779967810714       43.26321698392625       44.30286827152813
C           58.70283088843822       43.99454973351235       45.60142869235226
C           57.56150596175362       41.98888805758108       44.56348925640156
C           56.20420538964546       42.14606761440639       45.26792366648207
C           55.55910293585163       40.76181460769577       45.35208186919918
C           55.31889183723094       43.14969715881897       44.52003253708534
C           53.84811342212339       43.24011611924073       44.95483592447666
C           53.15861060531986       44.30061670557085       44.09653044089948
C           53.72508451555873       43.56551110571048       46.44833871444929
C           52.31015347705338       43.87201413972814       46.96362989635115
C           52.39922862311101       44.20122021284659       48.45213915184491
C           51.34437870496849       42.70587015988040       46.72287678866898
C           49.85554546426342       43.02301452115281       46.93852030052510
C           49.07218468369209       41.71160726168751       46.96920716039592
C           49.33310564062094       43.95295469058096       45.83587478022522
C           47.91916411924996       44.50870954017273       46.04478132048746
C           47.46196276248361       45.24235040250064       44.78208817977039
C           47.75212271543911       45.36229969090457       47.31720022618953
C           48.86356100000614       46.33894597308274       47.73804040369761
C           48.48198445492155       46.90501914255995       49.10711554363026
C           49.09231716158784       47.46365973386395       46.72194128463210
C           50.10084268279492       48.54912090050048       47.13265542572644
C           50.18093974725694       49.59890195945796       46.02450197305234
C           51.48119376156961       47.94989515961743       47.42271141083062
C           52.52433203562475       48.97522748999108       47.86446737969565
C           53.78914220107180       48.29586854831324       48.37564604547652
H           63.00299053362463       41.95743060003292       55.93980293563279
H           64.60249079287475       41.51850390503196       56.52148763483582
H           64.11237744386200       43.21184664635019       56.48920657509415
H           54.22263262436464       47.66700985711530       47.60008081723631
H           54.53092278963430       49.03532204930220       48.67202727728775
H           53.56559213872180       47.66998953768875       49.23762122954382
H           51.38621379725488       47.20964717818483       48.21816887740240
H           51.84349906072060       47.43220844441185       46.53011541850995
H           49.44792994362430       47.02882563961413       45.78658818619504
H           48.13171179176711       47.94532261857065       46.52002231877743
H           49.79160609733962       45.77407886194080       47.84849737397544
H           47.60106551913537       47.53832204409974       49.02556374527691
H           48.25553739488462       46.09845114446537       49.80227481247196
H           49.29103765669210       47.49035422105848       49.53125885020871
H           46.82037746076551       45.92677113954767       47.22175477884903
H           47.61195291931861       44.66859802608110       48.15176520736716
H           50.01597702484827       44.79470208030956       45.72112361082201
H           49.34348378009684       43.39852372247543       44.89174934407219
H           49.73687691687419       49.04531488774593       48.03622077165693
H           49.18642742860938       49.94971241654500       45.75754660071014
H           50.76283181351248       50.46010054216055       46.34184590676399
H           50.64291008249122       49.17701855409365       45.13527982056913
H           47.23464410665918       43.65883883690304       46.16194200802288
H           48.14107291455575       46.04616555436940       44.51667637674955
H           47.41353528804627       44.54983022366638       43.94265578135344
H           46.47080011483077       45.66817114647824       44.92173218707839
H           49.72784824144523       43.50840844359611       47.90870087875799
H           49.45640700778027       41.05953834725711       47.75065871835628
H           48.01872074953685       41.88801096899600       47.16935492255763
H           49.15853055730799       41.19093861955306       46.01639915887937
H           51.45645292170401       42.34160691103816       45.70024361591383
H           51.62771579377013       41.88819028906796       47.39137958120932
H           51.94226610007007       44.76163255271776       46.44687373088492
H           52.79766769185508       43.35244467756335       49.00478445704150
H           53.05489512465215       45.05362907633177       48.61202366206879
H           51.42039652989864       44.44131965786474       48.85977977412178
H           54.12372202689544       42.72950379965157       47.02664326383790
H           54.35285108842179       44.43550338799862       46.65941832287332
H           53.37169054367291       42.27581032168634       44.75279762830444
H           52.07988821627048       44.27129150257255       44.22209578186111
H           53.51542244132609       45.29384281575680       44.36070343664121
H           53.37570248337038       44.12946027154751       43.04379762766764
H           55.75667627180103       44.14427487546327       44.62518907266737
H           55.33979761678032       42.88926979876113       43.45805970673985
H           56.37165950711313       42.50580305010774       46.28737047276966
H           56.24991252551897       40.05100650539556       45.80190239603813
H           54.65670269661187       40.77733671873625       45.95643357209413
H           55.30291099797085       40.39979919310743       44.35824417905879
H           57.37977306051777       41.49997794856091       43.60145088467235
H           58.17756946436700       41.30712654241549       45.15727815738238
H           57.79124754945364       43.92484517528486       43.65912716070689
H           59.25603824213362       44.90940868217569       45.40504518905423
H           57.79432662735542       44.26486675774277       46.13226074312330
H           59.30566313338752       43.36140162191592       46.24715908718080
H           59.38215368476116       42.22417277404971       42.70661448726248
H           60.25847348643470       42.24044474871357       44.22991946760422
H           60.72189118124759       44.70740789812939       43.83610187427660
H           62.52820254753099       44.18324079410324       42.17856397102944
H           62.39658137293955       42.95919067029301       43.44051814267844
H           61.73705638168188       42.64645560666151       41.83401878909565
H           58.83082687364345       44.90943523390551       42.07800618083697
H           59.91188695667655       44.07079444484542       40.98450553150549
H           61.47744184532414       46.17031333087709       42.09585449691205
H           61.46459823898564       47.04937704054376       39.80085936410214
H           61.62128751563135       45.29329140425699       39.78845208201383
H           60.07184672980353       46.04486931028593       39.40016861567688
H           58.73747930766071       47.15028345071480       41.23900160301918
H           60.14906792169990       48.17962403097827       41.46841885306170
H           58.87815106814001       46.53062831315988       43.68917881777875
H           60.94719574228423       48.76656921829778       43.77538083813702
H           60.23284956634060       47.96332710056040       45.17368208986417
H           61.26663043957850       47.05711451164787       44.07531621005182
H           58.60959474485310       49.46884710697933       42.95134707844453
H           58.12791571692451       48.80548460121155       44.51127962721966
H           56.90106799605895       48.05538203117536       41.82810335544121
H           55.18111040535020       46.92107964884848       43.27908636055938
H           56.75646449790990       46.14381522923390       43.34814213690905
H           56.23190819397004       47.18401413831390       44.67307031623468
H           56.53323204091235       50.40032823039907       42.95010565098683
H           55.60489934498051       49.50407104352351       44.14265779793531
H           54.28304219582344       48.56812424826607       42.07503366143364
H           53.39352006694675       50.10765706633455       43.80085264745574
H           54.11774155170986       51.47899855831599       42.95997120884214
H           52.79085759380849       50.59132611763122       42.21795857404859
H           56.17728316088935       49.82492190311675       40.62258219031984
H           55.04973469727920       51.16466996862189       40.76215491595308
H           54.30262109470363       48.41475005097808       39.69145295496823
H           52.39963708797890       49.64884511006853       38.64915140813392
H           52.33757630898707       49.67681365732623       40.40583553605457
H           52.87979880328429       51.10630254969021       39.51795373412678
H           55.47198205107654       50.86823879846897       38.37611774271344
H           54.35936977323963       49.87054886883979       37.45715669331209
H           56.62383059331778       48.49027476158417       38.87188222838500
H           56.40166223661914       46.92204761375243       37.01640833058941
H           54.80457017385333       47.23149016390002       37.69109199881434
H           55.28581272287295       48.00375893954780       36.18093236937525
H           56.84984776691124       50.17369318232500       36.36119833490999
H           57.89637628526823       48.78214496665577       36.61733364391456
H           57.68770473239449       51.02494895834980       38.64845868860730
H           59.92512182664836       49.01523833847152       38.15841774750670
H           59.72422123734270       50.08353423217051       39.55276201070811
H           58.62524370835627       48.74037375902542       39.31156035936164
H           58.39402797618596       51.97872364415251       36.50291682814915
H           59.54422657559389       50.66696817502617       36.26571106279308
H           60.80844397573057       51.49130725547595       38.28917255155676
H           61.48262374806052       51.93976239597744       35.94784889382459
H           60.52838498880178       53.42292228587627       35.95211082319239
H           61.93050609587301       53.26393272068670       37.01482470362216
H           58.79024198440286       52.82523042266578       39.14067214567536
H           59.17806102508798       54.03145888078877       37.92992550848094
H           61.51366882403058       53.23965286965895       39.58095841470111
H           61.82930775563477       55.67554698465594       39.70719779052750
H           61.49450639007436       55.20872772625952       38.03998983739596
H           60.22923620609416       55.94446231608761       39.01907860073886
H           59.18313469388843       54.68705340517174       40.87737619552053
H           60.80106079599852       54.57106236166992       41.55849551882119
H           58.94201200426684       52.19942659060391       41.10189095338927
H           61.28922385544875       51.49722448300313       40.95793472348220
H           61.67759445811597       52.39294127801868       42.42524767987079
H           60.61570287612803       50.98650660404498       42.50045577461835
H           59.85062555218960       53.49474769303168       43.68949569814207
H           58.75439128769361       52.12872950633383       43.52052948488545
H           58.17430468629850       55.01509413876427       42.73924894260325
H           56.41016805896283       52.53951419765723       42.48168611416183
H           55.88569196766596       54.20208670529444       42.21598020475812
H           57.06509175967049       53.47259970488344       41.13591811987752
H           57.11608562583595       53.16400909812735       44.89691101095306
H           56.34177779987844       54.68007735616009       44.46106972467290
H           59.25286843829355       54.71484536906896       45.25450508027296
H           58.71936520764579       57.00097705596534       45.92137802479015
H           58.15313306787383       56.73836263935955       44.27468422860846
H           57.00386112913716       56.73689672658966       45.61097694578730
H           56.84887037717436       54.57122844906858       47.10249941526002
H           58.38620865371504       55.26308815258847       47.60559793157754
H           58.21338729958121       52.44412345217001       46.50199823782054
H           60.35598447739741       52.14264248892160       47.54733000647646
H           60.44916501611736       53.65158063561682       46.65862522430419
H           60.23689894614267       53.68021727608580       48.40948479667796
H           56.66580107697867       52.58524091489222       48.37870817565351
H           57.85864505325643       53.44162022417197       49.35070378652194
H           59.27795315646533       51.41201629520350       49.40997137039621
H           57.62093253661441       51.99422329392451       51.17137381514279
H           56.41555251615266       50.99591867868272       50.36436001104509
H           57.86240425072616       50.25583379187519       51.05339026623518
H           58.34732371712529       50.40695525207717       47.25479152784222
H           56.89447957018587       50.00109909422466       48.15975670630793
H           58.47628217029956       48.68529156417714       49.74985304630258
H           58.42304496382521       46.72334404265803       48.20660870002359
H           56.90391431915397       47.61328070810678       48.19449981567547
H           58.04693610527283       47.80211092244106       46.86392694599970
H           60.54902038565777       49.80172933576484       48.71242037904364
H           60.29521607819214       48.76537359184307       47.32571672686643
H           60.20423471696896       47.09283572649079       49.67467571180533
H           60.92958424105726       46.42285351153938       47.38690459518543
H           62.38928485343072       47.39626386781977       47.57038239413825
H           62.12708543395831       45.98807752943470       48.59798375202624
H           61.39218031989400       49.10384587420681       50.68757378475791
H           62.70220912930530       48.80961918564184       49.54910706632183
H           62.79806120786566       46.42115794712975       50.63167538698494
H           63.61105398105300       48.89848828821683       52.21273761734474
H           64.33982114894103       47.29800273175348       52.35852787521711
H           64.51720372056501       48.21087391274643       50.86745840471842
H           60.60168807058895       46.76022751488122       51.83178339898762
H           61.36618727748338       48.02412865648545       52.78641147033745
H           62.97979776804942       46.24098974180391       53.65517544744294
H           59.98899028426268       46.03183692648284       54.21243392243024
H           61.25150123662360       45.45172734076534       55.29281803923370
H           61.11351175624259       47.17358314087609       54.95365815399635
H           62.44882022849421       44.58600875207397       51.80317907500319
H           60.84931134134822       44.39746554672249       52.51603904788963
H           62.00042764676437       43.60142640126875       54.64511964627307
H           60.87015718638251       42.15600941802340       53.00110976280219
H           62.37309262665223       41.99772853664515       52.08568877820696
H           62.24730908902049       41.31895516017929       53.70707021592684
H           64.24409024808713       44.48278336107230       54.23327411997042
H           64.38326948319073       43.53942918752309       52.75003545600112
H           64.44898698299858       41.45694797134552       54.01474723642337
H           66.61341872149663       41.80402900696622       55.13059080518433
H           66.54788582158842       42.73358626462672       53.63342707635638
H           66.33012190403133       43.54461849788679       55.18621262372702
H           52.78579771359273       49.62944405999199       47.03089747195537
H           52.10388677047159       49.59833918308600       48.65736104440082
C           38.12428437117421       63.52293805613660       54.74691642921018
C           39.11501603340234       64.40764718746389       55.50114155618997
C           38.38435632400234       65.61855713342992       56.08034634786546
C           40.25681542840465       64.87462910401344       54.58952496690226
C           41.28437304844736       63.79358238209603       54.23367591372202
C           42.16419024710778       63.46947410250248       55.44124256402628
C           42.17025127772791       64.23460224085854       53.05824471852807
C           41.47180398627549       64.34142391193134       51.69702341624054
C           40.86139663559793       63.00525177320885       51.26903776172850
C           42.45164070563743       64.79519702731029       50.60511668117820
C           43.11821427831168       66.16969807269319       50.77346460194396
C           42.08858811145136       67.27439017073786       50.99343980488849
C           43.95321495789705       66.43266070151110       49.51130890679630
C           44.82675927392949       67.69619839530294       49.48357565388928
C           45.48103989171990       67.78483029587166       48.10492894054099
C           45.86605378955377       67.66199013365055       50.61031290671389
C           46.95477907661956       68.74638906893836       50.59431851718766
C           47.87573041430842       68.50835133935990       51.78953855524140
C           46.35734690295796       70.15598217892907       50.62436351785490
C           47.36084880848659       71.31922034672381       50.58318139222786
C           46.59110183037003       72.62642975117855       50.79175262486653
C           48.15747720211159       71.39774106201797       49.26550471280601
C           49.55884729420429       70.77038277704919       49.27026998257018
C           50.47700510011794       71.46077299164126       50.28129569916825
C           50.22314189548911       70.88196432207053       47.88648109821251
C           49.50506135505038       70.20646731577834       46.71210384364478
C           49.18717820253670       68.74650460153872       47.02473409496659
C           50.37042173676021       70.22963521669601       45.44282602753753
C           50.85719821127318       71.59465496964455       44.94707774142962
C           49.68534245704035       72.53978019256326       44.68120074104251
C           51.66812401021280       71.43871386524894       43.64956184079937
C           52.94092240601707       70.59002417757179       43.74587817532742
C           53.96137168838935       71.22981495664155       44.68625643081518
C           53.57845600819452       70.37960667440022       42.36474908513767
C           52.71353803917243       69.56337037239247       41.38070659738703
C           53.51970093476903       68.39969431352266       40.80502983684637
C           52.18920510081614       70.47043254209862       40.25920886860560
C           51.05716200404343       69.90461709585476       39.38700683617735
C           50.87739398402744       70.82523101838156       38.17878499821575
C           49.76324328650433       69.77610341457296       40.20391193112673
C           48.49506514765137       69.42435300648206       39.41695893596520
C           47.28261159229352       69.48927387182489       40.34861694174496
C           48.54934988495056       68.09254450561566       38.64954209074533
C           48.53933305665510       66.78563399355737       39.46736509875728
C           49.95801486684699       66.28019244943714       39.71888581270967
C           47.71011482973852       65.74740117892982       38.69746157155162
C           47.49193034358988       64.38068648403626       39.35854090518060
C           46.75822455275632       63.48748455682156       38.35479542645629
C           46.68520453994142       64.47137390679720       40.66547283783190
C           47.51912251555981       64.45650642679865       41.95310516301279
C           48.10685421440066       63.06838162031693       42.19783181043996
C           46.66283187871633       64.84993272306350       43.16408880643159
C           46.30620631579394       66.33641861788425       43.26739931795476
C           47.53452784077315       67.15282454983418       43.66870730151195
C           45.20454095528988       66.56843972584700       44.31188672877888
C           43.81281601097641       66.01345030040518       43.97687915573575
C           43.20502813238178       66.74228692775837       42.78076100830520
C           42.91996127029268       66.14267574542995       45.21822488483190
C           41.57334901121310       65.41047985632453       45.15213755242959
C           40.75029023397063       65.77449506747043       46.38942390395761
C           41.73739152552409       63.88112748616942       45.04932112701468
C           41.34415611304472       63.29118468331695       43.68918647180830
C           39.83754240025939       63.42551401523225       43.45813107148826
C           41.71051049855541       61.80295968590062       43.59601430875103
C           43.20355286973366       61.45042554952738       43.54304240544003
C           43.85415767897774       61.98086463082613       42.26851234190075
C           43.34035515764137       59.92354635115325       43.62032879111649
C           44.73984477615329       59.38886881498551       43.94765265117931
C           44.73426874165597       57.86701728122595       43.79568833422301
C           45.19978520988390       59.78537322635870       45.36386997487349
C           46.39564010431995       60.74343099993406       45.40201552052788
C           47.65815908112170       60.05191671502123       44.88943249045233
C           46.65723043740863       61.24275106645330       46.83058985341729
C           45.63887595473705       62.23731397021907       47.39888226638092
C           45.71231454004340       63.57747909218543       46.66962664854830
C           45.88996318782605       62.48327728877439       48.89380611068685
C           45.63490596229556       61.29774036832416       49.82907486265532
C           44.20064285557894       60.78621298224608       49.70086459445118
C           45.90280509737131       61.68239004935151       51.29178456383010
C           47.33594210271756       62.10476845995646       51.64002521836404
C           48.35679602919336       61.03323340977272       51.26476112736782
C           47.43225161917069       62.41306432431163       53.14410269591974
C           47.06241840340487       63.85586045316241       53.51764770996396
C           48.21445778183136       64.79170736163756       53.16714278555080
C           46.72749628263704       63.91730740087866       55.01371793268746
C           46.48253520844401       65.31097400756465       55.61014875439852
C           46.20493863548854       65.15412301943898       57.10592661668102
C           45.33242617334838       66.02738654176787       54.89613761710866
C           45.07165851815711       67.44742914043587       55.39501005138974
C           43.99395389500655       68.13994090139931       54.56818444338816
H           37.67712438413526       64.07417324447779       53.92181133316054
H           38.61136779401393       62.63911855948816       54.34255672951227
H           37.32697626207828       63.19346947057559       55.41010668810080
H           43.06038204535184       67.58239595684711       54.61406016289841
H           43.80897163325901       69.14594123803626       54.93910663464985
H           44.29374826995871       68.21109557952667       53.52453163773060
H           45.55812823858543       66.08348385061974       53.82970117446377
H           44.42320976719414       65.43402708717058       55.00916970326112
H           45.83756558104060       63.30896347326701       55.19494040659477
H           47.55379905886321       63.45767794467012       55.56343598851367
H           46.17874965525387       64.14978565528214       52.94211993731822
H           47.93642481442205       65.83126660934826       53.31527571977604
H           49.07883550228172       64.57116586068214       53.79091679263304
H           48.50427661207657       64.66394443061795       52.12726351590757
H           46.78201943116473       61.72195240783915       53.68606221899969
H           48.45278534354159       62.22758793736189       53.48684130077942
H           45.22429444974113       62.49463883568627       51.56791437325024
H           45.64582655063609       60.82363079610288       51.91883402930492
H           47.39102457462527       65.91262233224455       55.49981768267799
H           47.00078955343775       64.58232002365396       57.57866192384713
H           46.14898876227890       66.11984714736656       57.60140060480955