3795
 energy: -5103.572415499673 gnorm: 0.000984564228 xtb: 6.6.1 (8d0f1dd)
C          112.78193527562829      115.06084040813978      109.53430396658625
C          113.26834463109738      115.50646549364241      110.88886401648479
C          113.07570483353773      113.59720445895718      109.20754578682232
C          114.53750713465752      113.19570345424238      109.40557092783715
H          112.44814117008933      112.96700673413127      109.83949665682680
H          112.78859077551013      113.42936556535824      108.17016073544659
C          115.55949656490986      114.06614972395946      108.67257421853024
H          114.76959285412440      113.24311268606677      110.47130800856186
H          114.66942081411693      112.15770345866585      109.09020376385875
C          115.46908984585163      114.05582422881453      107.15422974406626
H          115.44395269761442      115.10616883444429      108.98765144063242
H          116.55957056952414      113.73463045935419      108.95531629467311
N          116.66908186805459      114.14557648300243      106.56388242200244
O          113.50738951844411      116.80760734978601      110.92338182399170
O          113.42548138662745      114.79055389990963      111.85172581610684
H          113.85519629226405      117.11721415965432      111.81645512196341
H          113.19378359245306      115.72898784741545      108.77713375430714
H          111.69796431180077      115.19520732268170      109.53620691535906
C          116.79942285598753      114.18626987947307      105.12210445475280
H          117.50541190184261      113.93181872083063      107.10271282061437
C          118.25585090871861      114.29984729235578      104.69034870023640
H          116.35833584056986      113.27805911777533      104.69557420045415
H          116.21713776722196      115.03960576662696      104.75804508991155
C          119.00731232531095      112.98591199267538      104.88173118512091
H          118.28564088649858      114.58299403673102      103.63667241338570
H          118.74533435468626      115.08731075576517      105.26413982686481
C          120.47834311133160      113.09146468504601      104.48940425093264
H          118.94194620604763      112.68263581317612      105.92655551546761
H          118.53164892921473      112.20963177640904      104.27929906905933
C          121.18975324428396      111.76371547689830      104.73144956126599
H          120.56282517915056      113.35966836408058      103.43415373670490
H          120.96291589325091      113.87738124446079      105.07180781257873
C          122.63356474695027      111.75937676714550      104.24513864709951
H          121.18233488074937      111.53232321312180      105.79739081975779
H          120.64744458995462      110.97356826476926      104.21118489783625
N          122.69915290816316      111.87685159637539      102.80402122641648
H          123.19533263472033      112.59441292144687      104.66952649766615
H          123.12026697682326      110.82678244766373      104.55510359588580
C          123.58319250611592      112.64456324556554      102.16793109807989
H          122.01638271247454      111.34823314371755      102.26942269205107
O          114.41916975047160      114.03639273990385      106.51458585067384
C          123.48880077665494      112.62137342690197      100.65432801375745
C          122.70046405140592      113.82987826892308      100.14463263783556
H          124.50298509115342      112.65288522315123      100.25129375184780
H          123.00716489958661      111.70461194003096      100.32157237179138
C          122.75409629170683      113.92054680115086       98.62096061871607
H          121.66047011588731      113.73642334947597      100.46691173674476
H          123.10685346261360      114.74282546051298      100.58791254880508
C          121.87615659676393      115.05525643972780       98.09351329635659
H          123.78675520700342      114.06945875003868       98.30106159900846
H          122.40970857111130      112.97940010709445       98.19114650213764
C          120.40649829524997      114.72174530909084       98.25802066532914
H          122.10850133789417      115.98401751965051       98.61550124301272
H          122.06509056644552      115.20951794486228       97.02947713285759
N          119.66746502616274      115.69156576628245       98.81110516651435
C          118.26419724439094      115.56095156765289       99.14925578020197
H          120.09472299599915      116.57910004290893       99.02529529408909
O          124.41786562173108      113.33508130223878      102.74867679863124
C          117.98347279010309      116.26311328729885      100.47278885238646
H          117.63820966875916      115.99052957872554       98.35923591956409
H          118.04948820114321      114.49237482528864       99.21714841272316
C          116.58258443886682      115.96835506499154      101.00504406774573
H          118.73216780796876      115.95416939104572      101.20597022980330
H          118.08293703432216      117.34004558949907      100.32616248782416
C          116.23600345333688      116.91720475245288      102.14821460814096
H          115.86156092351257      116.08808075170468      100.19731932798582
H          116.51903551482989      114.93658781656036      101.34859136638443
C          114.82821778013924      116.72328403697774      102.70449989941064
H          116.95294111233045      116.77297920497908      102.95693369431753
H          116.34172495595777      117.94397718516473      101.79028687804839
C          114.58603469379615      117.69795109088921      103.85287084534288
N          113.20013912148305      117.71715477371534      104.26125375840218
H          115.17851658758028      117.42997970925784      104.73122928676524
H          114.88175569689299      118.70625815505296      103.53364734852174
C          112.81449987819448      117.83777823715016      105.53314802156716
H          112.51873761939341      117.69645504084173      103.51068874840666
O          119.93177075653902      113.64349796510930       97.91479605409913
C          111.31236029258162      117.90605812989432      105.74299743828284
C          110.62622540076687      116.59433560942063      105.36531707179664
H          111.12555406197407      118.13102777863112      106.79471715923293
H          110.91388283239674      118.71950430045253      105.13174280579882
C          111.03735080357154      115.43074609584615      106.26262905202070
H          109.54398523136058      116.72454499504545      105.44271505819380
H          110.85814421807896      116.35113038328215      104.32631330721331
C          110.35423685926919      114.13817366747382      105.81107338174363
H          112.12185638541432      115.31329038920600      106.24562480685655
H          110.74554246676850      115.63885810705999      107.29269726555340
C          110.67139519660508      113.81900509793269      104.35953477377123
H          110.67988578249332      113.30881067142322      106.44029597692568
H          109.27173833235500      114.23598532004907      105.90692687769577
N          111.97205615070412      113.64456613599265      104.11557399072939
C          112.53905070268556      113.35996138504139      102.81420607117276
H          112.63510055452146      113.78066297383639      104.86719972755640
H          114.08466294521666      116.90040987769514      101.92575075721149
H          114.69805989314087      115.69856628897980      103.05504802740070
O          113.60546742294351      117.90605554898696      106.47079635208156
O          109.80018519705496      113.72672594556235      103.49701982014008
C          113.81698444369415      112.54804171082733      102.98934950819229
H          111.79163470856182      112.82129233327821      102.22739954714373
H          112.75907586455909      114.29706368248554      102.28745262366181
C          114.59592173781648      112.37760432725094      101.68418295739714
H          114.43612465163905      113.07517151164379      103.71835525744366
H          113.57535847244937      111.56804243188498      103.40564574512844
C          116.08291718923600      112.16524643779364      101.95971485230190
H          114.19612690002839      111.52371196287478      101.13803777101620
H          114.46184195106967      113.27049760408644      101.07002020897094
C          116.91231432581814      111.96089248449439      100.69455507184158
H          116.46726623992116      113.03888187710199      102.48797197625623
H          116.20643893377451      111.29920144030307      102.61254342137559
C          118.40322892036335      112.09115250086289      101.00837398313951
H          116.70965433453000      110.97428577379600      100.27442466680876
H          116.63367796842614      112.70684683947700       99.94749695475862
N          119.20863546285443      111.66392633530914       99.88837111274442
H          118.63797759878753      113.12917930893136      101.27136353098432
H          118.67241649863098      111.45552375962593      101.85529829972319
C          120.30262146705169      110.90926651844893      100.01151472346372
H          119.00691074260648      112.07417765190864       98.98582468288497
C          120.88067438311590      110.43554636524115       98.69592033549692
C          120.03252169153122      109.27699567904544       98.15446054194088
H          120.88375129073401      111.25643670058287       97.97909819460381
H          121.90534966888025      110.09897672895538       98.85994592028888
C          119.70802788946654      108.23773335594618       99.22844262570402
H          119.10156065868294      109.67459068484906       97.75040018619356
H          120.57183520136817      108.79889837762710       97.33544439159664
C          119.26306627450099      106.89793155456131       98.63349923127967
H          120.58899378756344      108.06561372280396       99.85039993864117
H          118.91922027480508      108.62055505151969       99.87674646130364
C          118.16019572146212      107.05671897515137       97.60315151926532
H          120.11095329056276      106.42922681433522       98.13050787814922
H          118.91596676380591      106.24273376529840       99.43269988880131
N          116.91542265502790      107.07761690024006       98.07536600070803
C          115.76609317137576      107.03721143322826       97.19026900939289
H          116.72340568276763      106.90743812312790       99.06240436372713
O          120.76560530694688      110.56397540247906      101.09740608980518
C          114.49062915842363      107.48758847941910       97.89208852631305
H          115.98381721609555      107.66740465547414       96.32301013524030
H          115.64102570222691      106.00849116706951       96.82898875381989
C          114.34590410094413      109.00563335300605       97.97394101191546
H          113.63792483125482      107.08224115853157       97.34558077306245
H          114.47722284552603      107.06302391071073       98.89754964831943
C          113.03674741409448      109.38937240055063       98.66006102092651
H          115.18638071319192      109.42433761037401       98.52910559921355
H          114.36467083425089      109.42460234185678       96.96588188682939
C          112.74206409467575      110.88629645819225       98.59013784543411
H          112.21480818874829      108.84748220911739       98.18681268093680
H          113.07331734047899      109.08437018142664       99.70839487327240
C          111.53566813848438      111.22249075597082       99.45948324028836
H          113.60410970092551      111.44547126648085       98.95220798494674
H          112.55278480393697      111.18391170046229       97.55771565405726
N          111.25673888118055      112.64148616221608       99.52502840371041
H          110.63733432255796      110.73391814856336       99.07379293720732
H          111.71732206972999      110.84414581002790      100.47333168043217
O          118.41697520262817      107.16508915463177       96.40010914908157
C          110.02604894676607      113.14801096347233       99.45518234194280
H          112.03216164151611      113.27379078571514       99.69826910222844
C          109.90585079483273      114.62816411791059       99.75305619554379
C          109.70829988342955      115.45942453161081       98.48304797897599
H          109.03357047909583      114.74933890001742      100.39991162272170
H          110.79017744992329      114.97530343391286      100.28483900695170
C          109.29784954706322      116.88595777372765       98.84017424253462
H          110.64111426672517      115.46557751534372       97.91535444283652
H          108.93535742771714      115.00150455005196       97.86111685983333
C          109.20071379941673      117.79990294595549       97.61702911602561
H          108.32272362079379      116.85674915212411       99.32888883125685
H          110.02282416734580      117.30242466695583       99.54200597796188
C          108.71283882749798      119.17224910251841       98.04320960111622
H          110.18061039503235      117.90309279947546       97.15045471649196
H          108.50331037222098      117.37117741273636       96.89717724524712
N          107.38705309697511      119.27002590798435       98.13225506991996
O          109.03308153979141      112.47108500570472       99.17946463941436
C          106.65465796028518      120.46150583718054       98.50209462089646
H          106.83037467376356      118.42755679595423       98.02363098495115
C          105.79953903581875      120.22304807427240       99.74913483886419
H          107.37973196740171      121.26228132018080       98.65786754265780
H          106.00728850909984      120.73817518324476       97.66239825296751
C          104.70270132035751      121.27365514756799       99.91263535257677
H          105.34396709576340      119.23487871701666       99.65203360952485
H          106.44352900610896      120.21421304537829      100.62798895498007
C          103.64180331466484      120.87889886837955      100.94270116669723
H          105.14790968193547      122.23008474768666      100.18416777870620
H          104.20017161316164      121.40865797244172       98.95235116295609
C          104.14965569853081      120.70129601225989      102.37403463570249
H          102.86219156600032      121.64350528364136      100.94232300621285
H          103.18076984921014      119.93960780625936      100.63034872648845
C          104.71423029928526      121.98236859780097      102.97501407684749
H          103.30628648209749      120.38891931471549      102.99348793234304
H          104.89999929830478      119.91194625290780      102.41428495513594
N          104.82359239874960      121.86816068683918      104.41794536768951
H          105.70973125265512      122.20590543695548      102.58247375545892
H          104.05898112639122      122.82858128114080      102.72942853214813
C          105.56359558696340      122.70188154922621      105.15802211637082
H          104.25798904727483      121.16100963784649      104.87392893990464
O          109.48173948925336      120.10316983076019       98.28485296325348
C          105.48687399103335      122.46308837944694      106.65160038173640
C          105.10321130594230      123.74072587000612      107.40222938580926
H          104.77133075159793      121.66914326020152      106.86348917238590
H          106.47279899761266      122.14688807534250      106.99762083859864
C          105.24723246389553      123.53698773563187      108.90626902754158
H          105.75620479543862      124.55327241023441      107.07576994340828
H          104.07608602841516      124.02016119940257      107.15736573493972
C          104.89720371937040      124.78894691890135      109.71765605938131
H          104.59734959438229      122.71981545623905      109.22505810850147
H          106.27806186741132      123.24690514630284      109.11935693235122
C          105.23227239441665      124.50444297283249      111.16988731538510
H          105.47260930935124      125.64333022283257      109.36295942450481
H          103.83124102260724      124.99849699777724      109.62340624048959
N          106.44137300626653      124.93247809305799      111.54984400002834
C          106.96570782676436      124.67897763314490      112.87774389836379
H          106.94859442728685      125.57091550503742      110.94852230007798
O          106.25330218887446      123.59413445686435      104.66510769570405
C          108.34352679675911      125.29282640553302      113.07096884364935
H          106.27991964184615      125.08978031213751      113.62788863446471
H          107.00050232972472      123.59358368890702      113.02783357374604
C          109.43714495381637      124.61471775884051      112.24667435721032
H          108.29112550880258      126.35133891940504      112.80988020593085
H          108.58731123148303      125.22755027214824      114.13192473365129
C          110.80025555108561      125.22715410646178      112.56561210825448
H          109.45193882147932      123.54801165467052      112.47517938295853
H          109.20845144042610      124.73099262203252      111.18689626881886
C          111.97348121874596      124.60961317829268      111.80506125847045
H          110.76278647087733      126.29611788810948      112.34863440792164
H          110.98720037882769      125.11130384505788      113.63452671180821
C          111.91104251083593      124.89942679561713      110.30683868071070
H          112.89948125316346      125.02748484136936      112.20779043681104
H          111.99529586444484      123.53022939243968      111.96113203667834
N          113.13293630283982      124.46916182044318      109.66129180760487
H          111.06105308463927      124.38398526878574      109.86080672781831
H          111.77598791171714      125.97615675704860      110.14331499289290
C          113.36603198590049      124.15239323410597      108.37876992544058
H          113.96432254139451      124.57064536648802      110.22986876244748
O          104.49031768680632      123.86290782686487      111.90927361068998
C          112.16690519641458      123.95397945408003      107.47422033969873
C          112.50758704956620      123.11241366165737      106.24255890105722
H          111.36986333450247      123.47526022294566      108.03888060218101
H          111.80889043328020      124.93983721046050      107.17314907634393
C          111.28206167300047      122.71291285804777      105.41713733870921
H          113.20006565107516      123.66632172589183      105.60608376035427
H          113.02860355878489      122.21060630269557      106.57148523690745
C          110.24328833150166      121.96031002015832      106.24437891080653
H          110.82787515348794      123.59238935971193      104.95923647891190
H          111.60988925454400      122.06256332300411      104.60327109687731
C          109.31396158597094      121.07428579342211      105.42935067095702
H          110.75729710147056      121.29634806317161      106.94339468425711
H          109.61879968842044      122.64673664419078      106.81762733836123
N          108.43796043286633      120.41219352771965      106.19053024157775
O          114.51874699093452      124.01992754939786      107.97792130813919
C          107.51243461224807      119.43857759830983      105.65205906710516
H          108.32382915653305      120.67892926661649      107.16514274268367
C          106.74522697936827      118.72557232538048      106.75731854576567
H          106.80248057738271      119.93567547035697      104.97817848855119
H          108.09016967777298      118.72238916352120      105.05824857973094
C          107.63488460804207      118.02189209025347      107.78463277309591
H          106.11531040770441      119.45391095800871      107.26897946513922
H          106.08905725921100      117.99323671355825      106.28328341867079
C          106.79079324445779      117.13391050062970      108.69909246923500
H          108.38410447064417      117.41967871466807      107.27115990080489
H          108.15179311114011      118.76862268420676      108.38639856673545
C          107.50767594042375      116.62383054157937      109.94655692602808
H          105.93090754810002      117.71729521174579      109.03190091682504
H          106.42242186202435      116.28251995445453      108.12195933846813
C          108.79661783910421      115.85895858981013      109.65931857554128
H          107.74903755062452      117.46103962049433      110.60380028432751
H          106.83539456427103      115.95407949575905      110.48951664595607
N          109.28167802961094      115.25561023836161      110.88080108075737
H          108.62957690936886      115.05935677451741      108.93142979635932
H          109.55927714427989      116.54070274954971      109.26247987062514
C          109.59340992016568      113.95762031212094      110.99777685426004
H          109.11323871583370      115.80101107960222      111.72233225721163
O          109.38898599742295      120.92785685118483      104.21272549719346
C          109.85133969896664      113.52429426511824      112.42904982750154
C          108.52355074870798      113.29433655570827      113.15731679066208
H          110.43385050093458      112.60304462564440      112.41512541668442
H          110.42782541611273      114.29832184173215      112.93520445245755
C          107.72510421857258      112.15612374765925      112.52728958367202
H          108.73443702836181      113.05076578569472      114.20115935939978
H          107.93079470067440      114.20973195162874      113.12694943420694
C          106.38065774489583      111.93332932003837      113.21413323801309
H          107.54797253841586      112.38442050414992      111.47575067409825
H          108.31371145270604      111.23762514189418      112.58257256920203
C          105.33376598990282      112.96468536335298      112.82514471527159
H          105.97981585592336      110.95466469735864      112.93502718128889
H          106.50300992245977      111.94083535004988      114.29819438764699
N          104.17715966601271      112.89003932531145      113.50380675097887
C          103.84749379083155      111.94652289123961      114.55138694726439
H          103.45076587352919      113.54414035202002      113.22298807935660
O          109.67982660297207      113.19203406786376      110.04317860042055
C          102.41980318783118      112.16476279054517      115.03822378586554
H          103.95186108630676      110.92355398585227      114.16704955669091
H          104.54258540588418      112.06566299036145      115.39166114446463
C          102.26094155322468      113.48617586516825      115.78898693217428
H          101.75702069133983      112.14784303876444      114.17369366665780
H          102.14820844343475      111.33976806736175      115.69849831927556
C          100.86210280366065      113.66336726052803      116.37928590280079
H          102.99273752605167      113.52445486113319      116.59866413870330
H          102.46748953112670      114.31427464359275      115.11025591874176
C           99.79173144095397      113.75117285771366      115.29612811454895
H          100.64802723365486      112.83110015902852      117.05198994199216
H          100.84588684618839      114.57828647724030      116.97083643046960
C           98.39418202294969      114.01769211654886      115.84145270917746
H          100.05496271950119      114.54336409695030      114.59314364011783
H           99.75483397683362      112.81973100885203      114.73196143735957
N           97.46959867207536      114.03729082968889      114.72372132519391
H           98.09275074155053      113.22632850897472      116.53669750730606
H           98.34441578944487      114.96808632082804      116.37985084110200
C           96.21856300327526      114.49314469559828      114.75402829942107
H           97.87046338565604      113.78333214291148      113.82752833226429
O          105.49713668927585      113.79705420170865      111.94061806431432
C           95.50225304210606      114.36643344313991      113.41851241465714
C           95.75150343978744      115.61980311975984      112.56887837638887
H           95.87817937653737      113.48768198864573      112.89509603004400
H           94.43214185567467      114.24992394900092      113.59309027773962
C           94.87901838907830      116.78483857996667      113.03402100115316
H           96.80500784399321      115.89840364466615      112.64054514094755
H           95.54145772347472      115.40142555805154      111.52034620428776
C           95.46448286002395      118.13938177429587      112.63421422204409
H           93.87594786350991      116.69001173227694      112.61264594096023
H           94.78480808423649      116.74739007404739      114.12131243711667
C           95.48199419874979      118.31552597969225      111.12615802463972
H           94.84257780543287      118.93390162609788      113.05023945065969
H           96.47593740255864      118.23017508702188      113.02535698258131
N           96.69578983075806      118.24043486784176      110.57025079550438
O           95.69041842223831      114.97428340740242      115.75731769341309
C           96.94131094671363      118.52044665424181      109.17034644933048
H           97.50629536088179      118.03577452509693      111.14919483138310
C           98.04636124537549      117.63686370118276      108.60427667699904
H           96.00046290867881      118.37050387445879      108.63437247427485
H           97.22408129993366      119.57410396278183      109.07154040938228
C           98.42394521892226      118.01643869944149      107.17106664653043
H           98.92663349369103      117.72355356474046      109.24225227765656
H           97.72363654016603      116.59488950105325      108.63106312129905
C           98.87688880783899      119.47083678995392      107.03496817548391
H           99.23492659542430      117.35888855881099      106.85141258124159
H           97.57371896877358      117.83879845809638      106.50965970085392
C           99.62739510991202      119.73112773400908      105.73208303998679
H           98.01145785945330      120.13361728574158      107.07132761873872
H           99.53458762795719      119.73786882487043      107.86276676042048
C          100.09931729775496      121.18231308490074      105.64276382857295
H          100.50065335721578      119.07875867326311      105.67775284955965
H           98.98369422404387      119.51145310829855      104.87815739911298
N          101.02746516068480      121.47908025353888      106.72590262827518
H          100.54005793592653      121.35218140075187      104.64415566215696
H           99.23979718584162      121.85337859708869      105.74344320332870
H          101.85315510611346      120.89432857535246      106.61582855166607
H          101.33386121532762      122.44336185272262      106.65847568500328
O           94.45598834681927      118.52639369461244      110.48124082184493
C          107.88335879751358      100.55619559578290      107.86703445268557
C          107.72206942049306      100.69859835142525      109.36156975590843
C          108.35062093436872      101.82375468782038      107.14369705272499
C          107.24556994181441      102.86611472421451      106.98101550579419
H          109.20554044236464      102.24845226498542      107.66970547984707
H          108.70112354833282      101.52692550948973      106.15481483915603
C          106.93028560364515      103.63178022051700      108.26886722754845
H          107.52993873622998      103.58332899678047      106.21102943992922
H          106.33352527096906      102.36976217187227      106.64233250003993
C          108.03249648818714      104.58986551777022      108.67626827183523
H          106.02443415528946      104.22550694572561      108.12394098722409
H          106.74524663306737      102.92822311947533      109.07642363290894
N          108.95563025101626      104.09734369426216      109.50076048136867
O          106.60850910224258      100.17444813757267      109.81045089401550
O          108.55812527087595      101.21575144449406      110.08376167174272
H          106.50806735300019      100.23115161946662      110.81877272338539
H          106.94271786174542      100.19352447838968      107.45315782334720
H          108.64453436050067       99.78556511619303      107.72152370562655
C          109.95554627591201      104.91654640326402      110.15834097953471
H          108.85861064204283      103.15039567979282      109.84688154310287
C          111.22883679915601      104.13413492854313      110.46572792694828
H          110.16543417127998      105.76825474729095      109.50542819640810
H          109.51767295205238      105.28869525084261      111.09385730601531
C          112.16274413062226      103.97464075773534      109.26822600763327
H          111.75334076131820      104.65618229259985      111.26544036989665
H          110.95218136457051      103.14548261893137      110.83208124653508
C          113.41583804850188      103.16212943334689      109.60591932195074
H          111.62766730923914      103.46856424213934      108.46249822409882
H          112.46194732708341      104.96092297585523      108.90613001728681
C          114.29813697293207      103.82895106287550      110.66317964988157
H          113.11420519135480      102.17038331184021      109.94478808680000
H          113.99637329051313      103.03684877867266      108.69007726696407
C          115.62075807822607      103.09999027140906      110.88757917868554
H          114.53125102862244      104.84754755886451      110.34576176459512
H          113.77175447721385      103.87875682912475      111.61601085774531
N          115.46456901523318      101.83854821899112      111.57903899895888
H          116.10954686866756      102.92236572190424      109.92199736070626
H          116.28456917481846      103.71444166130901      111.49875736897538