3258
 energy: -3427.566489735730 gnorm: 0.000721363504 xtb: 6.6.1 (8d0f1dd)
C          102.22436503947085      128.06042249965103      115.73296967405042
C          103.59651953493982      127.50931868499977      116.09783929287360
C          104.63222979595835      128.61108373334628      116.30581273013011
C          106.00324779464285      128.04077278444458      116.66009298269533
C          107.05387523849437      129.12691224025477      116.87584260343895
C          108.41492242711506      128.54098721949501      117.24495868472080
C          109.47284631120296      129.61924209162558      117.46642965054072
C          110.81865664353899      129.03486882112929      117.89250263853555
C          111.86604512491769      130.12569926571649      118.11055702810077
C          113.18635697160360      129.60746778330355      118.68534066736616
C          113.96559236773859      128.72669366657172      117.71245421322656
C          115.32315479581644      128.29788717732291      118.26784848215304
C          116.01722898006633      127.31473451624437      117.32859005497131
C          117.30452589472500      126.72507434394072      117.90095173563330
C          117.91955296816765      125.72427258232560      116.92581187813664
C          119.15902315881692      125.01293332855404      117.46340730345283
C          119.69870432943218      124.02489382050501      116.43199195772310
C          120.93385554083795      123.25621869320179      116.89403599710235
C          121.39148987673134      122.27322024476381      115.81827072265011
C          122.62626501341356      121.47283004461528      116.22368144282702
C          123.05740103779027      120.46614391459485      115.15451180353409
C          122.10149989772196      119.28272710559681      115.03973106360382
C          122.51317363791267      118.27461911594106      113.96866457071556
C          121.48625111255818      117.14697026275987      113.87189886257592
C          121.61515782075102      116.27532494536078      112.62419367977026
C          122.91438378985022      115.47799388739820      112.55763709991513
C          122.86768653328411      114.36362289516669      111.51083434218340
C          122.70404662109082      114.87888973809061      110.08264211443596
C          122.85468517101707      113.78326389788222      109.02711937380965
C          121.68874176637667      112.79761197660631      108.99312268477877
C          121.84410491978782      111.79793195283361      107.85015459734123
C          120.77633783781012      110.70548260189631      107.82628929626067
C          119.36209905181450      111.21161222730581      107.55206275385650
C          118.39973130105977      110.05423311134186      107.29303195946707
C          116.98142533507990      110.51991259417856      106.97555271457578
C          116.02539551036439      109.34687038507212      106.76563761779798
C          114.58289594352615      109.80921151696866      106.58112725775712
C          113.61179878655902      108.65497170247231      106.34662617771548
C          112.16221506547625      109.13278584977382      106.33063405508121
C          111.17826329602653      108.03342724965745      105.93566627150805
C          109.74500371507511      108.55410225698695      105.92865703155937
C          108.70139310509771      107.52133338011592      105.50768230705712
C          107.32548079343147      108.17601817210979      105.41422436790228
C          106.16457194102554      107.22151374284252      105.14933955982310
C          104.85552566567536      108.00611543931966      105.06910479901119
C          103.61080206542950      107.13559088693134      104.92708153670750
C          102.34164841432377      107.98272446653694      104.87844372406781
C          101.06924618658545      107.14851505857717      104.75925059075016
C           99.80464106391261      108.00428623970571      104.67875689806529
C           99.41472688465679      108.62303300032517      106.01788281432157
C           98.20925841243101      109.54989471338867      105.89912210021937
C           97.83468068421304      110.16579698707734      107.24382329879936
C           96.68989713553088      111.16775447136003      107.12399614967855
C           96.31355970557959      111.82356849494610      108.45342355295848
C           97.38270251692428      112.79160844239358      108.94738389672295
C           97.03619154675678      113.44517345626232      110.28137719423957
C           98.20262253517102      114.29117963931553      110.78003937653160
C           97.95378900572103      114.94046618856723      112.13721392046970
C           99.19154591976174      115.70192154272935      112.59795954606126
C           99.02033474906573      116.40123559529161      113.94219227234889
C          100.29234651780079      117.15754222352986      114.31048666161325
C          100.19133244898501      117.91794921914774      115.62921936416113
C          101.32238595480361      118.93121769095791      115.79917988828227
C          102.70470858312169      118.29021393243579      115.87519259279568
C          103.81415355048962      119.33270360621685      115.97285485581837
C          105.18997897874240      118.68519366821789      116.09323549094782
C          106.31896798184100      119.71037441959211      116.11835051837868
C          107.68970549518664      119.04509805547799      116.18903615276730
C          108.82698869579063      120.05951531870224      116.25010219016049
C          110.19496760169918      119.38603788450263      116.19789156123616
C          111.33483507277985      120.39769706542876      116.27895448868192
C          112.70200796766011      119.78771494054121      115.96956679834008
C          112.91972247324576      119.54367298016724      114.47820831127288
C          114.30025796929668      118.96321350322805      114.18944980547846
C          114.55256076789473      118.77310285990801      112.69574268725918
C          115.87786606031740      118.06505586453439      112.42937750794158
C          116.13679922117394      117.83423383389196      110.94325570378933
C          117.38170830196684      116.98791335054239      110.67406730656394
C          117.23628176176635      115.54579862455314      111.15988136328075
C          118.31883768559238      114.62810534733205      110.59605979931533
C          118.27221801350252      113.21543821910142      111.18079001721826
C          116.98673629784072      112.46560676326395      110.83652340555670
C          117.03702596034570      111.00690677339793      111.28411160460809
C          115.77708101958665      110.21305626795497      110.93358295731527
C          114.52561267165257      110.68071291787810      111.67354631521425
C          113.29439635672362      109.85169628201618      111.31419430714543
C          112.02297253850891      110.40087070320681      111.95915742271553
C          110.79902586614502      109.55070537294976      111.62848471323909
C          109.53810818966112      109.95498260792426      112.39581116076550
C          109.07519098334946      111.39741799076744      112.18419830538481
C          108.69398215412318      111.71112290841364      110.73936239363475
C          108.31605486710647      113.17852508693503      110.55401966186456
C          108.07801967016771      113.54080063194219      109.08988783037853
C          108.05892547350254      115.05092926283217      108.86089184356472
C          107.89014684645225      115.39278561009914      107.38187757355092
C          108.25017430083464      116.83589687664123      107.03577719771742
C          107.27639618515052      117.87424971119121      107.58559591821812
C          107.68373011907241      119.28555742607620      107.16678597650578
C          106.82756444469129      120.36226502307288      107.82623933334547
C          107.18766441216059      121.78304979818657      107.39219568621037
C          108.65133123499386      122.15013227437987      107.63454025050619
C          108.88348990917625      123.65350173303317      107.50881058355446
C          110.35845032716669      124.05478100774020      107.55850524237708
C          111.11626182264338      123.73194847854791      106.27286852965130
C          112.57215351555344      124.18613591495090      106.33141164776977
C          113.30210163946964      123.92383388637391      105.01659101581726
C          114.78240983806650      124.28358424675297      105.09801178998114
C          115.53070937253823      123.99030548101263      103.79891283722655
C          117.04417062281065      123.95117392642257      103.99976080426815
C          117.78781342798513      123.76925035394392      102.67822966400072
C          119.27384996527546      123.44950324255809      102.85987934708868
C          119.53642455567417      121.97856801978722      103.18131973908821
C          121.03176552753209      121.68488803391769      103.27713109824261
C          121.36188862317697      120.20570554116144      103.48045490502324
C          121.00107658082700      119.32588534789147      102.28234791373433
C          121.75046392827156      117.99438449241661      102.30340738731545
C          121.31716520604124      117.07306474025891      101.16535775547685
C          122.20056064977322      115.83349999683081      101.04490115750211
C          121.71249347500655      114.88676645133354       99.95089345687190
C          122.62682297832040      113.67947477793125       99.78727062040784
H          120.70534249109794      114.54521037080981      100.19860067458292
H          121.65588693711663      115.42841512298114       99.00322521295719
H          123.22622383251888      116.14253548952448      100.82499953004552
H          122.21562327819554      115.30232025252546      101.99966545679797
H          120.28177182396530      116.76399663919662      101.32973527297726
H          121.34954470741852      117.62609369622493      100.22237755365971
H          122.82357885901882      118.18719508948830      102.22323217740683
H          121.57825032298481      117.49342485413662      103.25849970302477
H          119.92689814103886      119.13166905401638      102.27173502057553
H          121.25065229840494      119.85471094877656      101.35862471485834
H          122.43613492744527      120.12176118822212      103.66075996857221
H          120.84689228736998      119.83541278606418      104.37001455192696
H          121.52286173869426      122.03221095754687      102.36379283323454
H          121.44987066218066      122.25731119484746      104.10940551635962
H          119.05793883785742      121.71167970721545      104.12556731685829
H          119.09455757178631      121.36286009026438      102.39530185427382
H          119.80444376350520      123.69742358624065      101.93662480539321
H          119.68576109397038      124.07735037962443      103.65364867921595
H          117.31890548137520      122.96388664419464      102.10669801146132
H          117.68435675140135      124.68502280589068      102.09070615815787
H          117.37677765785382      124.87587992880617      104.47725262842604
H          117.28880808174407      123.12678610197672      104.67181065386153
H          115.20661126836893      123.02441041940337      103.40477581335644
H          115.27952652398669      124.74834381399758      103.05270172991135
H          114.89070216569182      125.34170034745974      105.34646457140495
H          115.23371769894075      123.70766077557494      105.90869635719618
H          113.20619697902802      122.86456892910203      104.76175866708753
H          112.83007911280376      124.49783404816382      104.21594784536315
H          112.61348888887414      125.25488028673620      106.56040643348892
H          113.08433921951702      123.65848047493527      107.13971094539835
H          111.09186418060189      122.65728259408995      106.08535021966433
H          110.62388056065356      124.22242635430855      105.43000548730650
H          110.42425099722530      125.13116917591398      107.74056055856643
H          110.84229952859528      123.55508607130086      108.40026206395770
H          108.45050456323432      124.00611293763581      106.56858377353593
H          108.35138249357776      124.15348671330837      108.32021724614125
H          108.95034686580981      121.82562687328158      108.63435561146724
H          109.27680573149237      121.62654797020070      106.91106219541207
H          106.96605783597987      121.89938309841384      106.32897254921998
H          106.55015197832455      122.48106647940416      107.94197389545813
H          105.77497989872103      120.18145011519063      107.59050185560227
H          106.93582795264399      120.28699212194664      108.91076138705787
H          108.72887530419591      119.43778855189744      107.44113728905184
H          107.60830597739174      119.37979018563308      106.08003143628848
H          106.26805268175771      117.65739578576793      107.22317457505879
H          107.25700268998033      117.81594014036530      108.67490844298820
H          109.25302271129382      117.05016465350023      107.41537032967328
H          108.28868285166163      116.93438341869016      105.94733024533187
H          108.54192420287615      114.73303116426514      106.80346580471148
H          106.85972958673550      115.19359449600307      107.07637950345408
H          107.25368170697089      115.50144104654609      109.44476492945606
H          109.00308241495789      115.47141783870481      109.21837527711781
H          108.87995682714461      113.10919476506204      108.48459695605645
H          107.13828337249933      113.10194597893283      108.74672072105881
H          107.42633999938002      113.41217846068125      111.14460827609598
H          109.13185865548277      113.79771979538948      110.93658367933615
H          109.53925951157696      111.48969128513062      110.08460497716061
H          107.86145072631999      111.07315880897353      110.43162299808159
H          108.20799169971852      111.57879894264069      112.82562633080309
H          109.86291112855785      112.08222183065378      112.50507936716275
H          108.72749423248183      109.27897220422925      112.10783620577243
H          109.72327523733432      109.80909946618114      113.46441214681886
H          110.60833336057991      109.59198013516580      110.55402917287533
H          111.02147786441122      108.50906554248982      111.87432175250264
H          112.15332312622695      110.43348963218983      113.04327532555889
H          111.86758121891658      111.42405936620435      111.61085854783100
H          113.17129654528343      109.84508674590154      110.22696052960259
H          113.44813712181551      108.81689149798612      111.63120321897517
H          114.69856448508769      110.62342072320340      112.75195368249267
H          114.32411714615583      111.72530569628586      111.42909442458036
H          115.60085616769058      110.27833030462169      109.85668592162460
H          115.95342696206664      109.16136041014680      111.17494893292739
H          117.89597145954318      110.52304412528747      110.81004751640721
H          117.19656427305819      110.97138073281647      112.36311968631624
H          116.14686984409965      112.96364026368880      111.32048475651598
H          116.82344025430274      112.50778199650698      109.75593692231067
H          119.12730683368281      112.64997547940580      110.79961143281392
H          118.37529099638779      113.27199712664122      112.26809872495753
H          118.21288248252274      114.56962976826298      109.50874786912846
H          119.29954028167923      115.06298190168985      110.80715925653381
H          117.28660777475055      115.51623787083692      112.25015263630883
H          116.25641157937551      115.17287973319056      110.85723753921602
H          117.56665891440562      116.97735351511908      109.59655402728720
H          118.24710342675058      117.45095613319270      111.15343576409114
H          115.27155983941179      117.33905652994295      110.49661751228425
H          116.24505790176674      118.80288704181194      110.44690159202129
H          116.69687213632602      118.65743922944800      112.84437534928746
H          115.86639983830534      117.10559813157384      112.94925141094640
H          113.73898678601839      118.18381223287766      112.26757635486116
H          114.54812440215416      119.74560943149103      112.19681483087514
H          115.06331213669951      119.62691215370076      114.60282971035907
H          114.39438810237633      117.99840515731336      114.69494561446213
H          112.15936935620556      118.85901503281492      114.09902424280496
H          112.80673020700158      120.48985083582222      113.94286782293139
H          113.48275038647093      120.46555089458842      116.32525223919659
H          112.80938679923887      118.84617219135956      116.51422988755691
H          111.14392221292823      121.21174944544720      115.57586455766243
H          111.34864709853261      120.83201849263152      117.28235982077211
H          110.28412390160172      118.67393003634284      117.02259707450722
H          110.27163274765971      118.82087675323376      115.26764594054470
H          108.73899935141905      120.75090714042925      115.40757093948447
H          108.74280758930765      120.65179931995849      117.16520271331369
H          107.73409656285847      118.39830910619099      117.06765975187864
H          107.82508860065839      118.41176210416495      115.30915781282849
H          106.26444946935855      120.32792553988277      115.21749452681352
H          106.18987780093097      120.37318355250370      116.97683708917423
H          105.22512643018534      118.08488436779032      117.00623082985275
H          105.34075230299960      118.00760549372124      115.24978291588930
H          103.78975156363086      119.96751078960664      115.08233622100308
H          103.63684288779706      119.97522504385985      116.83735585264094
H          102.74869301830216      117.63082996178305      116.74431241402662
H          102.87712924947321      117.68055094798298      114.98714728630007
H          101.29532690767725      119.63013316871015      114.95896039816316
H          101.14909220820192      119.50904684969744      116.70920893662351
H           99.23921999538852      118.45554398799401      115.65611840795087
H          100.19613799110211      117.21402115413092      116.46551177501442
H          101.11737244991133      116.44474058356421      114.36147136823189
H          100.51336278662694      117.87070885786919      113.51282072021826
H           98.18228851561729      117.10077514220318      113.88456276776748
H           98.78804280706574      115.66590075235933      114.71708072203050
H          100.02994809705633      115.00405861207584      112.66729401588006
H           99.44554956622639      116.44997982031668      111.84216394763124
H           97.10559821821022      115.62605149608697      112.06647857739929
H           97.70091214428922      114.17190031290076      112.87259872767193
H           99.08862893129799      113.65502210790571      110.85390120094399
H           98.41703657096100      115.07211947464545      110.04597393689147
H           96.14728496400737      114.07137225196369      110.16869274074027
H           96.80673401245653      112.67135515229469      111.01889532229742
H           98.32577453995447      112.25569738972196      109.06351448621366
H           97.53449201006745      113.57038598101163      108.19694109698627
H           95.37450428953386      112.37069384931755      108.32554355865739
H           96.14610716692810      111.04977582132865      109.20751634987955
H           96.96743136313110      111.94675549651502      106.41012759977838
H           95.81324334408842      110.65120385422014      106.72246095406280
H           97.54779285101338      109.37137533418172      107.93585370638650
H           98.71458175807432      110.66254640510026      107.65516684789873
H           98.43888182285619      110.34755801134280      105.18813191713230
H           97.35779547385174      108.99037402636289      105.50236132800721
H           99.18825717793550      107.82557740668022      106.72870409331144
H          100.25537105221558      109.19499688148888      106.41511592425277
H           99.95565310375272      108.79843820304610      103.94215980095812
H           98.97653082272711      107.38229014933430      104.32802084070600
H          101.13704614492445      106.53504087780262      103.85726724868800
H          100.98878655415156      106.46903816786441      105.61086625950949
H          102.29341067941013      108.59886383165872      105.77830358024224
H          102.39781942799230      108.65936149325137      104.02250103145218
H          103.68042271323502      106.54608375891361      104.01191598655139
H          103.55322390935032      106.44006009509874      105.76921108681208
H          104.75774965733240      108.61362139383003      105.97152859450489
H          104.90626619202089      108.69268019044911      104.21982358640487
H          106.33386324758906      106.68157495956021      104.21464064191784
H          106.10471103993332      106.48338481512017      105.95299559960907
H          107.13237615636015      108.70659944877052      106.35031340883407
H          107.34640316680455      108.92325249515437      104.61721037395283
H          108.97579600766110      107.09477771579742      104.53926749656192
H          108.67768735604380      106.70646396054080      106.23445573674876
H          109.49157967086296      108.92368491256684      106.92557380936898
H          109.68946689046433      109.40325971751577      105.24420913187294
H          111.43197313693173      107.66279244505363      104.94002185039471
H          111.26466602736149      107.19863867568402      106.63341285381964
H          111.89964810634017      109.51286541939514      107.32157208777015
H          112.06897072741209      109.96625846948719      105.62961687190958
H          113.84515839671450      108.17530052570592      105.39279523755218
H          113.73857982834603      107.90649110223451      107.13117647877819
H          114.27131556420785      110.36092571607720      107.47210070636639
H          114.52773594964536      110.49856468490152      105.73438209890746
H          116.34072158679338      108.77193601801795      105.89203402160838
H          116.07977244780530      108.68157150301107      107.62979718306903
H          116.61472796225728      111.14001464308163      107.79739906272496
H          116.99530476075995      111.14544303496670      106.07839556819177
H          118.77418009814367      109.45380834913213      106.45927451455950
H          118.37317535505818      109.40867754727140      108.17443252918807
H          119.00332736684103      111.79466514302791      108.40151743791563
H          119.38053348195459      111.86695746425603      106.68000348263786
H          121.04391289851921      109.99448438396384      107.04055072182283
H          120.79113366461056      110.16546542676292      108.77692619882163
H          121.82870150190077      112.33421379050914      106.89805207243174
H          122.82338791355579      111.31735890570734      107.93565438126186
H          121.63620222565463      112.25395687548030      109.93838030553633
H          120.75920468255001      113.35530585732816      108.86916014587538
H          122.93445911515147      114.25482722777436      108.04359306926648
H          123.78606880074958      113.23655880166726      109.20080312066465
H          121.72564444014183      115.34646702204039      109.96568466352733
H          123.45985128254878      115.64636712299813      109.89895393009353
H          123.79658264888153      113.78885898825568      111.56918891672241
H          122.04496881120063      113.68844766815769      111.75362038380463
H          123.74812220211277      116.14892844632853      112.33898086989043
H          123.09825868292977      115.02755323290808      113.53674745311304
H          120.77672931733883      115.57256879882061      112.61324638853560
H          121.53251290185602      116.90903087207457      111.73957469484476
H          121.55726376646778      116.51950013850815      114.76396631072757
H          120.48836145231054      117.59612615514095      113.86517320738437
H          122.58667039535086      118.78439893097537      113.00551431083306
H          123.49850617650108      117.86713499450478      114.20416610278671
H          122.04406260477231      118.77735084739496      116.00680180199211
H          121.10336856294644      119.65220359387136      114.79767150027880
H          123.12036305876089      120.97500166391319      114.18904072481583
H          124.05562951214506      120.09530284213794      115.39717287144867
H          123.44930212271439      122.16672815589500      116.41552011693639
H          122.42428969932485      120.94136071573487      117.15653088742921
H          120.56782281550477      121.59200863669771      115.60055675536491
H          121.61401467615291      122.82633843344961      114.90154301692633
H          121.74098446313032      123.95766298767887      117.12106024178617
H          120.70388627662720      122.70997673934635      117.81243098509094
H          118.91155397346718      123.30770039591063      116.18715965711803
H          119.94593249209879      124.57270231583317      115.51860626131693
H          119.92960830496742      125.74776408220353      117.70948880110893
H          118.90329860139140      124.47965361110568      118.38221513457454
H          117.16757348634191      124.96997242444733      116.68107955577973
H          118.18000482351653      126.24441166888161      116.00029795647069
H          118.01811789625172      127.52581337163549      118.10923837051796
H          117.08257289867223      126.22380507152683      118.84602432275148
H          115.32724754392613      126.49464712383769      117.11244958226428
H          116.23740470704278      127.81373892736789      116.38176101142128
H          115.95546748208027      129.17670269983404      118.41549624166188
H          115.18184341572349      127.82826683195421      119.24412620979881
H          113.38055601327856      127.83213165818478      117.49056612404181
H          114.11440139288891      129.26552140039570      116.77391733327775
H          113.80797027507886      130.46425310449294      118.95904676155554
H          112.98463889655879      129.04331460480878      119.59955210125766
H          112.06089686704053      130.63226415624888      117.16204853691481
H          111.45606839268828      130.86827675039081      118.80082030111711
H          110.68859780487374      128.47067213248471      118.81969168153880
H          111.16269191793343      128.34132154905450      117.12364398652872
H          109.60491523318430      130.19046210437017      116.54421530495434
H          109.12267042086633      130.31405452870683      118.23477965069836
H          108.31157162147107      127.94938154283078      118.15858467653554
H          108.74444645063120      127.87063136283432      116.44799723015275
H          107.15059827890833      129.72329751204217      115.96492872531729
H          106.72168517349452      129.79877178299631      117.67204000965550
H          105.91449925250164      127.44494965515382      117.57245767281110
H          106.33267891723020      127.37390307299727      115.86053827296531
H          104.71139518060411      129.21042838931669      115.39475045391150
H          104.29783296057710      129.27723060473559      117.10603387944194
H          103.51261545142933      126.92214952850307      117.01558633269745
H          103.93879152021195      126.83870191075408      115.30794475179498
H          101.84357887953763      128.70110468549686      116.52629430557600
H          102.27660296375718      128.64909430351742      114.81885454545845
H          101.51715751234171      127.24837285520503      115.57728455946575
H          122.24969411279261      113.01216250693716       99.01517917196774
H          123.63169316140097      113.99234699095547       99.50933621433543
H          122.68852061976769      113.12125890052228      100.71919319073832
C           99.26036287283972      104.32734302721602       99.07956469982491
C           99.01724331724193      105.56766102339019       99.93014044934282
C           97.56617963217546      105.66184845097635      100.39383213318597
C           97.31289710282013      106.89365823970934      101.25953866117179
C           95.91635794347124      106.88409211329596      101.87658157942253
C           95.66424068753845      108.11148174651990      102.74815126701694
C           94.32637994017128      108.04029926762855      103.48065621386067
C           94.10172327174423      109.25978510219969      104.37023115522550
C           92.78671366058616      109.19469376493811      105.14309242008056
C           92.60021198425831      110.41656814621273      106.03987598977126
C           91.27041150614437      110.39472023990997      106.79032414634041
C           91.02586342285993      111.66360139005745      107.61036658122323
C           91.94491074481309      111.77653301589997      108.82398511122344
C           91.72349248616028      113.06768467356727      109.60864907550737
C           92.69668512695414      113.18930500296175      110.77925526557989
C           92.54747922157344      114.50693259282005      111.53582990450302
C           93.56704407156180      114.63199057734998      112.66599384781935
C           93.45859692786722      115.96478962707116      113.40285801891447
C           94.52325681587499      116.11196542404755      114.48777416860189
C           94.45905955513653      117.47287936793229      115.17712829291698
C           95.56651443213985      117.65331863306153      116.21309140308124