3258
 energy: -3427.565156306046 gnorm: 0.000978741539 xtb: 6.6.1 (8d0f1dd)
C          102.22463850634733      128.06009056529416      115.73298323609247
C          103.59682231505346      127.50888678475805      116.09790655363130
C          104.63216222609458      128.61130349818052      116.30559206342190
C          106.00327750755211      128.04096979028287      116.66017401966894
C          107.05382550110232      129.12746481882644      116.87570784086456
C          108.41478893399125      128.54114455077098      117.24516063149291
C          109.47283787952958      129.61954768870660      117.46636253395552
C          110.81846932267659      129.03451057368608      117.89249445492267
C          111.86613117757966      130.12529011344498      118.11030256386759
C          113.18602671262204      129.60676489618533      118.68546411347344
C          113.96528437114007      128.72593969151751      117.71250138840831
C          115.32277277616311      128.29714222588217      118.26836019561158
C          116.01675360988246      127.31410448888136      117.32868737646756
C          117.30403432828531      126.72432385615555      117.90131629009016
C          117.91896914353009      125.72362006744093      116.92574040681104
C          119.15858724004487      125.01243004198410      117.46376269850744
C          119.69839660361072      124.02452152955267      116.43197413654262
C          120.93372466786289      123.25592852315913      116.89459504921879
C          121.39144220238595      122.27296021337860      115.81847996259354
C          122.62645210684974      121.47245095755474      116.22418638650171
C          123.05794388888431      120.46643644520732      115.15440401097428
C          122.10176554640920      119.28281548578799      115.03986516190288
C          122.51383777011111      118.27480258825001      113.96838854396537
C          121.48658990935655      117.14702921739833      113.87208118935740
C          121.61520426605371      116.27528122675842      112.62390651891053
C          122.91484522883827      115.47808644008522      112.55759906133900
C          122.86762305449993      114.36336659177761      111.51085134980883
C          122.70389361592926      114.87920693305043      110.08254012783328
C          122.85497510786792      113.78308861199913      109.02724776781180
C          121.68834273995175      112.79770778991070      108.99342913881659
C          121.84438430313506      111.79837443728805      107.84980394280799
C          120.77668358782395      110.70551960796473      107.82572430065835
C          119.36220786714573      111.21203093119682      107.55128327725058
C          118.40021225630322      110.05380734939190      107.29218369150180
C          116.98173340451307      110.52049100577975      106.97508411596976
C          116.02565784564804      109.34688762379399      106.76547045499932
C          114.58295631185915      109.81009806334608      106.58091538192993
C          113.61173463477783      108.65531302158956      106.34679750406740
C          112.16197988264805      109.13392154390405      106.33053790149330
C          111.17829967784741      108.03380398921149      105.93551016803575
C          109.74492645297349      108.55533999300289      105.92883033814205
C          108.70156046889240      107.52180260564651      105.50792355829253
C          107.32543074933069      108.17696628879844      105.41464666426029
C          106.16480125621442      107.22151841584954      105.14954789298321
C          104.85560053919886      108.00664531358453      105.06927293109163
C          103.61087686713161      107.13547776391231      104.92719722995740
C          102.34178064307945      107.98335935367139      104.87859751966711
C          101.06939118584773      107.14848296132688      104.75964273335138
C           99.80483611138744      108.00459195767797      104.67869375874007
C           99.41514451783787      108.62338149757532      106.01819785086116
C           98.20939817120350      109.55026463713624      105.89865928741537
C           97.83501973460609      110.16600127064406      107.24380713478423
C           96.69024151515100      111.16837993127469      107.12350382795418
C           96.31385280493207      111.82370879462955      108.45330166422946
C           97.38353415058613      112.79164292321241      108.94727507298968
C           97.03618201314458      113.44532070093469      110.28134890187816
C           98.20323020970787      114.29108011159646      110.77995165677721
C           97.95364369536283      114.94056153956438      112.13725989517324
C           99.19206759839696      115.70177670655463      112.59775871095687
C           99.02029979044913      116.40131723213523      113.94219846311476
C          100.29306328723513      117.15727575453710      114.31018885069011
C          100.19150210381801      117.91755306726196      115.62937518410541
C          101.32236201300188      118.93130707221357      115.79925085923409
C          102.70476823880053      118.28969565708438      115.87548288770816
C          103.81413787258380      119.33273593781921      115.97319643792368
C          105.18999478640536      118.68447102207666      116.09357265786846
C          106.31896056025126      119.71021324014075      116.11879839806504
C          107.68979826618001      119.04422769273226      116.18923533407798
C          108.82685992745830      120.05945359229580      116.25050697832086
C          110.19483692118729      119.38527422796535      116.19788060428270
C          111.33439017479309      120.39776154698450      116.27900348267535
C          112.70158364172775      119.78694775857680      115.96991189418688
C          112.91910983515494      119.54344868358059      114.47803431614815
C          114.30025945825059      118.96304168189660      114.18989975488701
C          114.55212154334627      118.77282039375551      112.69574753230158
C          115.87774562024576      118.06432192963722      112.42991287624190
C          116.13614979380927      117.83378938098836      110.94328468996785
C          117.38153515011152      116.98768911098900      110.67430592826065
C          117.23546446540541      115.54539917236131      111.16038988769520
C          118.31826404286841      114.62808178804279      110.59554279773111
C          118.27209949317788      113.21552042276508      111.18115644544578
C          116.98587703487041      112.46619790093106      110.83698266472906
C          117.03701015569942      111.00721945081403      111.28483236479464
C          115.77692124244311      110.21321975770017      110.93362718083151
C          114.52549936567554      110.68138060646497      111.67424977078826
C          113.29418179050991      109.85197529087812      111.31437654363245
C          112.02252471350319      110.40185460972945      111.95936690410603
C          110.79863833007212      109.55116304346659      111.62747427846007
C          109.53736773977197      109.95527130730791      112.39502923400765
C          109.07521571087612      111.39815711353477      112.18298736438854
C          108.69402407265524      111.71073269837525      110.73748718841195
C          108.31589115117301      113.17856497503546      110.55310326169774
C          108.07739334077064      113.54049798540355      109.08864590741361
C          108.05860833017979      115.05116583026789      108.86056230486676
C          107.88982819437904      115.39281116284501      107.38112925138520
C          108.25009374691076      116.83623707821322      107.03534813790121
C          107.27588902603512      117.87435307012861      107.58581500708368
C          107.68350721508692      119.28575804178379      107.16620082141071
C          106.82726376336815      120.36239144293521      107.82643322775918
C          107.18742225971157      121.78316742665800      107.39142744218458
C          108.65149680829245      122.15002380721882      107.63399545496472
C          108.88334348253967      123.65381496815395      107.50809386753582
C          110.35869446274302      124.05473960351632      107.55792543030059
C          111.11607381092443      123.73195913442312      106.27165509858207
C          112.57219146908763      124.18635412146278      106.33085410649748
C          113.30184006364034      123.92440698341497      105.01550040387883
C          114.78233556040618      124.28422869997277      105.09751596530268
C          115.53053126745179      123.99078099288111      103.79818183694049
C          117.04401796116127      123.95155325232595      103.99981504105624
C          117.78751858669078      123.76945585391277      102.67811702286251
C          119.27338578137844      123.44987520184728      102.86018889457314
C          119.53583706498858      121.97884806805891      103.18177118726473
C          121.03142604205601      121.68569493301884      103.27668646100183
C          121.36113145464711      120.20638916204355      103.48048556522512
C          120.99955202198690      119.32636364178130      102.28251378239892
C          121.74981669096555      117.99515334811238      102.30368675656774
C          121.31632729128134      117.07376023053618      101.16555392547876
C          122.20003769536595      115.83413858919364      101.04539191475969
C          121.71154068445631      114.88740035328193       99.95129218811768
C          122.62599377375304      113.67992313309672       99.78820361604657
H          120.70403164433061      114.54643251531964      100.19850769558369
H          121.65622483668876      115.42885961753771       99.00398904332143
H          123.22490560927739      116.14330767823468      100.82460083322530
H          122.21577983194496      115.30304038735977      102.00028598397513
H          120.28078714499053      116.76521986367123      101.32984529358716
H          121.34978315566255      117.62668334453211      100.22323182017539
H          122.82230798847498      118.18861601548217      102.22269665397729
H          121.57833760650055      117.49420398156091      103.25906013441140
H          119.92531366004617      119.13186481183170      102.27260694355169
H          121.24938451215664      119.85495796802390      101.35940445851334
H          122.43522732693832      120.12202103542317      103.66017437840569
H          120.84614824468419      119.83653744048769      104.37053205855163
H          121.52128199717031      122.03191725781137      102.36296385926013
H          121.44999624334564      122.25798831018783      104.10857332958309
H          119.05810460851332      121.71144598374005      104.12648116324642
H          119.09401973528531      121.36295714804753      102.39611916392074
H          119.80349923870556      123.69653587583983      101.93696758997706
H          119.68516451091143      124.07761837217799      103.65380215303421
H          117.31853728597169      122.96430311885028      102.10680378627457
H          117.68423905041600      124.68539042596115      102.09187114406350
H          117.37575362298816      124.87649222193767      104.47681896113021
H          117.28873031324721      123.12768325388207      104.67272677634335
H          115.20577328066452      123.02541485617787      103.40377305092601
H          115.28014094712987      124.74977452288557      103.05370746347850
H          114.89005760986251      125.34209705431915      105.34560251082476
H          115.23316337192360      123.70865037160736      105.90889880062022
H          113.20547088372498      122.86538965086265      104.76068224433791
H          112.83004802871851      124.49937024579535      104.21627303523563
H          112.61271135435369      125.25454255439946      106.56029074175495
H          113.08383072592110      123.65825226805109      107.13926042053346
H          111.09138468589349      122.65742079161740      106.08423615713723
H          110.62372776635665      124.22314948382964      105.42988692717255
H          110.42422017829620      125.13065156295116      107.73990693333521
H          110.84233375168139      123.55476234573530      108.39962139632793
H          108.45120723146087      124.00495283479907      106.56765028427655
H          108.35123856844336      124.15338026598161      108.31939627493176
H          108.95031842366153      121.82521940163396      108.63368752106126
H          109.27676470440255      121.62674646667534      106.91050420055124
H          106.96647556366925      121.89824372796151      106.32852131149517
H          106.55038015679312      122.48068173373429      107.94149255443500
H          105.77513395607697      120.18102405995381      107.59116003530734
H          106.93649189143490      120.28706329433902      108.91070789665253
H          108.72858332205544      119.43770700372511      107.44017314495635
H          107.60654981924534      119.37948390386572      106.08013844297967
H          106.26810059557283      117.65721328618903      107.22341895397805
H          107.25710686680651      117.81584095851842      108.67493590443841
H          109.25281613252187      117.04979896853618      107.41477642826442
H          108.28769018563057      116.93442300218148      105.94733758654945
H          108.54199613638511      114.73345114447461      106.80318972932569
H          106.85946907730624      115.19398865113465      107.07668126601125
H          107.25303912178705      115.50089707142610      109.44377472758447
H          109.00262028122746      115.47109032911430      109.21818160657899
H          108.87919638715138      113.10893630113360      108.48377669584326
H          107.13754489496240      113.10188976073164      108.74658528399404
H          107.42638344585384      113.41100742532370      111.14350998693092
H          109.13165378995154      113.79745791080333      110.93530443460614
H          109.53905971150911      111.48921085319634      110.08285903177686
H          107.86133046633472      111.07315902790928      110.43074236904165
H          108.20800325855588      111.57939384893822      112.82367559862543
H          109.86319820455918      112.08226570760530      112.50367120718654
H          108.72674569555808      109.28009874680495      112.10648576242107
H          109.72286978327308      109.81010010926417      113.46329047882993
H          110.60827793393018      109.59361531753251      110.55344373869158
H          111.02108420775188      108.50991586036076      111.87340375989355
H          112.15206344578326      110.43424245959856      113.04327248147302
H          111.86729256192088      111.42437173339117      111.61043408643857
H          113.17094815798225      109.84606569981877      110.22768916126354
H          113.44761379832886      108.81761366745300      111.63168007661037
H          114.69849764219006      110.62355982824218      112.75216912969194
H          114.32401706978870      111.72547658275911      111.42959179393843
H          115.60049308383597      110.27930005427329      109.85725693679370
H          115.95320954852592      109.16198107015727      111.17535608573901
H          117.89526122553832      110.52348585410613      110.81058120005947
H          117.19567556647755      110.97191434371467      112.36360909788849
H          116.14673071301148      112.96383474954327      111.32205119404213
H          116.82249571949161      112.50822822867211      109.75688647520188
H          119.12635253903962      112.65009834659742      110.79942944497519
H          118.37475544798869      113.27266528725640      112.26800362199862
H          118.21080573025270      114.56944561288509      109.50885567850493
H          119.29841998662890      115.06306350582544      110.80672875499006
H          117.28625917149019      115.51573140804210      112.25031411543092
H          116.25584005643397      115.17288309040129      110.85741781262315
H          117.56585192147901      116.97668754222187      109.59709452734249
H          118.24621771614855      117.45050689778863      111.15429321292424
H          115.27128380882725      117.33840718878015      110.49682058130399
H          116.24459391256060      118.80226370810725      110.44778354357712
H          116.69646147651605      118.65693056986305      112.84408345972712
H          115.86596973757254      117.10505971310667      112.94961434678190
H          113.73880246312018      118.18346157651152      112.26793203923472
H          114.54845290872197      119.74491638215191      112.19713346317617
H          115.06273693867855      119.62724421411812      114.60237600126962
H          114.39437525185025      117.99847006642437      114.69507992977913
H          112.15937420860372      118.85864450216977      114.09876961674905
H          112.80680573976709      120.48949730823884      113.94323871237017
H          113.48221783385711      120.46434152127071      116.32507333793549
H          112.80785211808858      118.84494336542178      116.51334551308420
H          111.14349725348598      121.21085536056009      115.57533357832507
H          111.34799575799208      120.83136054676237      117.28215198763026
H          110.28412597974122      118.67341676481362      117.02226647020612
H          110.27132747750638      118.82070951886338      115.26753668937270
H          108.73877369001373      120.75004080378319      115.40789358214379
H          108.74299852679917      120.65087703956856      117.16553691869045
H          107.73422160335100      118.39712573460177      117.06726846563096
H          107.82513446922393      118.41180104915128      115.30904056132484
H          106.26462105230452      120.32712343085767      115.21806341381685
H          106.19004772911360      120.37206770503083      116.97744064921766
H          105.22513299998630      118.08446132625221      117.00634189645830
H          105.34071492453643      118.00737854939207      115.25000389294615
H          103.79007907612608      119.96700910971401      115.08285411868283
H          103.63703312015235      119.97430087757975      116.83791454646894
H          102.74890011064340      117.63103383165236      116.74478865516339
H          102.87744383690199      117.68007747712124      114.98763297520169
H          101.29602658298606      119.62975379274121      114.95908175947868
H          101.14963214961105      119.50827018802782      116.70944845521709
H           99.24016449078620      118.45520888417296      115.65509605320257
H          100.19718761816885      117.21383392823202      116.46520532667918
H          101.11804122263260      116.44448614460046      114.36087989399844
H          100.51394721770338      117.87063868584687      113.51288386135657
H           98.18362625306425      117.10138570787450      113.88347204338372
H           98.78855708709393      115.66629166704615      114.71679294495604
H          100.03038955376860      115.00393590529653      112.66721890567634
H           99.44609153969141      116.44968245488113      111.84215001680238
H           97.10684234701594      115.62668573272261      112.06533284605072
H           97.70115755509839      114.17231390983640      112.87237937096975
H           99.08913156338677      113.65482813654823      110.85399384423400
H           98.41777060538686      115.07179729250061      110.04611549049184
H           96.14869757886034      114.07212800961483      110.16747776124119
H           96.80688470162785      112.67174747715642      111.01854270159409
H           98.32672732049643      112.25586833448588      109.06363400793695
H           97.53545263892644      113.57026124873927      108.19708055749282
H           95.37613877548715      112.37166632599688      108.32503758265820
H           96.14690228463103      111.04996432947351      109.20702524917762
H           96.96862287465693      111.94716964083086      106.41015152675271
H           95.81438191402862      110.65142365580019      106.72243188443574
H           97.54778155977314      109.37151942964121      107.93523647497425
H           98.71516962978522      110.66212984886864      107.65544965044857
H           98.43952894617513      110.34774249402842      105.18817371524591
H           97.35865006478504      108.99027409084182      105.50289317467832
H           99.18845052408977      107.82610382449649      106.72875552760601
H          100.25571394405458      109.19527880320348      106.41561126053547
H           99.95642819147922      108.79855674405532      103.94270560478431
H           98.97724505556334      107.38231034595181      104.32921173034453
H          101.13785989034044      106.53562623026930      103.85785319898528
H          100.98934467536104      106.46971672536534      105.61152990749629
H          102.29393183674745      108.59940364205210      105.77833016976416
H          102.39806423418520      108.65913060581778      104.02252885802520
H          103.68050243422300      106.54674434177154      104.01200546526101
H          103.55345303429559      106.44042953026221      105.76929495438532
H          104.75789360785828      108.61370774007422      105.97175752033294
H          104.90650896994644      108.69245497390180      104.22007069457835
H          106.33450523531465      106.68270146376489      104.21489727532355
H          106.10510215748137      106.48375584722737      105.95309682509252
H          107.13264152349230      108.70716808124477      106.35067534509921
H          107.34649669814134      108.92326550266392      104.61747672270599
H          108.97605394794050      107.09639678040669      104.53966515970231
H          108.67806461483234      106.70729481355515      106.23468866919664
H          109.49201697117179      108.92530093511866      106.92548084309449
H          109.68978146434668      109.40328142005127      105.24358585009747
H          111.43156022860364      107.66367880801360      104.93999569732325
H          111.26470046499543      107.19932727110093      106.63335774114371
H          111.89888576903300      109.51389497190303      107.32097920577340
H          112.06912895505630      109.96620197680903      105.62889186535232
H          113.84463355294200      108.17601579449330      105.39321137202337
H          113.73817656840025      107.90718531103647      107.13143392509222
H          114.27137700797580      110.36161572652161      107.47150727701039
H          114.52804993048844      110.49787092690661      105.73367435431805
H          116.34037545087644      108.77229754024033      105.89200127316190
H          116.07972736670813      108.68188934257088      107.62963423907756
H          116.61527017930756      111.14013459097369      107.79695271759302
H          116.99567570954872      111.14504358805682      106.07803682293128
H          118.77414505779824      109.45411270759202      106.45812461586750
H          118.37359518030055      109.40865638996755      108.17355240035607
H          119.00302005421918      111.79472009890576      108.40051758921531
H          119.38058694991182      111.86660046828692      106.67910200185932
H          121.04373248695937      109.99552775396236      107.03939055948560
H          120.79092666292902      110.16582480672334      108.77612491836196
H          121.82845679300910      112.33476025968716      106.89826715122791
H          122.82297618346159      111.31786028967147      107.93628278388161
H          121.63602771066088      112.25362141536333      109.93813144372213
H          120.75888678784280      113.35535585679710      108.86950551365886
H          122.93436036473187      114.25433574069723      108.04402382595634
H          123.78505095537966      113.23590058681143      109.20216533629380
H          121.72553700523345      115.34676035710410      109.96546122440670
H          123.45988357795102      115.64596975117601      109.89932000127190
H          123.79642164818368      113.78955736151974      111.56846551918339
H          122.04478025916040      113.68848803048208      111.75354768902773
H          123.74744160847227      116.14912995092433      112.33822736419619
H          123.09772242895131      115.02775192598584      113.53646791292886
H          120.77674914124081      115.57263876452660      112.61320509424147
H          121.53261300791442      116.90911752240184      111.73958456442892
H          121.55773809409322      116.51917743324233      114.76353646565391
H          120.48850672920274      117.59568739605245      113.86515515805344
H          122.58621978557794      118.78404848765310      113.00523782552663
H          123.49827363270647      117.86682106365924      114.20400122134367
H          122.04434197939077      118.77686772879723      116.00642834726305
H          121.10332705526763      119.65148486713950      114.79771856475455
H          123.11973919522950      120.97471432109030      114.18895316001378
H          124.05533146991566      120.09474105233612      115.39692325845940
H          123.44892020166822      122.16618824567117      116.41511633518674
H          122.42468556737265      120.94025277067011      117.15639930762499
H          120.56769323101275      121.59183086962774      115.59975809808168
H          121.61452143779546      122.82617194414250      114.90228589298964
H          121.74031823622815      123.95727273573861      117.12012462049366
H          120.70376198233164      122.70964582471319      117.81261770296003
H          118.91133571640711      123.30726626569630      116.18604148747880
H          119.94615303321183      124.57257612297008      115.51918387408575
H          119.92867395320144      125.74726432751075      117.70812897484399
H          118.90315590129558      124.47922784423476      118.38237203819889
H          117.16695387745084      124.96932360032542      116.68014076575562
H          118.17980486949082      126.24396649262768      116.00071258644074
H          118.01734800838192      127.52477807217586      118.10817461762467
H          117.08217460814780      126.22306103797226      118.84611597934125
H          115.32660192150047      126.49408687644768      117.11171766021278
H          116.23723117775234      127.81333117403109      116.38227543231775
H          115.95476648966198      129.17563720771849      118.41477431381468
H          115.18155286521292      127.82754726729755      119.24441155260232
H          113.38023214189965      127.83136162271617      117.48974900170636
H          114.11456802258346      129.26488368775844      116.77432668442687
H          113.80795377097317      130.46306130552338      118.95812196087957
H          112.98415367029293      129.04265551867019      119.59945704862513
H          112.06091842941173      130.63141651156963      117.16182014421635
H          111.45583027866489      130.86686844094552      118.80067071351266
H          110.68814811804114      128.47069637342085      118.81973357187859
H          111.16209920244474      128.34012666752363      117.12388954755563
H          109.60490554905884      130.19020902712336      116.54418811035134
H          109.12280402806790      130.31310524518312      118.23501276644657
H          108.31125200351457      127.94997030714710      118.15898022111570
H          108.74432893203402      127.86982441386360      116.44866018640118
H          107.15076085780343      129.72313443390573      115.96483331976904
H          106.72181427823739      129.79802380222029      117.67214647912768
H          105.91454204854074      127.44554256201529      117.57275843087234
H          106.33296075925443      127.37315365631969      115.86119746809634
H          104.71133835754426      129.20990330642246      115.39457130075618
H          104.29791061423205      129.27612853661563      117.10606312108816
H          103.51323999427072      126.92208353290074      117.01590571684463
H          103.93945627367204      126.83759642743281      115.30853627263599
H          101.84484846472186      128.70029874748016      116.52674272453505
H          102.27732671852687      128.64872548747627      114.81915152675984
H          101.51722012976710      127.24812953312170      115.57728309504223
H          122.24890361703484      113.01261604450671       99.01610187343924
H          123.63035171246236      113.99350363812235       99.51042037953709
H          122.68799768763270      113.12160556777282      100.72014325793779
C           99.25979875955103      104.32707289212094       99.08052712766637
C           99.01675655036078      105.56768203179442       99.93073465105068
C           97.56545332609306      105.66143127093761      100.39416975927600
C           97.31239903097041      106.89341419390388      101.25993265312728
C           95.91577647004027      106.88362942741506      101.87707618909307
C           95.66403191436332      108.11134598574597      102.74856611678658
C           94.32610158918533      108.03994326988078      103.48119800777462
C           94.10184458985294      109.25967780189535      104.37076616475119
C           92.78670164957039      109.19460429590228      105.14362666550652
C           92.60079322067477      110.41680857624557      106.04024972322425
C           91.27095506785291      110.39511482074245      106.79080550229845
C           91.02664329563051      111.66426913951048      107.61025604851238
C           91.94556589080017      111.77708910718924      108.82408605743593
C           91.72387027299847      113.06852373235337      109.60841003669498
C           92.69712713562127      113.18993329484341      110.77915896347129
C           92.54788355569914      114.50786593136314      111.53547873223626
C           93.56763708522945      114.63257150111549      112.66573367778383
C           93.45906240049617      115.96567964193949      113.40236233818742
C           94.52385932428624      116.11247274688198      114.48744286025131
C           94.45942381198994      117.47371567713239      115.17650864622603
C           95.56693338716384      117.65376198481444      116.21273318316544