3536
 energy: -3716.245170935351 gnorm: 0.000987963312 xtb: 6.6.1 (8d0f1dd)
C           72.27366779601415       60.08644302210636       55.72858927002363
C           72.57092714435497       58.61292207487299       55.45422532504704
C           73.21661245149529       57.97631279036771       56.68272530818341
C           73.47227484887931       58.48894382602224       54.21975294710913
C           73.53551263219575       57.08812807460600       53.59213347182790
C           74.77948304586651       56.98772368567837       52.70991500138443
C           72.26429971693051       56.81472454454629       52.77934978429990
C           72.05118391166390       55.35875162243714       52.33229521885971
C           71.02754982983315       55.34854338331656       51.19963815028321
C           71.60518767376099       54.50518440416271       53.52712915871327
C           71.67186259458498       52.96935261001403       53.40306390752286
C           73.00427316080707       52.50047478924323       52.82111881813530
C           70.48879972212835       52.35771306081073       52.63862145949619
C           70.19069513259875       50.89664798834880       53.01722345414759
C           69.33129589065057       50.24910981739163       51.93336360450405
C           69.49712285179100       50.82020652725626       54.38140285054670
C           69.24527826157369       49.41134952391425       54.94298192182182
C           68.55793173766440       49.55845607315678       56.29987485662972
C           70.55906836105456       48.62548784925236       55.04066809806561
C           70.51370794988719       47.26362768180340       55.75076141335697
C           71.92353724206112       46.67035076660184       55.72992499682901
C           69.50435122467645       46.31901419263277       55.08725499276686
C           69.32907511910865       44.95025754336998       55.76136204153688
C           68.51553266711559       44.04003902135485       54.84012141433998
C           68.63697501049791       45.06758284222137       57.12651998064184
C           68.95693715027433       43.91937125433978       58.09836092443287
C           67.87643456861223       43.84720434279325       59.17326852436553
C           70.34398733347994       44.13030383814981       58.71787782814072
C           70.85974185921397       43.06058372829721       59.69367939521890
C           72.22126024784534       43.52351879359635       60.21604114767297
C           70.96822007515051       41.68450840566641       59.02516111231406
C           71.38114931139921       40.53656269517921       59.96858183654155
C           72.57187536707201       39.77377168417218       59.38608884123801
C           70.23388078916827       39.55111814688996       60.23007560231522
C           69.04886366617542       40.11596950405153       61.02235373406590
C           69.46863644072248       40.53066195113673       62.43144832596234
C           67.92503539740572       39.07047120120545       61.10086697284530
C           66.52586714105497       39.66934260297415       61.32043805926433
C           65.60121396891647       38.61949159694479       61.93342702393086
C           65.97539757144307       40.18518698935027       59.98577931060191
C           64.60804690790130       40.88492899469779       60.01880604222145
C           64.26176275683045       41.31113586611862       58.59154264721435
C           64.62057811250739       42.07495005148398       60.98761209575126
C           63.40453295797865       43.01188775009444       60.93558599995083
C           63.64028211425848       44.17351062769231       61.90051142417015
C           62.10449283567446       42.27430525747768       61.27040308159824
C           60.80894905649047       43.05409333785933       60.99573746342823
C           59.64995696418262       42.31876799572468       61.66741185858965
C           60.55331334666754       43.19612518441116       59.48929961366387
C           59.48735285910521       44.23450139914743       59.10186944025995
C           58.98523477240892       43.93823925506607       57.68909874321715
C           60.05801512413093       45.65483790747736       59.18280403901055
C           59.04203291191980       46.79819032158248       59.03845882582104
C           59.80845714923251       48.11666926487935       58.90919321040129
C           58.06952320659362       46.88181274389509       60.22894875570863
C           56.68784639033758       46.24612209994385       60.01888698638405
C           55.85087790772868       47.07004509544068       59.04203457692918
C           55.93142704566677       46.15146104144814       61.35383869219883
C           56.44038853307255       45.06838461927073       62.31157421808777
C           56.00248718815111       43.68374205140555       61.83102683402839
C           55.91665677927966       45.26337440342282       63.74219954062887
C           56.22958181869819       46.59792749760172       64.43158213178023
C           57.70516909907533       46.97742987835120       64.30591082848098
C           55.86434259878036       46.53206823032635       65.92316007595034
C           54.42017066598133       46.14421003885348       66.25556759250031
C           53.42001950735858       47.08608624908720       65.58510589730865
C           54.17987474317094       46.18231333784856       67.77146883929872
C           55.05668174280012       45.27211320307239       68.64202717225135
C           55.05773739919534       43.83404905326937       68.12501310749906
C           54.54302361834571       45.26968708158978       70.09063243459858
C           54.59473069971621       46.62102679629585       70.81601785436811
C           56.02523084252165       46.95810280748100       71.22967542700620
C           53.65390386608822       46.60501784106446       72.02858980454106
C           53.28169439356166       47.98923947599931       72.57898920640575
C           52.37437319003864       47.81286722498849       73.79664479250911
C           52.59134653574512       48.85648563276295       71.50985276595281
C           53.50185208810493       49.93992619199024       70.90933629396115
C           53.52954740822295       51.15353963486917       71.83612653273137
C           53.04029714194120       50.32253954514995       69.49680431147270
C           54.06347482113156       51.13289306906334       68.68720425170757
C           53.36942465210841       51.78560589026620       67.49307031417251
C           55.22454496708601       50.25145016864507       68.20899883085924
C           56.48260539851108       51.04538679639694       67.83741630871226
C           57.44834230216053       50.15069418511339       67.06383972873923
C           57.16438811264077       51.64632065697988       69.08213171062684
C           57.34557749935381       53.16557048911338       69.00050434911441
C           58.33708463594092       53.53776523014871       67.90045416029530
C           57.82460464113958       53.75750222708913       70.33246151855113
C           56.76799751282778       53.75336179904867       71.43533247575660
C           57.23580865146468       54.52566068760475       72.66288931131820
H           71.75399890465835       60.53775352605216       54.88602180163768
H           71.65211077189858       60.19548239047786       56.61463362596031
H           73.19941319276651       60.63399956664256       55.89381812740449
H           56.47412452577326       54.50873391817105       73.43933072848380
H           58.14637726207826       54.08717048493005       73.06568991127735
H           57.44109626269962       55.56301139568963       72.40593320216152
H           58.70763987806950       53.21096652825658       70.67177761840439
H           58.12985653515301       54.79275699191987       70.15745005537394
H           56.57279699887422       51.40833013404973       69.96608376542551
H           58.14428047372639       51.18556012647759       69.22323547584209
H           56.18222675434834       51.86071352725670       67.17269186033204
H           57.71396185304394       49.27643283592928       67.65561866759421
H           56.99467047490334       49.81685035639381       66.13237604373246
H           58.36020011219050       50.69225260384491       66.82412148907096
H           55.49340941844098       49.52729287322906       68.98048567929050
H           54.88977578612351       49.68691194534159       67.33459175168096
H           52.80825676917922       49.41365900273012       68.93421676660449
H           52.11441058213752       50.89754461290475       69.57891991318554
H           56.37356310833636       53.61082222731175       68.75488798008519
H           58.41721217938156       54.61848403452166       67.81292408163284
H           59.31995140471202       53.13543916892814       68.13488811398638
H           58.02174021183893       53.14621566584720       66.93745768900496
H           54.46168587959292       51.92860093543157       69.32207632288136
H           52.59861378456669       52.47205004338841       67.83118212285090
H           54.07870614240144       52.34372878544846       66.88657740309719
H           52.90336891114635       51.02996691583910       66.86351296423958
H           54.51818117790447       49.54225406467698       70.84311143314797
H           54.21967161500506       51.91172663852788       71.47481001853090
H           52.53870648550783       51.59780974489347       71.91028898694293
H           53.84575407364736       50.86069022981459       72.83485257415077
H           52.22008029451478       48.20500333643520       70.71715936598423
H           51.71912973044550       49.34791980331136       71.94459236054762
H           54.19328434825538       48.49302268139906       72.91438138912504
H           52.13139598092310       48.77735145618378       74.23729442422741
H           51.44681380850511       47.32157575744734       73.50924411283019
H           52.86176342523012       47.20432999460580       74.55552140969226
H           52.72369549092386       46.10328486299422       71.74803902460803
H           54.11248579335901       46.01496959814456       72.82585321932160
H           54.24168840333784       47.39084135225866       70.12957572642372
H           56.06635215038790       47.91142941499878       71.75109710877226
H           56.41999470088181       46.19194053680263       71.89429161301965
H           56.67246171560696       47.02421718535538       70.35829961918961
H           53.50785031645835       44.91804565579228       70.07228503038245
H           55.11805418058417       44.54194955943655       70.66887786282751
H           56.08451569749062       45.64492590177566       68.63313525174715
H           55.60372306972542       43.18619125491178       68.80806435332828
H           54.03963286796318       43.46010300125680       68.03967259315743
H           55.52995448683993       43.76791695359152       67.14979976203487
H           54.31005420803258       47.21562872582730       68.09800745573826
H           53.13678810276872       45.90850465269464       67.95184025334962
H           54.22519127019397       45.13133725462081       65.89906931338869
H           53.63767247599548       48.12136581083055       65.84011080352906
H           53.44979643219297       46.98641360663878       64.50373829657657
H           52.40719086920634       46.86075126348388       65.91282403655578
H           56.53289604939965       45.81179708366032       66.39814239021629
H           56.06430974761063       47.50979281288193       66.36899550951451
H           55.63680317599632       47.39147223130173       63.96700226519705
H           57.92426965529010       47.84629295804356       64.92372876825169
H           58.34155427208765       46.16051943459983       64.63817946959334
H           57.96256656591608       47.22059447971107       63.27929623957462
H           54.83376805147709       45.12785741486477       63.72175201848621
H           56.33445289162429       44.46087598355268       64.35639128845304
H           57.53327283118364       45.09027084363434       62.33583258657715
H           56.38756225682206       42.90945653557228       62.49152421680436
H           54.91615850232015       43.61597950893608       61.82098009832100
H           56.36259207294591       43.48161283054075       60.82535449455065
H           55.99217969347920       47.12857872017519       61.83516008134392
H           54.87562486124222       45.95632336349603       61.14904274289322
H           56.80940922904512       45.24498239495669       59.59877229017692
H           56.36153634617776       47.19488642304842       58.09124062897028
H           54.89780207177343       46.58175504897533       58.85138908451729
H           55.65157882201120       48.05612564312996       59.45626132223065
H           58.55199979165849       46.42141532028529       61.09200409703884
H           57.90780006674060       47.93383657865169       60.47822216572398
H           58.47449122033534       46.65042593685489       58.11619149177721
H           59.12351135302475       48.94686222461493       58.74925821513629
H           60.37536384632258       48.31486506967805       59.81574691647195
H           60.50482325137741       48.08265342692918       58.07401584902686
H           60.57443342761561       45.78080585415180       60.13699826145392
H           60.80847153880611       45.75972472187036       58.39332227243086
H           58.65011427724851       44.14950360711656       59.79732054464669
H           58.61924902196372       42.91665373195979       57.61830237183463
H           58.17342471778230       44.60431887635838       57.40881574219390
H           59.79312777241822       44.05963744204480       56.97056327836103
H           61.48116121111071       43.46298996475490       58.98045245360338
H           60.24689358508483       42.21837982340929       59.10816995783212
H           60.88738815107156       44.04806459482293       61.44415057115018
H           58.70582022222090       42.82373998470769       61.48826425674434
H           59.57527804364718       41.30356666247306       61.28104406126921
H           59.80633929855851       42.26392311765536       62.74194093655625
H           62.05731307587281       41.34637850864098       60.69832256465604
H           62.13051861338711       42.00162749736765       62.32889828235628
H           63.33497448697795       43.42461866510797       59.92869284808429
H           63.71536818475870       43.81174329720663       62.92392703396534
H           64.56479698226453       44.69039646380583       61.65015108763833
H           62.83009333707584       44.89520796578434       61.85306587490312
H           64.71093462423687       41.69510935813499       62.00766987717028
H           65.51135031709403       42.67252849433756       60.77819096674918
H           63.85742940795635       40.16032295353239       60.34708706108373
H           64.92807773003297       42.10508095905966       58.26164495476775
H           64.37326751067448       40.46880841001742       57.91159503489136
H           63.23728158287573       41.66427775040554       58.52006040989829
H           66.69774417569613       40.88214157248807       59.55548249984668
H           65.90067536984336       39.33392711989569       59.30312648833815
H           66.61129911319409       40.50539804396834       62.02028071142730
H           66.01495967018441       38.24781807656956       62.86870445708539
H           64.61996330548848       39.03721630973963       62.14268701912775
H           65.48033683040302       37.77803625278679       61.25421151234670
H           67.90600847968727       38.48214861685916       60.18051372114848
H           68.15601646728481       38.38181733977122       61.91655212530031
H           68.67045932519734       40.99659589824819       60.49606268550871
H           68.59811138757445       40.80043519545263       63.02516558172825
H           69.97779608653398       39.70881225961897       62.93142881149917
H           70.13929359737926       41.38603731011579       62.40914135285202
H           69.87088185867600       39.18270698924138       59.26660480459472
H           70.63059577997905       38.69184407770425       60.77746172516077
H           71.69589291369451       40.94956925648187       60.92918392054606
H           72.89019841252004       38.98159041124590       60.06084710947137
H           72.30499369754030       39.32214721524842       58.43249015811109
H           73.41409839109718       40.44364633935734       59.22727877240960
H           70.01011315402361       41.43331878825416       58.56940680664567
H           71.69606973123557       41.76443969583394       58.21433998793069
H           70.17487982245521       42.99124687325898       60.54367619898184
H           72.92676180237589       43.62708689756860       59.39339195032239
H           72.13206764828695       44.48675869142107       60.71350313196920
H           72.63772960974991       42.81918602114862       60.93050231148514
H           71.07435004700488       44.22201522496101       57.91076702835002
H           70.32843164748384       45.08609724218085       59.24999249180213
H           68.95040165512577       42.98123821662205       57.53567605739659
H           67.85733290223551       44.76665374947336       59.75459291079053
H           66.89889790868374       43.70651820265608       58.71833821840359
H           68.05397252153213       43.01997334100231       59.85398015494618
H           68.91513697191898       46.00659839428759       57.60768002413319
H           67.55757482849373       45.10124873123335       56.95912170476593
H           70.31260129241522       44.49421744617639       55.89401507709864
H           67.55451935336896       44.49727593166008       54.60985310424063
H           69.04509029546448       43.86617809804827       53.90597353973192
H           68.33204742524308       43.07689973642018       55.31076633918784
H           68.52610842557240       46.80175832627965       55.05352386421595
H           69.82320397092909       46.15437473893078       54.05465028948946
H           70.23274235046776       47.42556298053057       56.79375752141475
H           72.19742273168031       46.37295833292257       54.71945960903863
H           72.64904054717671       47.40261579259768       56.07734545194192
H           71.99571243721510       45.80088231372351       56.37691621054760
H           70.93600931985455       48.45386183978934       54.03042473975988
H           71.28907046731563       49.25169213847195       55.56203325098095
H           68.56099458451285       48.88522979602764       54.27173026969755
H           68.27483605646370       48.59345507598967       56.71016212229785
H           69.21688094589994       50.05351074477566       57.00971309927845
H           67.65688959052198       50.15935650046928       56.19713521514951
H           70.09343929032966       51.36879205835671       55.11409613982889
H           68.53374896927217       51.33115318235435       54.30013566530185
H           71.14210515075013       50.36176554618500       53.06703101748545
H           68.37690251159331       50.76402758721818       51.84675333183365
H           69.83654597375248       50.29563698523764       50.97128676145358
H           69.13973938658852       49.20354178680223       52.15936830387225
H           69.59097648603345       52.95358914895737       52.81797031567358
H           70.69892225875435       52.39161427646186       51.56841029097442
H           71.62031334251392       52.59561028357631       54.43246344689750
H           73.07366295126910       52.73631987549751       51.76188296595338
H           73.83434732135062       52.97566177427358       53.33967977871492
H           73.11015726897561       51.42385332422532       52.93189296188014
H           72.24120379028821       54.77546960038578       54.37329242959117
H           70.58360760561612       54.78780701607388       53.79354205651403
H           72.99584106726154       54.97099698190527       51.94692921756421
H           70.87634912323880       54.34689017344446       50.81153369384986
H           70.07322021450929       55.73327379937310       51.55164796752211
H           71.36537818283500       55.97740614009233       50.37815890773512
H           71.39068190317992       57.11907989515785       53.35824481578516
H           72.29818100561808       57.44991774349651       51.89083047267360
H           73.62658095118594       56.34683638816543       54.39102943712304
H           74.85529462156703       56.00761411859177       52.24640370202547
H           74.74577893510696       57.73777400627451       51.92209254692089
H           75.67935641721319       57.15049798316595       53.29940867718943
H           73.12442060159253       59.18787761962636       53.45498445961321
H           74.48068931786202       58.79705319560927       54.50612966649469
H           71.62214858339225       58.10136722513305       55.25938482914782
H           72.56496773466158       58.07388681116559       57.54846486214853
H           73.41136042596786       56.91864962331020       56.52199056214904
H           74.16035415166050       58.46702070222145       56.91196532047142
H           55.84937112653800       54.20849102792065       71.05691383681055
H           56.53851319833877       52.72791598921610       71.73071041222431
C           68.51266543372046       67.11763867312187       54.02369472520577
C           69.23937690297699       67.66356278919847       52.79664778880981
C           70.23741469743993       68.73719410024592       53.22619359523991
C           68.24745337267112       68.23972876492722       51.77748032877634
C           67.51773646187121       67.17816852428076       50.93892519180341
C           68.40848519924313       66.70027005840791       49.79471230918690
C           66.19952845757189       67.76335833584473       50.41663388386857
C           65.29483455635777       66.82032001208955       49.60654659553921
C           63.99162019622787       67.55577648848121       49.29691268444405
C           65.04504090329391       65.51449256352636       50.37174270364112
C           63.93686800046089       64.58336847095516       49.85216586214941
C           63.90699896403893       63.36594735856050       50.77986810331534
C           64.14566533566547       64.16142093626219       48.38665161021395
C           62.86249568280370       64.10468794104790       47.54040169889064
C           61.94643212291395       62.97428591442306       47.99572840130917
C           63.25645222134750       63.96786627633627       46.06061684996914
C           62.12745440622637       63.65671818058227       45.06560802122183
C           62.72871336552490       63.55020023155971       43.66406403187730
C           61.02119477731667       64.71759920289242       45.11247030377211
C           59.74943068619194       64.39116138777226       44.31212582174304
C           58.87879621471323       65.64532312737651       44.23056440446470
C           58.98297854853296       63.22992158046242       44.95876908103830
C           57.76592484131357       62.69910836262726       44.18459851592052
C           57.01736512419900       61.70615044535980       45.07358757903653
C           58.19803345756232       62.04430938292280       42.86707058195665
C           57.07401054929122       61.50196068251956       41.96923146515910
C           57.70854139416691       60.78979285653864       40.77409354922139
C           56.14485729599645       62.63656274862088       41.51944307216345
C           55.03109787717017       62.25903283055703       40.53056936023354
C           54.26773050263005       63.52605967593278       40.14287178498474
C           54.09888466181462       61.20705087002840       41.14241225158429
C           52.85870370541890       60.83434904884659       40.31652344551782
C           52.04921472643180       59.79301838958624       41.08870838935532
C           53.25556286257461       60.31052295660422       38.93169684410456
C           52.10118388159675       59.83811775764095       38.03560026252914
C           52.68978801002240       59.17717855580215       36.78898610221510
C           51.17730761020640       61.00155917529056       37.66092961975722
C           49.86904867481693       60.60367823299988       36.96417588065056
C           49.14746288732550       61.87103935980804       36.50265598570643
C           48.94762876830009       59.77290500677930       37.87776896303440
C           48.89257916394580       58.27659602508368       37.54634298399319
C           48.16499069244563       58.04972905745336       36.22019597527276
C           48.15705437529230       57.48802431190206       38.63953807957606
C           48.85142759058364       57.36064698213715       40.00391502737349
C           50.16105567970838       56.58696723249412       39.89490342358998
C           47.88053357617166       56.64769971217957       40.95493156423728
C           48.27745757462601       56.53735906261038       42.43722187689782
C           47.19997118141696       55.68923372354758       43.11649180178755
C           48.41446316953024       57.93951376807502       43.05392030839982
C           48.46226370754471       58.05066786408552       44.59152541122207
C           47.55612461702805       59.20328813596726       45.03590980418958
C           49.86866548772464       58.30133188182717       45.15680024327231
C           50.91922768790868       57.20479962922003       44.93946422349030
C           50.40175566999397       55.82934464676893       45.36133821363665
C           52.18521094708988       57.49116179779198       45.76492568038343
C           52.98056674756860       58.75934152996539       45.42969273237279
C           53.76398547155394       58.57140221732155       44.13253018746939
C           53.96105367499143       59.08593365944427       46.56802602757244
C           53.30106959888201       59.67454951712545       47.82335782071090
C           53.12725658612233       61.18431792175153       47.68469128073353
C           54.11054817338277       59.34082124608804       49.08368431214973
C           53.27828267218758       59.40279644990034       50.37061509509902
C           54.19726818634766       59.31461022067995       51.58726007742929
C           52.22984110027179       58.27484305126406       50.38553168109999
C           50.77730745903430       58.75756441313774       50.50285898907749
C           50.48977717237533       59.15694669853916       51.94548728524659
C           49.84260707687567       57.64594303930227       50.01232053795955
C           48.34133013104656       57.95388025006257       50.04178167239904
C           47.57521573370696       56.69432858155105       49.63410994270019
C           47.95090587150211       59.13008224670334       49.12492404925285
C           47.39786764162333       60.35832285259752       49.85630732264737
C           46.10744485382109       60.01681534836867       50.60435270059831
C           47.08410185871123       61.50486108766300       48.88389174286665
C           48.23990188640752       62.09177996837486       48.05789642721321
C           49.34300403061091       62.65457196119684       48.94915707204935
C           47.63514377588053       63.17818422506175       47.15503436593071
C           48.57452893153410       63.89081531808080       46.17218693712588
C           47.86097711026193       65.13533019715690       45.64295174315919
C           48.97909126479065       62.95471450827167       45.02783753003540
C           50.11218121340672       63.46976986509802       44.12742799236052
C           50.12794047270999       62.67424897401705       42.82289612148902
C           51.46164229943410       63.35231007162521       44.84559700533685
C           52.60584071876772       64.21758552387220       44.29640484611625
C           53.88720080361355       63.83731000172995       45.03785822073012
C           52.27717012527921       65.70914137428295       44.45403539614396
C           53.42963177751804       66.69730141482931       44.22600529352800
C           52.91176375601925       68.11615409100774       44.46321636674693
C           54.03935768318855       66.55833654152866       42.82790731077773
C           55.28633645775162       67.41731330388846       42.61996922626975
C           56.00292870863056       67.05645714726478       41.32411960491586
H           69.22195824350936       66.68103209752992       54.72352745119440
H           67.97854742482659       67.91722155882978       54.53265309278386
H           67.79335936266544       66.35160076149863       53.74497744375365
H           56.87954412613201       67.68458228622339       41.18226308348950
H           56.32543501304086       66.01729722880408       41.34295239420732
H           55.34068202694755       67.19269581269043       40.47169165313205
H           54.32162978923952       65.51747872382273       42.66453341301487
H           53.28937223485526       66.81711132308364       42.07658307188166
H           51.47336907253891       65.96900756327776       43.76194716912829
H           51.89990922843661       65.86584418178656       45.46859423282459
H           52.73776389573008       63.99053647076644       43.23386517966255
H           54.75764881771831       64.32709563278428       44.61138949885845
H           53.81274434767266       64.11908889274824       46.08554578370262
H           54.04747268354275       62.76280136189549       44.98424379562218
H           51.33393568507481       63.60871339405111       45.89926667705701
H           51.77119809056114       62.30402457358438       44.80200204846950
H           49.28980885564661       61.99481894386373       45.44532676512137
H           48.09307655950064       62.77421700916341       44.41354230615333
H           54.21170954509417       66.49827987338696       44.96372189975678
H           52.42489616291351       68.18506022253344       45.43342028548734
H           53.72506379393554       68.83638961682918       44.44100832743156