3536
 energy: -3716.251647308242 gnorm: 0.000670256196 xtb: 6.6.1 (8d0f1dd)
C           61.30766850256916       52.43159769332038       77.51883688138312
C           60.06178650708889       52.10598951025503       76.69803664566297
C           60.40204538527723       51.04865486989193       75.64823085662323
C           59.49551599808457       53.34419754169011       75.99248817518816
C           59.00848476117179       54.47913473941531       76.90111635330133
C           57.78232460967087       54.05118437102846       77.70727596619429
C           58.66173638747512       55.72303361761004       76.06685937571284
C           59.87024676989388       56.48817172600645       75.51413596780435
C           60.59415704541602       57.24546210922582       76.62808547564339
C           59.46241806187297       57.49207848738356       74.42580684920223
C           58.79119666741711       56.91242432643687       73.17438030034020
C           59.57713235296298       55.73926186722937       72.59034475121045
C           58.64272174016676       57.98734403618005       72.08825319238323
C           57.75786690706126       59.18869454855992       72.43453614431290
C           56.33542591857097       58.74615012959357       72.78066965188734
C           57.68932282537204       60.16884085891780       71.25410883673813
C           59.01210799027806       60.79967604103521       70.79691822329868
C           59.69559340357977       61.54968093852135       71.93610668969872
C           58.71730900881711       61.74709262909374       69.62585406644858
C           59.91781586846781       62.16618148661347       68.76151456088120
C           59.47211117943215       63.32553505078631       67.87007671470901
C           60.40256576969180       60.97240939701287       67.92953839078979
C           61.62549015714950       61.19523375987242       67.02332136797666
C           61.43231032729124       60.41410308227913       65.72091423053948
C           62.94613511471694       60.73578947767686       67.65375559889958
C           63.50963009328172       61.55445434424466       68.82261531562942
C           63.74596297471103       63.00655596117360       68.41307645406755
C           64.82845592792781       60.89343508588032       69.25681003571493
C           65.46276713503202       61.41747211783391       70.55813362263682
C           66.96206738180368       61.64705437331565       70.35420896460874
C           65.25973411257930       60.45221233944363       71.73440012382022
C           63.81373367662061       60.32993259039426       72.22317454375805
C           63.36060414061797       61.62893555275087       72.89161381165114
C           63.64555696273547       59.18441520809940       73.23074863980636
C           63.98150693403956       57.76607954050513       72.74668238856479
C           63.29667282953496       57.44401768339358       71.42074007153484
C           63.53328604267758       56.76771223175491       73.82504464014897
C           64.24773044191446       55.40793253742739       73.78812363240372
C           63.33543762742429       54.34264486536171       74.39414196614433
C           65.57280594281092       55.50085027890952       74.55458355906082
C           66.53438752496071       54.31768119811143       74.36890394314003
C           67.53326706500634       54.29890442832174       75.52604041736483
C           67.25678642202115       54.41043022198118       73.02081080673102
C           68.01729714975097       53.14289354170978       72.60976012890846
C           68.87199675893363       53.44273698070512       71.37849051900700
C           67.06898040370982       51.96010763725092       72.33354570786474
C           67.17000757242172       50.81875985232404       73.35305958540766
C           68.48750962821424       50.06438596789123       73.16914144523318
C           66.00996234009445       49.82408222039395       73.19884125143490
C           64.63453588653535       50.31780377428709       73.65976917178284
C           64.58558833619487       50.45922097452002       75.18205323217320
C           63.51824351669337       49.35528883855102       73.22475416096918
C           63.30307533986863       49.16973935302173       71.71447828958757
C           62.98963828746329       50.49479775066970       71.02881754587581
C           62.16278576903606       48.15989011303171       71.51736940538478
C           61.83658299627727       47.74308904543572       70.07375059551477
C           60.59041259490814       46.85729739417828       70.10088378762885
C           63.02513385270417       47.01823855633685       69.42909296887201
C           62.79515090859906       46.44689462270230       68.02131218059048
C           63.93692259487862       45.48846889628094       67.68251236174507
C           62.69142501309088       47.55267432910523       66.96453887780686
C           62.10360152472661       47.08259612117406       65.62527336335395
C           62.48370024636323       48.05979755324136       64.51484217034255
C           60.57849192232750       46.94822869190261       65.71308786015902
C           59.93797522011381       46.14812540397233       64.56652402176681
C           58.65735280262450       46.84036746009509       64.10256911920710
C           59.59745000646035       44.70487764113676       64.96034888470328
C           60.76650676385583       43.82665979423798       65.41954082330805
C           61.74203958933990       43.56636679618471       64.27393911592725
C           60.24669187037731       42.47911247264310       65.93842207276377
C           59.55967298417374       42.53208467897755       67.31073053566949
C           60.58439860882291       42.35064361347425       68.42911062717441
C           58.46124692044381       41.46329392322077       67.39631176604263
C           57.20242346185832       41.85585452418107       66.60521042495101
C           56.20912399903240       42.56648604874391       67.52353352813549
C           56.52204381332763       40.65298294017601       65.93812018179888
C           57.29770630244197       40.04706698835294       64.75901413340671
C           57.22217714954309       40.96903965016750       63.53990293153839
C           56.74778620070352       38.66202923025271       64.37269923960180
C           57.39190761357607       37.42695572460954       65.02506977821255
C           57.10893809384000       37.33736495985452       66.52545692766897
C           58.90725262497066       37.31106018359718       64.80640923327786
C           59.40464713092302       37.38298968102838       63.35861372516245
C           58.70433185476056       36.35417733595121       62.46961708008589
C           60.91879430714149       37.12613037979512       63.28592564982389
C           61.81722774788925       38.11269740149533       64.04112348832713
C           61.72051427970231       39.51992265702635       63.45865683119375
C           63.27224879516609       37.61555813786581       64.07420775112145
C           63.97088711892504       37.53116639650789       62.71871935159820
C           65.40700992732204       37.04180027584054       62.86643636521065
H           61.72923058408160       51.52130712411051       77.94077597194729
H           62.06250649372303       52.89830730529211       76.88962820083363
H           61.07630741517395       53.10418563663541       78.34068842122764
H           65.89660179304389       36.99413943224027       61.89614632563949
H           65.97747450721620       37.71095664187159       63.50805074500774
H           65.43060172702286       36.04826827885572       63.30986523424567
H           63.84848416855046       38.28574754504312       64.71747139910738
H           63.29116093406905       36.62573833983207       64.53949209909615
H           61.11134537760947       36.11871469079809       63.66633305122303
H           61.20655432301293       37.13744000772808       62.23207209785315
H           59.19912695862965       38.37982249854856       62.95963647646076
H           58.83285487284699       35.35248836385237       62.87533607235896
H           57.64009398299183       36.55641593351320       62.38692095116508
H           59.12686336944653       36.37076966203769       61.46657326410617
H           59.39666451206289       38.09672653796824       65.38377108717667
H           59.22929143494630       36.35545393194889       65.23073476864376
H           55.67611120553389       38.63692210497965       64.58948444316803
H           56.84949754874546       38.54502605573445       63.29204021839502
H           61.49126254345927       38.15064629350138       65.08668496166173
H           62.47282105236987       40.16805949177364       63.90167963918047
H           61.87165106993606       39.49949324708738       62.38319305903425
H           60.74391277749302       39.95266753745588       63.65865009079873
H           56.91443887688892       36.55627351031324       64.55942343000766
H           57.44068096472762       36.37529707276856       66.91221151049498
H           57.63740470399885       38.11611227417665       67.06955729710367
H           56.04324888799373       37.43128892736559       66.72342526181355
H           58.34882566548580       39.94417827715729       65.03833001644161
H           56.19369219343330       41.05519518802047       63.19411125169987
H           57.58850843206250       41.96605554946324       63.77045546748194
H           57.82304598382373       40.57551487617985       62.72215359120410
H           56.35174606972777       39.89152954210723       66.69883845942051
H           55.54053549401100       40.96776434253008       65.57177659945208
H           57.49020611278121       42.56538503444593       65.82562454245236
H           56.68301312477735       43.40696592468232       68.02621758280931
H           55.36455643735564       42.94317626361832       66.95171256634737
H           55.83107652566417       41.88342014005524       68.28278967948243
H           58.86974755392450       40.52059437398118       67.02720695181854
H           58.18787074587777       41.30307514146107       68.44224425899385
H           59.08881109633625       43.51109031662367       67.44775381944677
H           60.11981727645487       42.48176155198638       69.40475330615051
H           61.01877306211360       41.35301816933200       68.39034362845705
H           61.38811739927776       43.07747436090192       68.33408186331368
H           59.55480546079842       42.08033992295545       65.19534740301108
H           61.08169869635632       41.77698409689138       66.00321427344042
H           61.29988973995217       44.32974680624096       66.23086011252626
H           62.58780657150884       42.97627443728349       64.62374173580682
H           61.24767008262612       43.01423081695046       63.47653234431309
H           62.12428201307544       44.49698008969307       63.86329822704257
H           58.84934946568440       44.74497663297105       65.75655645502438
H           59.12549689294001       44.21977103484073       64.10023072757149
H           60.62604185217779       46.12457571236738       63.71677677159480
H           57.94278296650032       46.91166742689503       64.92055977513792
H           58.87380499325484       47.84422027110369       63.74557798182247
H           58.19136400748214       46.28565528375302       63.29340183188624
H           60.30151803422847       46.48653380761244       66.66292887012349
H           60.16012142935202       47.95813247594293       65.71745886330352
H           62.53176117882586       46.10828923533976       65.37953016957526
H           63.56223320216173       48.08695570497422       64.37604198049614
H           62.02916483608704       47.77480262618293       63.56938340385746
H           62.14598377772238       49.06222825071105       64.76339140722655
H           62.07385099948139       48.36842055034712       67.34636514355670
H           63.69432136074487       47.95502437744290       66.79544126700686
H           61.86860552732559       45.86695360687247       68.02650802567327
H           63.84228211522916       45.09586593373425       66.67330413524074
H           64.89736174214282       45.99315184826784       67.75947190455653
H           63.93404853241698       44.64458749186103       68.36933025327824
H           63.87252466864179       47.70526261499327       69.37841043460520
H           63.30828357430502       46.19352981504769       70.08940289738648
H           61.59745888350843       48.63994528355748       69.49579831617966
H           60.18681070155973       46.71515307012407       69.10262935343356
H           60.82036488207023       45.88239442273103       70.52683218748898
H           59.81291632780860       47.31557505471646       70.70830733176568
H           62.39903615333409       47.25444756950029       72.08474210223402
H           61.25912178363495       48.58876680354048       71.95999520995422
H           64.21443334651413       48.75413889895737       71.27796716134129
H           63.80742208786164       51.19855664304945       71.15186409829298
H           62.84253764429204       50.35017557481715       69.96303668300492
H           62.08754081181416       50.93428031522197       71.44896093580172
H           63.72410052561077       48.37737930889440       73.66951227085289
H           62.57877497143700       49.71238843734780       73.65590705698438
H           64.43544718726704       51.30035020455008       73.22375238655185
H           64.77269185500931       49.49840716644002       75.65835458395291
H           65.33118206835601       51.16536027736633       75.53967065309268
H           63.60760453786738       50.81193204899957       75.50259867014779
H           65.95830832783896       49.54495317539215       72.14659618523737
H           66.24805677609953       48.92026823466376       73.76513092287415
H           67.15630748433399       51.23982828529827       74.36310954734364
H           69.34040919224316       50.73631742468390       73.22974249978417
H           68.60489937529933       49.30071152940283       73.93592204151136
H           68.50601262580992       49.57734068786898       72.19563051548762
H           66.04318379224628       52.32882983864420       72.30448482712394
H           67.28814586973444       51.54422337107068       71.34871451902357
H           68.69849825624414       52.87334172011412       73.42210523049270
H           69.57973387491673       54.24462293361291       71.58321072734819
H           69.43489335912189       52.56090051278424       71.08043313101432
H           68.24130769485002       53.74929979108879       70.54600832338551
H           66.53089306836596       54.64124274535489       72.23776138696869
H           67.96093975248129       55.24611867162607       73.06571498612163
H           65.96250905634830       53.38707565150467       74.39940502284286
H           68.10967434985085       55.22223943262059       75.54561214542304
H           67.01306433331141       54.20102133941311       76.47707698028137
H           68.22665323990168       53.46619813300629       75.43754587515276
H           66.09402125231658       56.41486472804117       74.25838921170644
H           65.33462553123958       55.59547055503206       75.61757128246093
H           64.45107295341387       55.13669262335814       72.74742037997858
H           63.04796637411973       54.63069757840935       75.40403117630848
H           62.43364875524195       54.23134682557356       73.79506913800853
H           63.82864187862306       53.37557722529424       74.44217612057562
H           63.69175719655073       57.20533660136371       74.81396093883500
H           62.45884663194809       56.61318017411248       73.71286391608427
H           65.06525581116072       57.67858220413017       72.61621760654108
H           62.24156305469543       57.70521238954311       71.46994862973189
H           63.74731141711390       57.99297108629865       70.59833138535554
H           63.37533532796086       56.38165773131981       71.19943840503554
H           64.25990865045580       59.40287896295647       74.10924586914169
H           62.60127456083783       59.18516282117257       73.55868369481053
H           63.16153421854331       60.13646131599280       71.36843573743404
H           64.04085366886392       61.89825079564974       73.69792893965415
H           63.33297639194507       62.45103555458040       72.18112171847922
H           62.36477165195501       61.51639990086771       73.31328291604552
H           65.62773383670236       59.47031772838476       71.43287693488277
H           65.87735216148089       60.78519415520475       72.57377655662711
H           65.01550122128302       62.38031181872851       70.81839046813515
H           67.42073767996504       62.03662699663997       71.26114122376391
H           67.45753593663181       60.71316182340887       70.09627530998735
H           67.13587297703096       62.36273893979744       69.55310579689016
H           64.66025586980892       59.81855697422468       69.35660127702683
H           65.54120582227097       61.02668702710846       68.43863310823055
H           62.80404073190471       61.53247101431331       69.65834965638859
H           62.80504143833297       63.52069390864160       68.23533408698654
H           64.27757144646471       63.55150160744558       69.18982121646160
H           64.34065905309097       63.05022278753489       67.50222219780176
H           62.82416500261314       59.69966750592436       67.98274004852497
H           63.70495214092964       60.73428001560102       66.86696605392575
H           61.71144472787260       62.25265495785477       66.76458047244000
H           60.51973515444639       60.72238002225167       65.21785229669332
H           62.26810766624782       60.58034315872732       65.04380636708017
H           61.36594053687267       59.34854797564513       65.93110122305214
H           60.62613702945216       60.14524819872908       68.60301866712504
H           59.56328926801474       60.65845586696479       67.30457027391094
H           60.72764920830878       62.51901836446618       69.40695584039381
H           59.10044397180295       64.15124472598063       68.47424994148271
H           60.28834622120545       63.70493099051152       67.26134423724803
H           58.67270683018705       63.00170617426564       67.20632204954111
H           57.98683317188000       61.27320849259144       68.96564612498027
H           58.24641383890920       62.64603609006784       70.03353345425198
H           59.68037536863454       60.00726118437577       70.45107141141446
H           60.56829981210161       62.08550034066788       71.57203816488973
H           59.01303534960769       62.27195850306152       72.38095201797590
H           60.02314521056579       60.86316955638025       72.71277336938232
H           57.24778958423184       59.64156349243683       70.40446583672907
H           57.00568399024308       60.97962646919375       71.52252411025518
H           58.17240757921321       59.71230304775157       73.30037369081866
H           55.69153007646300       59.61188999351255       72.92469979053155
H           55.92212204428862       58.14239925949974       71.97484693380508
H           56.31554900728946       58.16053981218802       73.69612004225951
H           59.64233630893592       58.34777740522981       71.83729470731804
H           58.22786420831602       57.51448448089985       71.19428232101927
H           57.79374671008627       56.55226861323614       73.43957797555350
H           59.57007777476189       54.88426342541160       73.26063464015081
H           59.12962857903116       55.42894109216460       71.64888622017152
H           60.60955727153758       56.02322339611785       72.39860198521195
H           58.78889599640481       58.22452301041155       74.87720204638241
H           60.36364606956123       58.02794937142527       74.11259900600679
H           60.57994321352567       55.77854838276428       75.08388913699672
H           59.92938179321234       57.97211355369691       77.09213862726089
H           60.94887249074769       56.56701812905501       77.39970076399361
H           61.45481636428061       57.77749797345877       76.22791986534999
H           58.02298664879729       55.40341762130403       75.24207270251402
H           58.07559782622980       56.41056570970391       76.68252728229135
H           59.80306811355589       54.74071752180533       77.60441676154699
H           56.96762417569450       53.77025344869092       77.04236090561710
H           58.01004519972344       53.20279269724548       78.34748758391731
H           57.43941239780892       54.86635464500711       78.34137657337749
H           60.27754804979279       53.72776758329138       75.33488336927012
H           58.65999384116711       53.02875432867266       75.36071457488408
H           59.30177850771024       51.68887130023528       77.36721948632930
H           61.14679493576748       51.43429940348287       74.95459210388695
H           60.79948837773281       50.15122737364954       76.11785812200048
H           59.51748100725552       50.77278095292427       75.07923516446088
H           63.43277487559326       36.84396094515422       62.06451420537763
H           63.97583106117483       38.51353987440243       62.24510093427402
C           42.93864504499032       64.53100309749968       57.76395167303998
C           43.44620754426752       63.85473314469291       56.49227032818722
C           42.28313561669027       63.17569752849339       55.76889920257701
C           44.53098504201656       62.81303530169787       56.78913607274114
C           45.79697764303295       63.33037483762012       57.48164497545071
C           46.49338557150826       64.40584512356602       56.64872041000887
C           46.78494063213564       62.18036251459522       57.73059834227862
C           46.33407459666523       61.09862162250946       58.71714981598194
C           46.10857264035802       61.69796668585847       60.10509977775443
C           47.38344645683918       59.98036390227420       58.82354724234743
C           47.59344193658446       59.11340330914567       57.57659900884485
C           46.33447785019742       58.32001909582397       57.22707038074830
C           48.75518654421983       58.12827528899518       57.78462075575978
C           50.13662171057646       58.75419370285902       58.00536204762869
C           50.50864465324145       59.69477587760846       56.86054856162706
C           51.22580096585297       57.67829528129126       58.10349887926395
C           51.11858587036306       56.67426272645420       59.25524757982235
C           50.92969398784194       57.37677784710525       60.59956063234785
C           52.38706919765245       55.80788400754781       59.32672423136509
C           52.75090495283496       55.02690117466961       58.05872843236178
C           51.66242935782513       54.01078297176443       57.71760841068147
C           54.09240129965763       54.29872904574698       58.23243835936555
C           55.34143995228357       55.18587551876709       58.22709891746671
C           55.58485349260386       55.76831345422123       56.83592045425845
C           56.59091520572798       54.39860281405051       58.65341254034388
C           56.61054214208764       53.83987878571305       60.08405258703380
C           56.48778697751467       54.95517673230945       61.11686721988267
C           57.90765989895061       53.03975709226952       60.27857214296335
C           58.02638565210768       52.25254191995845       61.59263319890892
C           59.47819509322124       51.81852917584157       61.78875537111713
C           57.07923458640285       51.04667825031716       61.59135598743188
C           56.88649826298468       50.31788332736446       62.93134996903295
C           56.02935688162001       49.07330881938161       62.69757941428087
C           56.23281841462542       51.22547462836175       63.97901992675094
C           56.12874813153699       50.65646746230011       65.40326294014055
C           55.28193982226030       51.61100285238633       66.24520254702074
C           57.52384807946421       50.46261446093598       66.01018565456762
C           57.58191430341444       49.98973581937544       67.47000927153435
C           59.02732420370021       50.08482209557339       67.95815151913655
C           57.04539780932965       48.56248460008494       67.62164141824218
C           56.87776207240282       48.09230187661166       69.07276268971981
C           56.81257934590057       46.56592652553779       69.11583131244484
C           55.62785396765827       48.70007414074766       69.72222256690071
C           55.64397790046601       48.65028980189383       71.26192992542271
C           54.35850864409518       48.01395494334999       71.79411722558073
C           55.81427612076745       50.04289336091148       71.88662262664637
C           57.11716136008764       50.77127884242349       71.53486517609029
C           58.31976012607470       50.07798883118032       72.17367596356975
C           57.08338032512358       52.23282866925619       72.00878729207096
C           56.12694492030641       53.16124482090365       71.24663590291436
C           56.69883522102594       53.49332830466143       69.86782813134050
C           55.89098090112818       54.47073838873239       72.02087376233901
C           54.71212025188517       54.52933049637309       73.00780681164372
C           54.93461254101223       53.66234564211173       74.24760231652954
C           53.35236035064963       54.16968655629375       72.39440642275237
C           52.93666269875320       54.97380928106305       71.15857847342848
C           52.63621043898159       56.42738878754124       71.52174894721496
C           51.70356544903241       54.33964845320961       70.49855012657008
C           51.99631343501870       53.09023623293179       69.65868418283085
C           52.71946250347036       53.46755839472306       68.36852053576430
C           50.69617249311920       52.34480113163121       69.32001671574098
C           50.13915953774852       51.48276671489787       70.45805132961914
C           50.98713594876716       50.22298618867828       70.63996985556564
C           48.68938530706032       51.05626411356896       70.18673635122713
C           47.61359117434290       52.15275799113366       70.22872317705102
C           47.55615180303130       52.83118826112389       71.59470051365587
C           46.27103749478523       51.49474583122041       69.87540503407885
C           45.03300470950321       52.40133815789799       69.77703363146746
C           43.80269916797675       51.50629499800274       69.62652373887622
C           45.19122979851102       53.40436581330809       68.62706898146034
C           44.06993959544405       54.43980735563098       68.41127188891487
C           43.64816451873525       55.09221008702314       69.72679897533612
C           42.86040096276330       53.88298660388045       67.63449335679982
C           42.57076357375661       54.54923567375616       66.27849196625598
C           43.75181025689748       54.39078842186129       65.32116269008627
C           42.17179199409897       56.02708348729349       66.37363553739101
C           40.86479097852177       56.33193290987309       67.12061519668423
C           39.71556986217679       55.42696340796051       66.67133677956018
C           40.43586101218882       57.79147608223595       66.89349995325050
C           41.39820619727546       58.88143382463157       67.38272219908856
C           41.56958895067168       58.83235226176160       68.90011195738899
C           40.88781588454167       60.27263727143065       66.94757289854753
C           41.84601560731724       61.07924014011434       66.05573786615575
C           42.08206588280132       60.36885884746305       64.72365156405041
C           43.17463686323584       61.39267715966959       66.75811113698123
C           43.08328941290512       62.56061120825201       67.75057160406703
C           43.25070117246283       63.89897613346032       67.03291361627004
C           44.08612778351843       62.40915353475165       68.90471330157914
C           45.55072585441474       62.31255306869487       68.48497434987257
C           46.46021986536713       62.11043276587122       69.69138742579752
H           42.11222784952803       65.20060340725936       57.53291262668866
H           42.58535789613961       63.78576065694566       58.47432755371567
H           43.72184006217152       65.11659855421360       58.23827818102739
H           46.37406089024897       62.94747860968140       70.38175617101425
H           46.18903674289865       61.20201291706508       70.22640766830152
H           47.49857620783380       62.02746419529191       69.37814947993554
H           43.96896128137077       63.25888711723549       69.58326367948600
H           43.82915893858939       61.50829541130929       69.47000320169252
H           43.51326809470970       60.50157117092423       67.28643644096343
H           43.92659957509164       61.63348515393142       66.00444635984856
H           41.34616825074506       62.02995920121486       65.83219739127118
H           42.67462576335134       60.99442610493345       64.05875058202606
H           42.60896939848612       59.42920531895386       64.86973587071569
H           41.13339414263891       60.15759883828063       64.23379360735660
H           39.94567550397331       60.16068623804710       66.40570943695893
H           40.66561503960208       60.86481861337580       67.83730372916298
H           40.27824114150318       57.92933106651932       65.82078418750282
H           39.47225297124348       57.94678760109298       67.38799828633962
H           42.08528608281281       62.55107173100314       68.20534332223926
H           44.21778198779894       63.95545720552956       66.53977833567812
H           42.47899050661791       64.02379704095497       66.27658807968453