3795
 energy: -5103.647303445660 gnorm: 0.000898805864 xtb: 6.6.1 (8d0f1dd)
C           99.52501976171733      122.09809016894725      102.28485751308139
C           98.97489447710680      121.12050047288696      103.29430143647106
C          100.95010591945703      122.53554361029627      102.64605817319411
C          100.99516291486744      123.32337651081336      103.95362716169774
H          101.59656347726644      121.65898212490286      102.71956012821050
H          101.33246172181241      123.16026497187656      101.83711037752053
C          102.35206182200552      123.99986607127990      104.17651107021919
H          100.22118772379649      124.09350810174242      103.93005104638911
H          100.77714684739456      122.65832323367098      104.79227671169026
C          103.46240432702528      122.97466120451547      104.35703682772153
H          102.59201920859010      124.61441521423089      103.30782735648800
H          102.30342166344353      124.63053211700992      105.06447082671752
N          103.64396063258911      122.58701968665530      105.62360715781676
O           97.96041619861661      121.59692671625974      103.97915427306569
O           99.42605062971194      120.00400946384821      103.45964711034129
H           97.58731716572939      120.94462057526617      104.63267291316865
H           98.86305875977679      122.96196922818295      102.24021189879002
H           99.54020735462915      121.59833434860019      101.31488011954325
C          104.65375064446674      121.61818619747719      106.01038087120378
H          103.11884626590130      123.03291700881742      106.36515826933454
C          104.72368712051822      121.50217024139330      107.52575479033089
H          104.41132550527665      120.64642956447133      105.56626029852200
H          105.61197582957185      121.94429550105973      105.59357306756948
C          105.60146568771449      120.34232397423854      107.99294233592710
H          105.08989355223014      122.44294135610434      107.94025070780285
H          103.71395368290972      121.35312462761021      107.91247885085617
C          107.06671735412104      120.48364964192908      107.57805471954900
H          105.53654952085301      120.29190400188722      109.08081227377619
H          105.20384443588530      119.41180458193286      107.58424914092780
C          107.98456409004297      119.60325203295865      108.42860044366934
H          107.16640565201691      120.20214239678613      106.52958263753042
H          107.36413670769657      121.52859942989784      107.68227484266907
C          109.36108612488219      119.39836748013603      107.79904933173218
H          108.09355355078831      120.04350319865338      109.42014145582185
H          107.53439387793435      118.61654619647682      108.53631374133641
N          110.03798164273172      120.64151896431488      107.50196664637117
H          110.00748320777586      118.84228516858857      108.48056312927628
H          109.24567377236730      118.81049765031608      106.88149941963884
C          111.31416999413456      120.89601829005427      107.82489577835348
H          109.53864620933609      121.30408419290174      106.93158830632760
O          104.12177018978647      122.53685043276309      103.42017710650117
C          111.86225836338645      122.20912095497032      107.30306839428356
C          111.74831699830793      122.33916501235737      105.78102191306293
H          111.32368367883845      123.02706042210295      107.78783187222429
H          112.90604748907320      122.27857084271092      107.61135631633381
C          112.39416662190857      121.15804545545477      105.06079563652176
H          110.69954142368157      122.40980433054996      105.48293225523381
H          112.23227022691258      123.26789703294294      105.47094487623123
C          112.28266045943361      121.26427819203317      103.53972075874235
H          113.44569530093693      121.09136882599640      105.34204217755229
H          111.91192776128977      120.22887249658184      105.37162279917915
C          112.67816814030736      119.96108987197118      102.86783779870179
H          111.24287971852463      121.46363468982247      103.26400567234082
H          112.88577237910060      122.08396150543108      103.14850015477036
N          113.23245456354900      120.09037565834953      101.65831630193165
C          113.68416450594533      118.94477848233684      100.89447389009509
H          113.39904214409891      121.01341694195544      101.26937965181915
O          111.98490429869474      120.12751101257928      108.50448641669215
C          115.10135144672486      118.52262769925071      101.29716262187755
H          112.99001272802181      118.12097340208062      101.07982676833953
H          113.65102105171317      119.20403011271834       99.83511065977294
C          116.15967028481820      119.45366271484984      100.71436248104473
H          115.16248915632326      118.52724724218918      102.38638831692977
H          115.28496471101840      117.50442490551015      100.95133006032886
C          117.54254772486303      119.19307078689970      101.30367325087440
H          116.19600508207854      119.31427691568871       99.63350258992665
H          115.87364078410663      120.48942103669604      100.90384804806540
C          118.60772504673187      120.04100925966620      100.61397429941081
H          117.52419963283008      119.43476253455563      102.36704655710224
H          117.78811282255077      118.13535891001533      101.20330469445405
C          119.98964408490336      119.90108733411536      101.25146143758062
N          120.54538697465476      118.58704901798544      101.01961878005237
H          120.67130640666181      120.63038821166484      100.80766023747915
H          119.92760717506567      120.08280678168379      102.32837079092720
C          121.63480820911116      118.37236606281843      100.29290231819898
H          119.99573111023324      117.78832262160084      101.35095030691495
O          112.48057094283183      118.86902978764677      103.39694915336116
C          121.95301803459908      116.92006317952219      100.01508967443638
C          121.56468183876494      116.60737458861320       98.56786361427959
H          123.02659728385260      116.76871772219977      100.13329637842156
H          121.41020710084962      116.27085740115626      100.70088015519491
C          121.92276609608999      115.18096178687843       98.16333004750818
H          120.49050459769401      116.76385560615407       98.44030077292810
H          122.09361354944059      117.30546061881414       97.91460270509738
C          121.61976789927513      114.94082854887270       96.68413652199339
H          122.98901459456108      115.01580946040571       98.33330583064314
H          121.36274444271245      114.46965449439919       98.77237995997203
C          122.53058032161238      115.79164748028069       95.81605841338035
H          121.79678404521103      113.89271952110384       96.43620270679341
H          120.57869948080213      115.16574922306779       96.45656700337308
N          121.90948326480003      116.46744916059315       94.84744133126389
C          122.56881093843674      117.41640245233820       93.97916406983616
H          120.91296384514941      116.32814247442360       94.70507398370471
H          118.67797978844240      119.75629733900200       99.56375298922548
H          118.31899609028343      121.09290563302498      100.64795724384476
O          122.34494036151752      119.28148075860723       99.84100875152041
O          123.74418745833282      115.84931636251200       96.00916615327623
C          121.92127634398028      118.79796061088616       94.09022517976966
H          123.61899716878972      117.45657885931793       94.27953004589837
H          122.51267431039301      117.06426712984185       92.94395523275847
C          122.03780974247745      119.37718224993844       95.49889037030533
H          122.39839666619000      119.46675494051381       93.37321889951895
H          120.86748861642126      118.70712300177405       93.81933619420418
C          121.25546350711389      120.67792779636621       95.65323696025141
H          121.65484692533090      118.64896115332104       96.21562815690903
H          123.08969021209992      119.54936827543779       95.73726878354270
C          121.34605553259105      121.24244349768554       97.06988941285691
H          121.63634992475812      121.41699587430955       94.94561482682252
H          120.20769153638530      120.49496096110924       95.40964375531831
C          120.43581695733376      122.45473628127654       97.22459158446321
H          121.07489132585903      120.47594389509568       97.79741769012355
H          122.37560294461031      121.53752102017990       97.28237016347852
N          120.62863231906979      123.11829779398845       98.49691253985722
H          120.64080808558623      123.16647216671899       96.41386451672376
H          119.38283619362484      122.16778481861846       97.15854575986468
C          119.66420313013315      123.80273562355950       99.11916156925456
H          121.55618923195661      123.09114740363222       98.90044701071685
C          120.11291369519752      124.51824191997356      100.37749049628002
C          119.97191357185349      123.59830011435494      101.59331886888937
H          121.14978959306818      124.83339641513433      100.26807372275394
H          119.48274167636063      125.39923579469682      100.51401255903518
C          120.09343276081532      124.36063068093402      102.90702862283639
H          118.99148058809348      123.12318699357064      101.55466629639915
H          120.73274725892996      122.81934992302675      101.54321122268207
C          121.53080936140785      124.73404062196769      103.26493480250676
H          119.50220434499464      125.27716557618153      102.84119912691429
H          119.69015178588522      123.75826866136700      103.72273266813893
C          121.52731451537055      125.52379807529512      104.55862657772984
H          122.12122147251203      123.82630873135774      103.41475943403975
H          121.99735863448022      125.31546709125654      102.47173663302721
N          122.38711227412519      126.54654142442017      104.61992234625498
C          122.44172009829518      127.39223527083224      105.79557821794440
H          123.12122192699262      126.64801168119264      103.92589017302501
O          118.50208104452628      123.83766537848832       98.71894918957595
C          123.66009047346066      128.30182005897916      105.78345136610409
H          121.52679275481411      127.99458823624038      105.83388335438038
H          122.43875992271688      126.75514604776512      106.68586068592350
C          123.75867296495424      129.11948428232895      107.07199609088434
H          124.56401413513635      127.70399921531214      105.65284583459766
H          123.58117037754236      128.98154867681708      104.93246948833118
C          124.21268405167018      128.28019723173065      108.26584733436188
H          124.45738344545896      129.94448134915123      106.91719151579723
H          122.78169679331269      129.55878896943534      107.28561844433278
C          124.03060445614507      129.02033133549907      109.58765181372902
H          123.62916874908831      127.35991891242764      108.30949212432317
H          125.26188476147018      128.00719763585730      108.13853586547550
C          124.43489178475906      128.15992504505078      110.78971138162225
H          124.62212710596091      129.93705679833295      109.59459757679504
H          122.98150914509533      129.29887949244988      109.70217294802103
N          123.65816267512567      126.94143627527787      110.87973357224705
H          125.48779928186786      127.88304365925933      110.72147140402033
H          124.27505177696749      128.73695065908285      111.70603910676145
O          120.77384521810694      125.25074147252697      105.48684789551015
C          122.39506168769940      126.91778000567793      111.32012523927447
H          124.04205630889106      126.08975291220284      110.47171390242042
C          121.74514997577188      125.55221907935517      111.26295915290571
C          121.18210964319256      125.12387716365512      112.61937939539212
H          120.92621338578616      125.60431565190808      110.54299417893267
H          122.47259621162318      124.82450481054545      110.90759079548982
C          120.75648186662912      123.65571771498841      112.59412541768837
H          121.93046757983626      125.27726602377530      113.39933766369596
H          120.32202265363475      125.75249658869645      112.85274779475053
C          119.77469230756844      123.33381946862251      113.71859206564058
H          120.26574003981945      123.45449463835760      111.64111423649163
H          121.63856979995194      123.02002656577200      112.67579885772618
C          118.41045948815632      123.91966106327172      113.40823722695737
H          119.65444091955546      122.25233347406422      113.81985655198990
H          120.15277210398148      123.71264986288300      114.66884698693873
N          117.56667258944215      123.99874355848777      114.44528976374507
O          121.81792033349521      127.91820029962587      111.74778634982128
C          116.24783109027493      124.58353234148022      114.32856934198981
H          117.87110248399404      123.70581418036451      115.36000556401055
C          116.06859386615918      125.77221998184774      115.27376707236539
H          116.15326697262905      124.90301636168684      113.28830666052221
H          115.48180327676751      123.82761763092624      114.52887938359240
C          117.16608061704692      126.82649036966515      115.10440636018284
H          115.09416444016114      126.21830620755253      115.07541776101250
H          116.06998369098345      125.41315522753919      116.29918112778543
C          116.72199510440724      128.22416140563286      115.53447939997977
H          118.04291714727559      126.53510162367884      115.68280151859938
H          117.46978251093347      126.86832405670539      114.05615820744117
C          116.38539647024785      128.33310564853073      117.02124416176494
H          117.51933378190371      128.93674722625997      115.30925936998646
H          115.84447032177822      128.51881272720394      114.95691901435411
C          115.98221649988156      129.76831418451107      117.35482089650336
H          115.56428607990480      127.66153745348240      117.27332199527039
H          117.25294169594730      128.06123858882157      117.62502727984216
N          115.71964756703314      129.97164523893696      118.76340360312605
H          116.78863764374421      130.44673321016529      117.05173280452672
H          115.07569918414279      130.04301012856976      116.81073522613890
C          114.58271223101042      130.47675009999483      119.24306920993804
H          116.49262957004289      129.80132148575657      119.39834939594934
O          118.08604130429718      124.27080321324111      112.27910217099247
C          114.60275745679269      130.81479885058678      120.72255117564356
C          114.77520525198125      129.60129586207006      121.63886759648578
H          115.43441583235627      131.50433788035284      120.88744557901050
H          113.67269196818276      131.33473220927812      120.96022213594297
C          115.00122229918685      130.04990845507820      123.08252051387670
H          113.89025547508081      128.96439752018588      121.58765873445236
H          115.63925712001409      129.02339200138411      121.31139004521432
C          115.01653166468988      128.87810106462010      124.07232287094885
H          115.95748897792288      130.57578019405221      123.14009690748874
H          114.21347500312707      130.74619478722107      123.37868146819036
C          116.11609816490389      127.90504617240012      123.69173406186033
H          115.20581746327397      129.26188529915370      125.07537473991266
H          114.05338385563211      128.37070587706378      124.05449506464448
N          115.68598632776141      126.84744626598768      123.00611172404568
C          116.52605936564228      125.88836256767718      122.32244958852731
H          114.68390371112639      126.75069334064273      122.86793790411642
O          113.58977235287863      130.69192734844049      118.54475597224499
C          115.91395330288144      125.56703092065368      120.96144770214876
H          117.51753420922532      126.33620695921003      122.20890530150930
H          116.62060723888816      124.97564072404218      122.92385977493970
C          116.69688638942662      124.51037406822334      120.18547240475256
H          114.89133986092209      125.22460483802715      121.12468384575330
H          115.87675511137091      126.49215763047081      120.38146764223782
C          116.12981748357637      124.29691279995082      118.77696100362753
H          117.73187382162779      124.84720187379170      120.10325339974871
H          116.69153195261521      123.57156417476591      120.74093827977953
C          114.94410777491802      123.33104771112164      118.71548697694378
H          115.82033931917033      125.26897364250016      118.39072574089354
H          116.92000913698708      123.91191200703132      118.13073178494182
C          114.35708026814983      123.27213377667788      117.31014314090908
H          115.27515706441989      122.33309957209013      119.00212966048908
H          114.16861334717309      123.64782577797436      119.41235257506386
N          113.24160864169460      122.34806562077154      117.21170536694478
H          114.01404558262324      124.26789286893074      117.00451572712542
H          115.12166994371069      122.94966205991625      116.59622403316996
C          112.69724217076272      122.03385256854278      116.02857071863841
H          112.84551216961628      121.97023352739582      118.06560452288846
O          117.29805374455813      128.09773810681304      123.98404240937779
C          111.50410918335218      121.09200241785405      116.11695007432911
C          110.55146551703959      121.26073637422991      114.93238144793027
H          111.88025902726021      120.06709048536587      116.14769989720544
H          110.98569570058878      121.27615209411491      117.05877062564176
C          109.18174014029201      120.63951882164250      115.20236384452492
H          110.42564714774620      122.32796061305426      114.73426249476081
H          110.99749230731446      120.81995702490194      114.03998954247743
C          108.22741361699734      120.86833175397206      114.02242971051616
H          109.28693574625650      119.57013884842441      115.39391196669317
H          108.75845401997113      121.09682305099714      116.09892950879346
C          106.78201315880567      120.64013267181507      114.42051926975482
H          108.32093350261761      121.90441188010458      113.69395820794405
H          108.48266942349088      120.20327522744664      113.19680415251351
N          106.25570486682174      121.63292961933567      115.13418038308778
O          113.12553865800729      122.46805614109154      114.96487265645963
C          104.89353590816201      121.64396048661284      115.63006264382403
H          106.77392098016237      122.51119993157079      115.18168412149770
C          104.36173600275175      123.06837255834184      115.75619045286399
H          104.27110546340325      121.06219755841622      114.94424788418674
H          104.86125999450262      121.15294730238898      116.61046520087173
C          104.31304166032130      123.79639959893008      114.41424495445386
H          103.36163404794335      123.02525031634144      116.19068361318779
H          104.99971057972948      123.62912221176327      116.44242593624095
C          103.76250176747223      125.21394228302022      114.55408879580560
H          105.32128419412750      123.86425334099195      114.00584089465254
H          103.69758376362644      123.22459461670323      113.71917218614418
C          103.82442417596999      126.00311803659767      113.24626200324757
H          102.73300858478308      125.18395531346232      114.91341152845359
H          104.35530896467370      125.74568259110347      115.30161569000143
C          102.88742160340139      125.46080475357998      112.16735230643226
H          103.56067782572433      127.04485406012407      113.44347564084109
H          104.84507415888989      125.98751797287115      112.85716138879779
N          103.08686248842552      126.17545806508204      110.92674653082960
H          103.08470646272420      124.40112530550667      111.98346770490183
H          101.84475422895083      125.58225997616874      112.46298797483475
C          102.12644021407935      126.73620999059807      110.20315400161145
H          104.05835743299649      126.30197500493001      110.64114937363358
O          106.15258124512384      119.62526967948374      114.10736489441267
C          102.60491248465986      127.47499486610172      108.96677663613897
C          102.84745639382801      128.95570831718632      109.28344744207298
H          103.50986155873328      127.01204928247610      108.57776333035535
H          101.82154219461108      127.40015212156987      108.21048118469406
C          104.08861294795639      129.22602509899340      110.13467982813886
H          102.93868498070604      129.50420484425766      108.34335924073331
H          101.96717883926966      129.33888154754428      109.80611950299276
C          105.40359917396512      129.04085720397208      109.37431365181854
H          104.03612401940457      130.26036786171497      110.47998262240428
H          104.08973367263124      128.58206056556133      111.01521501024709
C          105.87969552196041      127.60081343718765      109.28489283872499
H          105.33505485124883      129.46189226840079      108.37173282005872
H          106.18862847935389      129.58760681273540      109.90378409458498
N          106.56880911916932      127.31153614231098      108.18121067647311
C          107.16597078759396      126.01588302573602      107.93912765688529
H          106.84470649259087      128.07008240842001      107.56234886000367
O          100.92815215565687      126.68442455629406      110.49893871689953
C          107.30622727920023      125.75665715235890      106.44451825865777
H          108.15199829512277      125.95695722272914      108.41834712450587
H          106.51579393916498      125.26998252197279      108.40295697979300
C          107.86103633992218      124.35602491017404      106.18876102000712
H          106.33178488256904      125.86786439405304      105.96621888375758
H          107.97153210278890      126.51198870632295      106.02365437263563
C          107.84466842498306      123.96109207950880      104.71173671286178
H          108.87807066166943      124.29296629225487      106.58239029466949
H          107.23879308183035      123.64519478366125      106.73651698471508
C          108.88408374405115      124.69762851675507      103.86721965089028
H          108.02575247616686      122.88748355812560      104.62124631253634
H          106.84934400424011      124.15202472238808      104.30717644767553
C          108.65320171457932      124.44849767526981      102.38098215687943
H          108.83745980970984      125.76885637718385      104.06353412328527
H          109.88635284568765      124.35869107576426      104.13413408549739
N          109.82940206989588      124.77540706724888      101.60054104815076
H          108.41659170571945      123.39547855840269      102.19908166341932
H          107.79511708190452      125.03491390310317      102.02933306354986
C          110.01705290518704      124.30198735207431      100.37076709138273
H          110.55364201340478      125.32728127592449      102.05351922730213
O          105.68341299322441      126.77358075697587      110.17707306983017
C          111.33744960777184      124.67116483791968       99.72716366043203
C          111.35497612235004      126.13304468614210       99.27768951440758
H          112.14158226748523      124.49275136677579      100.44080883708457
H          111.49095344314472      124.01949520431432       98.86610670312773
C          110.27097393612539      126.42181123118228       98.24106875422652
H          111.22214710720695      126.78357613442191      100.14337079188013
H          112.33265078240656      126.36031635009070       98.84731962460260
C          110.34487164625961      127.86071318790768       97.71571720693441
H          110.38902795968424      125.73664667861202       97.39945117436199
H          109.28707437160357      126.24082882750999       98.67971491386608
C          110.06081960529002      128.85682147958445       98.82409556836565
H          111.34928513379354      128.05471023411960       97.33743506390081
H          109.62852271867634      127.99350475675318       96.90465901746718
N          108.75862921061011      129.09783952837154       99.04037695706138
O          109.17212396716953      123.61751295795038       99.79177131275854
C          108.28717080059612      130.03528615074239      100.04191069362935
H          108.06662182374485      128.69833352894264       98.42572000483455
C          106.82678847794791      129.79088223678511      100.40065623210177
H          108.93016339334886      129.92947229907205      100.91891658006382
H          108.40612493175173      131.05862463896034       99.66425569723383
C          106.57768035108406      128.44329642400112      101.07791522237540
H          106.50777139165591      130.59082273946601      101.07064384547556
H          106.22024372808059      129.85838073533091       99.49457001208063
C          105.10071981154096      128.29092757593423      101.44452764157992
H          106.86796534557230      127.63075206609612      100.40817650299026
H          107.19567764528823      128.37295036156542      101.97440491038338
C          104.72202806743671      126.88573545123319      101.91481193611641
H          104.84319178733423      129.02196940066435      102.21476359442015
H          104.49851543186591      128.52549351019925      100.56325143654574
C          105.29714605879452      126.48927134549534      103.28299361280112
H          103.63123585995891      126.81537118616468      101.96732570146078
H          105.06123609285993      126.15606192112060      101.17803739465944
N          104.75902071023079      127.20071355458484      104.42876525790423
H          105.09745466229448      125.42412382633908      103.43943062163135
H          106.37918566071741      126.63338880895995      103.28812058184046
H          104.96991887049100      128.18962695532917      104.35759152568404
H          103.74973972735229      127.10337141626182      104.45344711651545
O          110.94703027966499      129.37951870004497       99.49074542190885
C          110.88766607926651      128.54156192515723      102.61903010283756
C          111.87793134298398      127.53624513604160      103.15626432854278
C          110.64331486302709      129.70155909843751      103.58408620364759
C          109.94566584981106      129.22596867047153      104.85539154533920
H          111.59930940347391      130.15933818949037      103.84017284704431
H          110.03054902805573      130.45710252382534      103.08974959227898
C          109.71323916344153      130.36476522658532      105.85358608684757
H          108.98000944286150      128.78146112814434      104.60018670420881
H          110.55218948493490      128.45258445996018      105.33311442603218
C          109.00090985496607      129.78406450050815      107.05997427652942
H          110.66090932628993      130.81276682721290      106.14924763032121
H          109.07873912353149      131.12494330841147      105.39687714639165
N          109.81062339752751      129.44301032132333      108.06163279186833
O          112.87035041550332      128.05579690267675      103.82690182498339
O          111.76661002602570      126.33599412886883      102.97590161654681
H          113.46591617893982      127.32552017399358      104.23457138199001
H          109.95721565109211      128.01471553854014      102.39465824865508
H          111.28960349318744      128.92559199314161      101.67595507327026
C          109.39909766123344      128.83646598522969      109.30911394739596
H          110.77130246332514      129.77515776738639      108.02942087216275
C          109.74714841027672      129.73006142317763      110.49924335379504
H          108.32666621991574      128.65753844205085      109.25716256024106
H          109.91249961706919      127.87284152370196      109.40994349940004
C          109.56089551820840      129.03569621168103      111.84810211258443
H          110.79359463361489      130.02445142769847      110.39108458850617
H          109.14303856435491      130.63855695274574      110.45823469333001
C          108.10082156294419      128.80950978878138      112.24107835153393
H          110.08984548043361      128.08251440517850      111.82768195552927
H          110.02279561641056      129.65593862116131      112.61864654266724
C          107.97909550299427      128.13041235776731      113.60948607923302
H          107.59652884490905      129.77707750103946      112.27654385665171
H          107.59268566786457      128.19490455526389      111.49743821243948
C          108.16649756013192      126.61705099296974      113.51242728607751
H          108.73732993760210      128.53756757017976      114.28184853421935
H          107.00231155819651      128.34710718133238      114.04263296682663
N          108.62195036614233      126.06412946727271      114.77129788750965
H          107.22946757687977      126.12577158647517      113.24168816581675
H          108.89936416754793      126.38872690055634      112.73224334812497