3864
 energy: -5104.216311452130 gnorm: 0.000753265370 xtb: 6.6.1 (8d0f1dd)
C           68.60138788965615       62.92789737726061       43.08922308273194
C           69.27969930651912       62.03844229106977       43.91471054526892
C           69.85979703062863       60.91701336207056       43.33671705640162
C           69.74876116552640       60.67476404075359       41.97796515873085
C           69.05338005044217       61.55697422812135       41.17036413035626
C           68.48745298413242       62.68954214702207       41.73167969572516
C           69.39485467371051       62.28061984328197       45.40049494535749
C           70.28937056481683       63.49410183977074       45.66589096509370
C           67.99976949906367       62.45592723341787       46.02017093145940
C           67.94431073798501       62.26435861972416       47.54782569672930
C           66.65931518068865       62.88479363222190       48.03947686886178
C           66.67694134628643       64.16263549295566       48.58568094887256
C           65.50569057941159       64.78765458600961       48.97633718159440
C           64.29365824623125       64.13500104304302       48.83705380352097
C           64.26197541365771       62.85828883882694       48.30389125033706
C           65.43433977865141       62.24392559575115       47.90120290629909
C           68.07781316271672       60.78630955790831       47.92652350099551
C           67.93195086905659       60.52914867207151       49.43163752157803
C           68.97144864738056       61.28700498693609       50.21516202368136
C           68.58448488949811       62.24449094141921       51.14371699833825
C           69.52381457528286       62.95705584643066       51.86758883383943
C           70.87329622712839       62.71831040400574       51.67427757220966
C           71.27311176494526       61.76289858776036       50.75487195828511
C           70.33006447851011       61.05493968734726       50.03229352778300
C           68.01125182105689       59.02208158370092       49.71103008890979
C           67.82567127456328       58.68808900927278       51.19494053386425
C           66.51154443959409       59.19688048943275       51.73313113140654
C           66.48220028074806       60.00156721072124       52.86581370124641
C           65.28012462147232       60.40451247130401       53.41921208420976
C           64.08232962565879       60.02793136013046       52.83749531005273
C           64.09856594174444       59.24900709644479       51.69357370884784
C           65.30220022264449       58.83238909836196       51.15216416307848
C           67.92760276661228       57.16823520206955       51.41001201866451
C           67.77278978992985       56.80724714567537       52.89166847465938
C           68.90985835029305       57.36728855686643       53.71396334464669
C           70.23594475763346       57.09882279836657       53.39410052875779
C           71.26902397580473       57.60485320265701       54.16192009151859
C           70.99477211689016       58.38485440397194       55.27243489606784
C           69.67896518642142       58.64963295687491       55.60792958715344
C           68.64843365504281       58.14565868746185       54.83471648951831
C           67.69011097601137       55.29630138791219       53.16017880874037
C           66.58842591825230       54.50700734006243       52.41735558861232
C           66.55433552775457       53.14609224363951       53.06968484432910
C           65.97565076696648       52.95395584517378       54.31998737988010
C           66.05657683392015       51.73132992563289       54.96105609444494
C           66.72806280969979       50.67585463133540       54.36660750422313
C           67.29688557831903       50.84894312882404       53.11604323027265
C           67.20603882978317       52.07277548582270       52.47511294270844
C           65.23460549568330       55.22329039541662       52.41699018243760
C           64.11135434363707       54.45471297468259       51.69637631679196
C           64.55208101698190       53.97477268013740       50.33590241487174
C           64.77242933889154       54.86834895507105       49.29317085163613
C           65.13020432762974       54.41582495370754       48.03654427232932
C           65.29809708755890       53.06164466224905       47.80352073231672
C           65.09288895521506       52.16386259179500       48.83602382187022
C           64.71305972270964       52.61715550095511       50.08764100842393
C           62.86690576439037       55.36094683206784       51.56204739606725
C           61.69419478067666       55.04420227208309       52.50603639958557
C           60.62231757811941       56.08687269102676       52.28576351586892
C           60.87202344729862       57.42281970482665       52.58534454630066
C           59.91690625607620       58.39391180391877       52.34961246660127
C           58.69699451118329       58.04876219325779       51.79322144533086
C           58.42734146927449       56.72255380085232       51.51038751905896
C           59.37941976943848       55.75003129731579       51.76560600497282
C           62.11826595677316       54.98887986993152       53.97891737841666
C           60.93791409873021       54.88882165669885       54.95929379017753
C           61.46174489161573       54.95458622443368       56.37095072954939
C           61.03087009856952       55.93911836262424       57.24811376583607
C           61.54402727564388       56.02070475727903       58.53145133767724
C           62.50123905836747       55.11599346831800       58.95145863650216
C           62.92322127372797       54.11554070646507       58.09427667677169
C           62.40394299312920       54.03305727790766       56.81742663225191
C           60.08877969561912       53.62426528708593       54.76625750740948
C           58.68980252201983       53.77015749866831       55.40713688409866
C           57.62146458325706       53.65172481046509       54.34850891982212
C           56.72808611313666       54.68888644477217       54.11783271780175
C           55.79005307062349       54.60831469940449       53.10367725874249
C           55.72557801004387       53.48313871846651       52.30195585675744
C           56.59522619539701       52.43097311965739       52.53752967994532
C           57.53154004535033       52.51563871446064       53.55103685047654
C           58.47010837242694       52.75684208310344       56.53912186449794
C           57.15275358365900       53.00661656000811       57.30337823608689
C           56.62843040241620       51.70251890160754       57.86366907805157
C           56.09513044110968       50.78330941331797       56.96415345022014
C           55.56887817234346       49.57932433355007       57.38766805758189
C           55.55045056285299       49.27183749425433       58.73792709183947
C           56.07729786522221       50.17361933007947       59.64387366118176
C           56.63236736470817       51.36595960409866       59.21101338914889
C           57.33849454930971       54.10892557938536       58.34926830124476
C           56.02535765333334       54.49694039799702       59.04375682966769
C           55.07607606197755       55.19493439858118       58.10274399530057
C           55.40725804391117       56.39103932252402       57.47837415477464
C           54.51550631338849       57.01355087908633       56.62312604324537
C           53.26692164525550       56.46293007866770       56.39301050209352
C           52.91961639917091       55.27782866210329       57.01655042902144
C           53.82301897050918       54.64960911467232       57.85456980927538
C           56.28418346090338       55.35129351856584       60.29613908125018
C           55.10396836515216       55.26133566937179       61.27585566058205
C           54.97598687833889       53.85680039254381       61.81234840833184
C           56.00379682010228       53.27039758695466       62.54513860231583
C           55.88651383919349       51.97929219626116       63.02459101495205
C           54.73822471706768       51.24422222392952       62.78112751582373
C           53.71018898144139       51.81394304447073       62.05149020465507
C           53.83169019830614       53.10685254416117       61.57283986401005
C           55.24755231465058       56.28849266135891       62.40731319307254
C           53.96265322411524       56.44530127426479       63.24309470267921
C           53.77083843821924       57.88082593548273       63.65952182108024
C           52.59848370627586       58.55859470883732       63.35293576096518
C           52.40556032529365       59.86389692865348       63.76798461246045
C           53.38169190257183       60.50461790533438       64.50714885450658
C           54.56670234504970       59.85136336682616       64.80082090397040
C           54.75819905372545       58.55027471804996       64.37348328746437
C           53.97650614067406       55.54291386329204       64.48518060488381
C           52.65888774301093       55.60884956020740       65.27435121980511
C           51.50881243728961       55.12184734857525       64.43035431013521
C           50.43505186559930       55.96243726865463       64.15660710607098
C           49.37731502281293       55.53274379442062       63.37592662871949
C           49.36933980808292       54.24605438031791       62.86521318027444
C           50.43096734555575       53.39893718451433       63.13160352873204
C           51.49274418689400       53.83549892880139       63.90387112063149
C           52.79368912703050       54.81991818988048       66.58629980279535
C           51.70043406191409       55.12855696106691       67.62441523392690
C           52.20045119556060       54.76491377524524       69.00457471528195
C           52.39342433477600       53.43900831018851       69.37821934287635
C           52.83206853227978       53.11579201362456       70.64882424994489
C           53.09988727558984       54.11551720289867       71.56829124574502
C           52.92707751411246       55.43988360119221       71.20699890783885
C           52.47815898505077       55.75712477420733       69.93696705645176
C           50.37925839491237       54.40585301378032       67.33698012646978
C           49.30967130970319       54.78559744423182       68.37303884774693
C           48.60640631837047       56.06920281058817       68.01993127218084
C           48.67643092204757       57.16676661904597       68.86793072888891
C           47.97468826891289       58.32719484555124       68.58831219711530
C           47.18900579705299       58.40655989724937       67.45164482519981
C           47.13199971732794       57.32693269231508       66.58590105078304
C           47.83924933725947       56.17295990903143       66.86507203804543
C           48.29495382922381       53.65058364471843       68.56328360726597
C           47.33286324473569       53.92982636627511       69.72590189451083
C           48.09799638357917       54.23394617029111       70.99017040945419
C           49.04403604626660       53.34652287061357       71.49211340335098
C           49.74905591074420       53.63910393870724       72.64461735759048
C           49.51890594242741       54.82439616968556       73.32148970169459
C           48.57602829876966       55.71401260997415       72.83591371746910
C           47.87424213004596       55.41891731221682       71.68016710988876
C           46.39075729430790       52.73745978007966       69.94597186610372
C           45.29325680057920       53.05525643613970       70.96903222285481
H           69.87375668060129       61.40436467969175       45.84795131102813
H           67.63855196557459       63.46056812327431       45.78810729718993
H           67.31180697328627       61.74572929517133       45.55460013983392
H           68.77646051880323       62.81078408803653       48.00484223010925
H           67.32636390394705       60.20213668014937       47.39373265270323
H           69.05601602725123       60.42719124008652       47.60526997713927
H           66.94546119172908       60.88345355378372       49.74969836274326
H           67.24515225295737       58.51510015355628       49.12258039222871
H           68.97767476641978       58.63370286427404       49.38230689695483
H           68.63486307855790       59.16739571831989       51.75907165081745
H           68.88819819960375       56.81657476565295       51.03039155529373
H           66.84879627766406       57.26322338897475       53.25932494303132
H           68.65041848773819       54.83428492939857       52.91658836383549
H           67.54207599957587       55.17387823657788       54.23697232846845
H           66.90145621134124       54.37685639981969       51.37583570331478
H           64.92224761020319       55.42441936910975       53.44137697918937
H           65.35926588726511       56.18536063445645       51.92122644664405
H           63.86567622354818       53.56567808904257       52.28402403874865
H           63.17192331491714       56.39721371901008       51.71310439791821
H           62.48467889989691       55.28234046917095       50.54149735950322
H           61.29936027305735       54.06404088194589       52.22043096864221
H           60.29391158543694       55.75739309680588       54.78012257817868
H           59.96759510411277       53.44230308512512       53.69959725569164
H           60.61133728137501       52.76440248360577       55.18981916439712
H           58.61500626745103       54.76966075555990       55.84492697281561
H           58.45896052382113       51.74895014894020       56.11780145206677
H           59.30930010228287       52.81689555793631       57.23782596828116
H           56.40744608102413       53.35314700835358       56.57505694589420
H           58.05919456547674       53.77327989132545       59.09754458289270
H           57.76927877319354       54.98662358670038       57.86518207901516
H           55.54019127283676       53.57391429037162       59.37533940020201
H           57.19011335218489       55.00005234230211       60.79403578105696
H           56.44266249529090       56.39414366403049       60.01435864472472
H           54.19465306238617       55.50482020436270       60.71280331866690
H           56.07623694798385       56.00649999689141       63.05909524858730
H           55.49630472486263       57.25435740983610       61.96023695039403
H           53.10485305579492       56.15591743553673       62.62758595539688
H           54.17303398170813       54.51419194698915       64.18186605813514
H           54.79279135451229       55.85711711559553       65.13861495199882
H           52.47505980031105       56.65898459361919       65.53348345920415
H           52.80464663082425       53.75087142102460       66.37332247041961
H           53.75818857206922       55.07369289668559       67.03545211520867
H           51.50814814927214       56.20835622517092       67.60738017303848
H           50.03475527175918       54.65596166071292       66.33525145361286
H           50.54694884582685       53.32847180910185       67.37272270961788
H           49.81306881968349       54.92758128799662       69.33579117551881
H           47.71766558503437       53.49749546052633       67.64958791303987
H           48.85250229925442       52.73602882509346       68.77083400477463
H           68.15218902932178       63.81589553533266       43.50860035750767
H           67.95092646307174       63.38592972745149       41.10344615896668
H           68.94773747105781       61.37089220974826       40.11058844502163
H           70.21162146594510       59.79532635119383       41.55150718872405
H           70.40992469085737       60.22349846324315       43.95687004181520
H           67.62280676089260       64.67626681357332       48.70186936658497
H           65.53676816934417       65.78662765978687       49.38920566290112
H           63.38182969792484       64.62765756428018       49.14240536083942
H           63.31989499748901       62.33955996133095       48.19838292464114
H           65.38779755785706       61.25617260817096       47.46936496268317
H           67.53296112909769       62.43405175711613       51.30434769081532
H           69.19844633181299       63.70026194117592       52.58216427715337
H           71.61258545400675       63.27240033276206       52.23573666320957
H           72.32589013522579       61.57052597715948       50.60110513930800
H           70.66118843220653       60.31143215116930       49.32145434668661
H           67.41437580699970       60.30418994189044       53.32402819615073
H           65.28015514191755       61.01258383096876       54.31136218587039
H           63.14589272456674       60.34014450531948       53.27733720553763
H           63.16790983340083       58.95942864900169       51.22670009595155
H           65.30006049120264       58.21587012629196       50.26508783956583
H           67.15259653033712       56.67464154082761       50.82444754354230
H           70.47281192573426       56.48713260518208       52.53542216637574
H           72.29401660461944       57.38813477166889       53.89490932673444
H           71.80163198144781       58.78068952928330       55.87262014084189
H           69.45537699617425       59.25125563734997       56.47789500813278
H           67.62587543068271       58.35809136295926       55.10982721460331
H           65.46521755029090       53.76882317135272       54.81132141533536
H           65.59749987160949       51.59745241238066       55.93020361495142
H           66.79704312318844       49.72158896393869       54.86919284832585
H           67.81261931637349       50.02735169564397       52.63830134089279
H           67.65431109037175       52.19742435910979       51.49873778398196
H           64.64493705742278       55.92781436521825       49.45740557566497
H           65.26760806756823       55.12186671363801       47.23136826413698
H           65.58007725117096       52.70588247201453       46.82311537001394
H           65.22259564311184       51.10467753183360       48.66371194744634
H           64.53825068396780       51.90247025073744       50.88016902362281
H           61.82516637782761       57.70808220196834       53.00707166447796
H           60.12440667255257       59.42621244162023       52.59474163112409
H           57.96249766647318       58.80925284163680       51.58203039893355
H           57.47062918565594       56.44564697872237       51.09028869587060
H           59.14337030777734       54.71548635929343       51.55914574945768
H           62.78404745465931       54.13787015469234       54.12483201065659
H           62.67876598089158       55.89330056111352       54.22894388366072
H           60.29906518392276       56.66411030860728       56.91865410417158
H           61.20690822872839       56.80304804575594       59.19639651197556
H           62.92173335461352       55.17704213471984       59.94148134708757
H           63.66431199066982       53.40283978723179       58.43057390734440
H           62.74255574777685       53.24488341357677       56.15910564581238
H           56.76409720147007       55.57293886299363       54.73752817353537
H           55.11145106313499       55.43327529923841       52.94001465219158
H           55.00055330523851       53.41920022497094       51.50366653432161
H           56.54319251441247       51.54036886410731       51.92627701356400
H           58.20700877254102       51.68861428940309       53.72263355654366
H           56.08828145643397       51.02279328586610       55.91146007254260
H           55.15642323040336       48.89009077475369       56.66418570467415
H           55.13050319289232       48.33558251531283       59.08069347636417
H           56.05388553680066       49.96272060779852       60.70253130240577
H           57.05346340813818       52.02615845569459       59.95295996607673
H           56.36813100502965       56.84996876406478       57.66346334913244
H           54.79906991058410       57.93331894705425       56.13005416093178
H           52.56609105218798       56.95400849445427       55.73331885843200
H           51.94417251134725       54.84253834818777       56.84767925213387
H           53.55660504922274       53.71679763891002       58.32952110551520
H           56.90786674852587       53.82330711859279       62.75928283951328
H           56.69856008746350       51.54934893180425       63.59353673141045
H           54.64272095294689       50.23705637129024       63.16182831530180
H           52.80842231001109       51.25202981881293       61.85249598876558
H           53.01648146199155       53.54064247610140       61.01149315832043
H           51.82087877345494       58.05689092316036       62.79578594376762
H           51.48788435197911       60.38003884192755       63.52932857297994
H           53.20374066977112       61.51190000627133       64.85527571187060
H           55.33525520417402       60.35245049958596       65.37136591187247
H           55.68630806897662       58.04468960959970       64.59484031936735
H           50.42642043668258       56.96137437775732       64.57143093747204
H           48.55424777775963       56.19967597379945       63.16149573740280
H           48.53667873622256       53.91230737488739       62.26349288581175
H           50.43701492703525       52.39311603118058       62.73583126753154
H           52.31421049026827       53.16101848799995       64.09334123939919
H           52.19182916406881       52.64139430984699       68.67890313247104
H           52.95840354457094       52.07777463314293       70.92331182514144
H           53.43906251592399       53.86306843404909       72.56293543726281
H           53.13769412621603       56.22865564310433       71.91601671628572
H           52.33215191501728       56.79551720667136       69.66983220146700
H           49.27935777265500       57.10680853275905       69.76438648721961
H           48.03693477754925       59.16988667570391       69.26342133092059
H           46.63176586411328       59.30738047498029       67.23593279784424
H           46.52875691878184       57.39121889464361       65.69187239638597
H           47.79158263459582       55.33984735941095       66.18052776166523
H           47.14561614726188       56.12245359209406       71.30022887448986
H           48.38954742937495       56.64272977483138       73.35740213665781
H           50.07144795324270       55.05559873885521       74.22089596311255
H           50.48518183563075       52.93915417073647       73.01266701477053
H           49.24905150330759       52.41842954736186       70.97976332212170
H           70.42542852963706       63.64625187716128       46.73405174278179
H           71.26877962849071       63.34605991325134       45.21494850319950
H           69.85195007294624       64.39515055717298       45.24174142637458
H           46.72469562465269       54.80509050977029       69.46857337505671
H           45.93609228264888       52.46190186507341       68.99229291191241
H           46.97557453844227       51.89072908646049       70.30360024704373
C           44.58564615015231       51.78614627289435       71.47330148921324
C           44.27644257905409       54.01212091964742       70.39741167472134
C           44.05618208220723       55.24655861645945       70.99501591577346
C           43.10600395056935       56.12114254119701       70.49666992451598
C           42.35256551471049       55.76928351310185       69.39063014765902
C           42.56344331658859       54.54260148521014       68.78434505725146
C           43.51709496323616       53.67444068521154       69.28287868679033
H           44.63348374941533       55.52545399691902       71.86604702336486
H           42.94979969458816       57.07706267051994       70.97670944383425
H           41.60045204650358       56.44408515130047       69.00736734451662
H           41.97409270237087       54.26189425655085       67.92318549655808
H           43.66658934362672       52.72101924195538       68.79870927261774
C           45.45904291432581       50.95433803328176       72.42023899744297
H           43.68082706314543       52.08302438570036       72.01103155743357
H           44.27944863932508       51.16289091373447       70.63220094669347
C           44.66053608901822       49.83229464748162       73.01743081675464
C           44.08119950908895       49.96257481232446       74.27347984520814
C           43.31605747027321       48.94207012485987       74.80960158329819
C           43.11230835310112       47.77646649326937       74.09029426409984
C           43.68161937576951       47.63903580959257       72.83623911052813
C           44.45277209088802       48.65714099321711       72.30621309054440
H           44.23414491218685       50.87146676670158       74.83890434426377
H           42.87686828778078       49.05604560442026       75.79043899399464
H           42.51326872529695       46.97993404976090       74.50763463017121
H           43.52723607508991       46.73757001886073       72.26232743578727
H           44.89555665865382       48.53212369449354       71.32901276417184
H           45.76606515624500       53.53613538786008       71.83349891480383
H           46.30558882858870       50.54231798030797       71.86982389537050
H           45.84696640389691       51.59892316426334       73.21217317779605
C           31.58206130061315       48.12509689157293       41.08344837242753
C           30.95367042402317       49.31010992010564       41.44580838241084
C           30.78380249124007       49.58013509883897       42.79852061146019
C           31.23166688959000       48.69324604473471       43.76045207644015
C           31.85242282311171       47.51300684064818       43.38831592002582
C           32.02715109944893       47.23256043847402       42.04341427617413
C           30.43058027567474       50.25360868497533       40.39161364810240
C           28.90103585131629       50.30712116034243       40.45514750520682
C           31.01440957458798       51.66478207930423       40.53719820643553
C           32.53439919349309       51.70103221821601       40.33033415756743
C           32.87514703870025       51.23349513955436       38.93592012231017
C           33.61394812492512       50.07395727405258       38.74000099941052
C           33.92500912301895       49.63320262873040       37.46564922305189
C           33.49718687541677       50.34933674595163       36.36106621837495
C           32.76655923409779       51.51122943058994       36.54187218640560
C           32.46095821687573       51.94940592601548       37.81812396246085
C           33.11230690414867       53.10889434406456       40.56186988004625
C           33.44153537198871       53.43249044797152       42.02776374272497
C           32.19698431120400       53.60461469652302       42.85600425104992
C           31.31083414847069       54.64959566227313       42.61701789223195
C           30.15492692988037       54.78144588104367       43.36493681193699
C           29.86942450732749       53.87242663104885       44.36989378700547
C           30.75422455448993       52.84072286727501       44.63189396139517
C           31.91060813471018       52.71189902306477       43.88204884416951
C           34.32601524738254       54.69276824890288       42.09594165126282
C           35.80288726351501       54.35158467534338       41.84404293427729
C           36.54472393618046       55.49770515671216       41.20549280238519
C           36.49450728937794       56.77863661378307       41.74489594502971
C           37.19155875813737       57.82111127989557       41.16198990222134
C           37.96368911975495       57.59862225759220       40.03386534171440
C           38.02937094258457       56.32608081172553       39.49481919860527
C           37.32309609020763       55.28779688292884       40.07510513533101
C           36.52949209766503       53.92016765286342       43.13606609552066
C           37.38238638482594       52.66752489737132       42.91469012083375
C           36.51341051765996       51.43501299857569       42.84591838498445
C           35.68173672857625       51.07610631118663       43.90268373647359
C           34.90083331018261       49.93635988024150       43.83156604189542
C           34.96348612621031       49.11267656237692       42.72021251148049
C           35.79251414683426       49.45424395909760       41.66751865605237
C           36.54305766665021       50.61500300866619       41.72595693701862
C           38.44393192987724       52.45694436855576       44.00522583096678
C           39.60134962972720       53.47706587788223       44.05766217976267
C           40.64852234460898       52.92265478221155       44.99382529760931
C           40.83715147556425       53.48125155550765       46.25053130754271
C           41.77219257309314       52.96172504063969       47.12963796345461
C           42.54337661343995       51.87516708941305       46.75504540005907
C           42.36325900370963       51.30508967952583       45.50611414017383
C           41.42004011107545       51.82085134598983       44.63639631118726
C           40.18811105310241       53.77416765780616       42.67286513677789
C           41.48733139968984       54.59052782334989       42.70959349718886
C           41.30076638148604       55.95343224524073       43.32504554451085
C           42.11401172301487       56.35325737242682       44.37899044359892
C           41.99337230643560       57.61355978612416       44.93694629677550
C           41.04395907720087       58.49611681902694       44.44950562227233
C           40.22604519306078       58.10994311301405       43.40088412013045
C           40.35693546963832       56.85213767820640       42.84064618918162
C           42.05237104364225       54.71404409620180       41.28220717977583
C           42.86385499121628       53.46893572994997       40.87306181815681
C           44.29772367637727       53.63240328448912       41.31310211610786
C           45.16841207104967       54.46630370620369       40.62019878920280
C           46.48607628872095       54.61097220820086       41.01464469202362