3864
 energy: -5104.070972816700 gnorm: 0.000889580458 xtb: 6.6.1 (8d0f1dd)
C           68.56752973403863       62.92016657981236       43.07151981933973
C           69.24906834146157       62.03513763081388       43.89888937800554
C           69.83209613423863       60.91362476878499       43.32435385495815
C           69.72058452908854       60.66670182085735       41.96652449972473
C           69.02185458764116       61.54423272423533       41.15680366864650
C           68.45327323377445       62.67698918847493       41.71486049972111
C           69.36468104753079       62.28212088796110       45.38380551126234
C           70.25575205367666       63.49814649951281       45.64703526203477
C           67.96910934033065       62.45626145149205       46.00289253592302
C           67.91484278747777       62.26298606317277       47.53021575984801
C           66.62983322156394       62.88108649465988       48.02438590129795
C           66.64416212460968       64.16661723627492       48.55249358077836
C           65.47293391780522       64.78897356258177       48.94648514699082
C           64.26410499192464       64.12604239802884       48.82940678373767
C           64.23570193569508       62.84181633078479       48.31437187973405
C           65.40811035956325       62.23012308731820       47.90725638777250
C           68.05157256437502       60.78478120525149       47.90657831603663
C           67.90340559513129       60.52549207427256       49.41098846434409
C           68.93769434674856       61.28810752120987       50.19759942100041
C           68.54273610096830       62.24387388087725       51.12421221693109
C           69.47702681526647       62.96112654048467       51.85017920361204
C           70.82772753690591       62.72762409466145       51.66022381313908
C           71.23471564623748       61.77398610887816       50.74251888810445
C           70.29728151662692       61.06147264514079       50.01733656971903
C           67.98884965107611       59.01856444138718       49.68875183237957
C           67.80382851691695       58.68454670905345       51.17258451248242
C           66.49061309691335       59.19632225301884       51.71000378777011
C           66.46353844585376       60.00623397819277       52.83924266020524
C           65.26290224562631       60.41671423872531       53.38961797905243
C           64.06368384248188       60.04278940870323       52.80897190793016
C           64.07748143616055       59.25649432594107       51.67003400206491
C           65.27988745858326       58.83272901870171       51.13110342466777
C           67.90439824200809       57.16519307769237       51.38947987177165
C           67.74865478509379       56.80718378690863       52.87203599692459
C           68.88139406736387       57.37847655592363       53.69340279012994
C           70.20898701322308       57.12072715900204       53.37223880165468
C           71.23750771458481       57.64230679539467       54.13546783156364
C           70.95668631470031       58.42608170986811       55.24129597088427
C           69.63922200045774       58.67866164512638       55.57867373084993
C           68.61252595650087       58.15929128061425       54.81043377826358
C           67.67401751813217       55.29651921566558       53.14215667740704
C           66.57463466957255       54.50190281373799       52.40227320112187
C           66.53430886468401       53.14379261215988       53.06037388502333
C           65.95402789657905       52.96078698325540       54.31116677977491
C           66.02229561098416       51.73837158278443       54.95434384477319
C           66.68433206214853       50.67601399148050       54.36205702437854
C           67.25749416366733       50.84182461931341       53.11247706028134
C           67.17816034417730       52.06459421654171       52.46835518933662
C           65.22048051305902       55.21816396296011       52.39637715188349
C           64.09596011816498       54.44275059085001       51.68510817836484
C           64.53064969725662       53.95583692494128       50.32474829544778
C           64.73904283567936       54.84414839110357       49.27516719146291
C           65.09089432314913       54.38479203432789       48.01900790173649
C           65.26522136223937       53.03000384464123       47.79449291315086
C           65.07345090776761       52.13814186279023       48.83471570002521
C           64.69870202257013       52.59740868629196       50.08565570256407
C           62.84885095068051       55.34545088046554       51.55225110400666
C           61.68227823132551       55.02986187866671       52.50443222179498
C           60.60564255373186       56.06761760528364       52.28577539288656
C           60.85111829449755       57.40541668214406       52.58111577814349
C           59.89157454331405       58.37226056549100       52.34620401713083
C           58.67137365760174       58.02121930277287       51.79404280962742
C           58.40574853086753       56.69323699916331       51.51547310854023
C           59.36215120410081       55.72486099154459       51.77050990654779
C           62.11601449781114       54.98234754332313       53.97463123120525
C           60.94331785803794       54.88421419431524       54.96407606236163
C           61.47782403567992       54.95767527791241       56.37185672247860
C           61.04714033010248       55.94224856362119       57.24881387022654
C           61.57041400854157       56.03043464844163       58.52786314966649
C           62.53641460436959       55.13289055421856       58.94288162975173
C           62.95790159471495       54.13214220312889       58.08591214551841
C           62.42911726682615       54.04325713590370       56.81340943050191
C           60.09667757933256       53.61589369407778       54.78281005038907
C           58.69676571322565       53.76678772527368       55.41986681982535
C           57.62571826254412       53.66087428335346       54.36241671612353
C           56.70864803618804       54.68540033682620       54.17009268761614
C           55.76020736732264       54.61299446513096       53.16491246663490
C           55.71131999347979       53.51013826824020       52.33154264642303
C           56.60506349737648       52.47030647802912       52.52846485919622
C           57.54888831686063       52.54481624656132       53.53574830026682
C           58.46700751246043       52.74699894491152       56.54461418446691
C           57.14996250123137       53.00054495832675       57.30756102289676
C           56.62007697789857       51.69742740395920       57.86608820658788
C           56.07965737936071       50.78471115436061       56.96430199638954
C           55.54888390494848       49.58144326232989       57.38459070341754
C           55.53160527537457       49.27027893671850       58.73408259746181
C           56.06388684662522       50.16672703022646       59.64218212612749
C           56.62509097182026       51.35738521624123       59.21246268551084
C           57.33794493511993       54.10133966888132       58.35489561374688
C           56.02430001140252       54.48993964487972       59.04861465596274
C           55.07796852774082       55.18695244735285       58.10307718270597
C           55.39887850661840       56.39650701826646       57.49937618502343
C           54.51097039612172       57.01346737453819       56.63566164060443
C           53.27803761187026       56.44205217911104       56.37419013852049
C           52.94217176369194       55.24185313511470       56.97476679255745
C           53.84069931271748       54.62076618088333       57.82323363739364
C           56.28366454666462       55.34028384227729       60.30305315120888
C           55.09480934757614       55.26419549160491       61.27367832159442
C           54.94109757481129       53.85786893716087       61.80013274832864
C           55.94738154988820       53.25705782243136       62.55100934317207
C           55.80660664242168       51.96453456619598       63.02064646329949
C           54.65709978068149       51.24221331477307       62.74671032831803
C           53.65182917407525       51.82528492769805       61.99613500829437
C           53.79562521076733       53.12021985215848       61.52894121051398
C           55.24701217315407       56.28518956903549       62.40974194120151
C           53.96284817651456       56.44905039223632       63.24556757892758
C           53.77282212326485       57.88664212138605       63.65699635310162
C           52.60140773190238       58.56465949635894       63.34735955140926
C           52.40902168697956       59.87047484199331       63.76127688569859
C           53.38401362894864       60.51028625163543       64.50255546458300
C           54.56822550925042       59.85682375594651       64.79852340485483
C           54.75975591263627       58.55540489975582       64.37198569883869
C           53.97487069649860       55.55130428459429       64.49103818776673
C           52.65364139456395       55.61869481344979       65.27379685246812
C           51.50839428942645       55.12885366064977       64.42433544682770
C           50.43598566240986       55.96883694277542       64.14254994463930
C           49.38017246620915       55.53513791218516       63.36170556800265
C           49.37217928576467       54.24510961221493       62.85916929409348
C           50.43367428247265       53.39966510952153       63.13129019879411
C           51.49450795633077       53.84044150841703       63.90280342295615
C           52.78353148521555       54.83326451544572       66.58831474818314
C           51.68534264151409       55.14090216463589       67.62099528083171
C           52.17675449980426       54.76501316359536       69.00169042814126
C           52.36036883017265       53.43548496614544       69.36654390160356
C           52.79466120066535       53.10176063615241       70.63602190563464
C           53.06710880066198       54.09423560725197       71.56172302816729
C           52.90265494458134       55.42188232883019       71.20918747166645
C           52.45761661482197       55.75008922897537       69.94062202346906
C           50.36314162708670       54.42614236517270       67.31919546255260
C           49.28773768780709       54.80372242259985       68.35004236866693
C           48.57651465965115       56.08058640028415       67.98696322036454
C           48.64841064238205       57.18781066069275       68.82210041661901
C           47.94235805209755       58.34277878742495       68.53174664817243
C           47.15001000740796       58.40661648131768       67.39882095989134
C           47.08976138367763       57.31653123950098       66.54675665844212
C           47.80269063595911       56.16801370162923       66.83528271067675
C           48.28287288562854       53.66091938828678       68.54410237735470
C           47.32382118188681       53.93445530606041       69.71033149943757
C           48.09727544106881       54.23983901320452       70.96961512173473
C           49.03938001408967       53.34740786682828       71.46962968411229
C           49.75811519543819       53.64293705935566       72.61286777418744
C           49.54670811584457       54.83709544394961       73.27969868198711
C           48.60732156622223       55.73107581104333       72.79596755165895
C           47.89003951407997       55.43274070640485       71.65072764773440
C           46.38707842916498       52.73856793813022       69.93162852805114
C           45.29083923440098       53.05485003773927       70.95642765090629
H           69.84431596653242       61.40735301391951       45.83382085946062
H           67.60668314803630       63.46068331984466       45.77255964490693
H           67.28055899124548       61.74577897570461       45.53748961983279
H           68.74645926391736       62.80893004190310       47.98755858116387
H           67.30376636517248       60.19800827242221       47.37003915251304
H           69.03149744533707       60.42850647701423       47.58714649178061
H           66.91349855043215       60.87346759560941       49.72623814684714
H           67.22516300256643       58.50768753047544       49.09935281582651
H           68.95682584826027       58.63383021779643       49.36089008345703
H           68.61227859023896       59.16386974469478       51.73583394337145
H           68.86498192233299       56.81303316231364       51.01121564518967
H           66.82024770525267       57.25825298894491       53.23612102716082
H           68.63501880214817       54.83877600533737       52.89574935262001
H           67.52725394822041       55.17466231681327       54.21903345634293
H           66.88646678312263       54.36805577822883       51.36103817631070
H           64.90835335339703       55.43081772989113       53.41894585423012
H           65.34119846884272       56.17588629110326       51.89053912564246
H           63.85238725563824       53.55717006532826       52.27894202738845
H           63.15028833380555       56.38419495706136       51.69673310238990
H           62.45989540829337       55.26241265787983       50.53423640021357
H           61.28827509289645       54.04724811851327       52.22562219425432
H           60.29514929242875       55.75010039404445       54.78519328543373
H           59.97812893614630       53.42158579546863       53.71796363539948
H           60.61968348707576       52.76196875977715       55.21764034877939
H           58.62729858966620       54.76378973204305       55.86454352182336
H           58.44922755324991       51.74267726502745       56.11504629719188
H           59.30480904165389       52.79714038993053       57.24552539303608
H           56.40662692584635       53.35087345118217       56.57921976579709
H           58.05768367800273       53.76384934594699       59.10329131335345
H           57.76985917298945       54.98011450850916       57.87283069762743
H           55.53838904028692       53.56661424250851       59.37795862534605
H           57.18159415922481       54.97662461655551       60.80725955410308
H           56.45817686208505       56.38135506980562       60.02368279006403
H           54.19489602141014       55.52473166058596       60.70370366660590
H           56.07393163196262       55.99318304875960       63.05967867388971
H           55.50501362147482       57.25028964167116       61.96576703902448
H           53.10512834907733       56.15817119494722       62.63124989687174
H           54.17475631956660       54.52183047618645       64.19208647259545
H           54.78806824605397       55.87090590326497       65.14587252513566
H           52.46824348172322       56.66914296436374       65.52828416576828
H           52.79857884338178       53.76367024071448       66.37705286458225
H           53.74561913005986       55.09067134671263       67.04066377146971
H           51.49827899418325       56.22126679139528       67.60793665862889
H           50.02560065230193       54.68268131304717       66.31656043481911
H           50.52675356989423       53.34733831103981       67.34738445202959
H           49.78793977157652       54.95321323517985       69.31275883082786
H           47.70478988973212       53.50023976685060       67.63151485412750
H           48.84873619975505       52.75048165816266       68.75016716441894
H           68.11691035481927       63.80816279213315       43.48922354029075
H           67.91552161951790       63.37049283847118       41.08506781510309
H           68.91709223140262       61.35542016676359       40.09792252661234
H           70.18713208991811       59.78769045871041       41.54342521844266
H           70.38561913025734       60.22462709969374       43.94697870102056
H           67.58751582162952       64.68656883977796       48.65151611630154
H           65.50003874752861       65.79293584254948       49.34507359416057
H           63.35140544095132       64.61507827038614       49.13765528308921
H           63.29703341053686       62.31318721237869       48.22452026962525
H           65.36227602003886       61.23582680374523       47.48970099286469
H           67.48944234961408       62.42648913218090       51.28052968833450
H           69.14514798378676       63.70283310941776       52.56238095966538
H           71.56268595596619       63.28503746042904       52.22267503606717
H           72.28794540452834       61.58531830053177       50.59106399218336
H           70.63151507636191       60.31899721654205       49.30682235126552
H           67.39562547821951       60.30640407417228       53.29648587516338
H           65.26252926380235       61.02901676604564       54.27847873172653
H           63.12721157536819       60.36196156191535       53.24479186399270
H           63.14525872914497       58.96637156322122       51.20525813287409
H           65.27375804775339       58.21104677115331       50.24717184515598
H           67.12989865172408       56.67127857834675       50.80270581782071
H           70.44852312058481       56.50640423192733       52.51640726743327
H           72.26340853354094       57.43446443936852       53.86728995983013
H           71.75950387092088       58.83457699017092       55.83723708903497
H           69.40972377942990       59.28231461202730       56.44523067628569
H           67.58744434449434       58.36107255882705       55.08483332746916
H           65.45208842646248       53.78293128619904       54.80024725858259
H           65.56066206339740       51.61268904494080       55.92315358054102
H           66.74203708756532       49.72282307843705       54.86636659732004
H           67.76660384521831       50.01590856175932       52.63698089008613
H           67.62744232774388       52.18578852052613       51.49243781395012
H           64.60729746980961       55.90435486300909       49.43373239702893
H           65.21987416814254       55.08770983119508       47.20983053942756
H           65.54140340315007       52.67108281120979       46.81430901863190
H           65.20919161685632       51.07976759171693       48.66937064576076
H           64.53251008700705       51.88935144978274       50.88516516110383
H           61.80490461030010       57.69507856080877       52.99846781525452
H           60.09555765051451       59.40558505453291       52.58890748256161
H           57.93377222205405       58.77822222203881       51.58241166337628
H           57.44884718325461       56.41144576942160       51.09951626816493
H           59.12957424118967       54.68885290598475       51.56740005403096
H           62.78380904581691       54.13296884499521       54.11862518952136
H           62.67576851460784       55.88950562710599       54.21643010691453
H           60.30741043848982       56.66126813874357       56.92271723289755
H           61.23161535327937       56.81306532856136       59.19203824884561
H           62.96188336334162       55.20083649371739       59.92996827624279
H           63.70393248846950       53.42461487838061       58.41783876165912
H           62.76528818244694       53.25632437758959       56.15304340962671
H           56.73295161443134       55.55226420114298       54.81397911067720
H           55.06136889965966       55.42668044430287       53.03437148513082
H           54.97998780224053       53.45249174303896       51.53845398161550
H           56.56558795200441       51.59679131121482       51.89213334744620
H           58.23995689270605       51.72559047727744       53.67914289548008
H           56.07186343096248       51.02986752930060       55.91291376282386
H           55.13264523889468       48.89759652196956       56.65860808572584
H           55.10901042868594       48.33522479576618       59.07465505113328
H           56.04171764441408       49.95328067397455       60.69993076382793
H           57.05251330034130       52.01342504394140       59.95440967038803
H           56.34858077756208       56.86952635120135       57.70649821031548
H           54.78612066823248       57.94450767879943       56.15939721415142
H           52.58120155740117       56.92829423821179       55.70696967558146
H           51.98030530533746       54.78913333313574       56.77905731869504
H           53.58424887119695       53.67733407922276       58.28129612073790
H           56.85208335649425       53.80021364715257       62.78608926795545
H           56.60152327315982       51.52408478214441       63.60463563463431
H           54.54279858809509       50.23472159680920       63.11994712127612
H           52.75050518642855       51.27337671376264       61.77133683928145
H           52.99880219113248       53.56465970887344       60.95022353765545
H           51.82549905370552       58.06190799837345       62.78927321391118
H           51.49282922464738       60.38615354826450       63.51975271779221
H           53.20580911299924       61.51658833632728       64.85100806807849
H           55.33655988985448       60.35586595925696       65.37062161751317
H           55.68665958641014       58.04791373736455       64.59463313718554
H           50.42705539584292       56.96917368717225       64.55193928229923
H           48.55842783675162       56.20049187134807       63.14039434567592
H           48.54034663282236       53.90666286759890       62.25865218720944
H           50.44004108319825       52.39129944632229       62.74177969715961
H           52.31566917388117       53.16687528576997       64.09617421907042
H           52.15567976335374       52.64363904962763       68.66083588113609
H           52.91430999372734       52.06094653520970       70.90185901999999
H           53.40373009066882       53.83202703482730       72.55411277603793
H           53.11696258248512       56.20496811213081       71.92228741568148
H           52.31822035194608       56.79007526205644       69.67793855269350
H           49.25645863863982       57.13802392354216       69.71484613937527
H           48.00669402422521       59.19325778983229       69.19543964654706
H           46.58927239160599       59.30231592663711       67.17443962467699
H           46.48002303205880       57.36635993330862       65.65611980337290
H           47.75469538649464       55.32613355155779       66.16102319244875
H           47.16397075346718       56.13804535432417       71.27041801258906
H           48.43488774968932       56.66591396770273       73.31020584976645
H           50.11106447491150       55.07080681270490       74.17048579216704
H           50.48949393664657       52.93762843072977       72.97919942621826
H           49.23092383090410       52.41396273429680       70.96135816357253
H           70.39162586048651       63.65202060366492       46.71496674417055
H           71.23478469673813       63.35089802910880       45.19556878679499
H           69.81536097714137       64.39664536979252       45.22096190061548
H           46.71197409234425       54.80714608605007       69.45437622713335
H           45.93219803123898       52.46004677857727       68.97819768118742
H           46.97596053740358       51.89330418448147       70.28696855022250
C           44.57206661787887       51.78814903878588       71.44937128632075
C           44.28713456762106       54.02740163283616       70.38767334087854
C           44.08468895885549       55.26276436368958       70.98938812133835
C           43.15306431305974       56.15531442199470       70.48866424620073
C           42.40116628148367       55.82137659321702       69.37625922308834
C           42.59343522531114       54.59335628319052       68.76683688869561
C           43.52858304470093       53.70646857355160       69.26777894920789
H           44.66192504027834       55.52674935223018       71.86458737398458
H           43.01047615969718       57.11143998068944       70.97145278533758
H           41.66360836684918       56.51021557341123       68.99021199039464
H           42.00400204504448       54.32501988524882       67.90165480684213
H           43.66429493111897       52.75201708034537       68.78074208075051
C           45.44523502169148       50.92473488067366       72.36796194417143
H           43.68080675252853       52.09090807363651       72.00559064196393
H           44.24260955298909       51.18475709587390       70.60232019783706
C           44.63120106917633       49.81589100263656       72.96966955382047
C           44.03934768624610       49.96917129954008       74.21709023004261
C           43.25854338025039       48.96345427815028       74.75759523647838
C           43.05120562451150       47.79092537108100       74.05103186438549
C           43.63288262693450       47.63082876976801       72.80572034115731
C           44.42061860272364       48.63405391555251       72.27116746653611
H           44.19591063456546       50.88438040913198       74.77101320271046
H           42.80985153949052       49.09480052752674       75.73171552564351
H           42.43952613874012       47.00599616528277       74.47150494808824
H           43.47487161290471       46.72424394870259       72.24131886396076
H           44.87423357762998       48.49287647358175       71.30108065694948
H           45.76851411490198       53.52389827271873       71.82449835286839
H           46.26990137749367       50.49831338812572       71.79501613407450
H           45.86557403691074       51.55158670264673       73.15778726486288
C           31.63646680674899       48.10955443699928       41.12743147702321
C           30.98379273472979       49.28335008464246       41.48291016418167
C           30.79405437779567       49.55084857831736       42.83346631226600
C           31.24581012023889       48.67158299454877       43.80061356551956
C           31.89001624652630       47.50172828321784       43.43549226528452
C           32.08492070482924       47.22441455071402       42.09263927626184
C           30.45568950720827       50.21790606489278       40.42321231958315
C           28.92595746208706       50.25898730809296       40.48166956631572
C           31.02705108528510       51.63437644737377       40.56654375697111
C           32.54670572894226       51.68058863575426       40.36013663448294
C           32.89539519231711       51.21578366328342       38.96661867297372
C           33.66101976757051       50.07322263102895       38.77439265521777
C           33.98387341663577       49.63753201380067       37.50117361986175
C           33.54083809635839       50.34181573292825       36.39505929477072
C           32.78343116765618       51.48669087148645       36.57269423707979
C           32.46635384098106       51.92037131260363       37.84749503661159
C           33.11537025062308       53.09256756813153       40.59020638335844
C           33.45182305353794       53.41416297869641       42.05504171978605
C           32.21018468551605       53.57588903245783       42.88988401103876
C           31.32012273643775       54.61977292927561       42.66259958618814
C           30.16340033316451       54.73689844080625       43.41151491285943
C           29.88144038950839       53.81428607074270       44.40472210915406
C           30.77097143648302       52.78407042601717       44.65576812162372
C           31.92845439609295       52.66966014357343       43.90522009050939
C           34.33290218103360       54.67675746642822       42.11946886979729
C           35.80839366458053       54.33447745569493       41.85965725122337
C           36.54567995347794       55.47637421743831       41.20866268980564
C           36.51935443419374       56.75502647313956       41.75506402071883
C           37.21069079311721       57.79398025580797       41.15951265809775
C           37.95037437498939       57.57068220402390       40.00999291206858
C           37.98954181540928       56.30090500036761       39.46185828826236
C           37.29124176914654       55.26531475310730       40.05666928167807
C           36.54203430656352       53.90924626926184       43.14948418344740
C           37.39478977219697       52.65652368372694       42.92810916270068
C           36.52850383360565       51.42112223174550       42.86675535328600
C           35.69876185065116       51.06699578414550       43.92655638336414
C           34.92276577183292       49.92327570897699       43.86355033717157
C           34.99035187396247       49.09099983477071       42.75901275633647
C           35.81759724432187       49.42836758908615       41.70348754826193
C           36.56185307383195       50.59374660886852       41.75239401754821
C           38.45917958819493       52.44951653099003       44.01658633485638
C           39.61492445704653       53.47203203596328       44.06628276533016
C           40.66895152630890       52.91391873195006       44.99267852742755
C           40.86549745164656       53.46730901566301       46.25064163317098
C           41.80405980600672       52.94189480055344       47.12255759974222
C           42.57077063310791       51.85492956808411       46.73972711091330
C           42.38254148759527       51.29015690495979       45.48951929881996
C           41.43611396408347       51.81168709479383       44.62672446685409
C           40.19195368282654       53.77686890702832       42.67895888031573
C           41.48935161908936       54.59692052761802       42.71116735168641
C           41.29922278531809       55.96011029240384       43.32581282192083
C           42.10166063863271       56.35693698721863       44.38921668107159
C           41.97432641645556       57.61628728474590       44.94839540666520
C           41.02985165826779       58.49949876435602       44.45243411057698
C           40.22417238131210       58.11638481367625       43.39336596020959
C           40.36143044532933       56.85989900288766       42.83181340189024
C           42.04936526019715       54.71969219463000       41.28175677192217
C           42.86045607513787       53.47427180678287       40.87304201304281
C           44.29349527473185       53.63612787116703       41.31636115648752
C           45.16289454322591       54.47782928282817       40.63154713602491
C           46.47985547077001       54.62198654896117       41.02859132310147