3795
 energy: -5103.668183250277 gnorm: 0.000873122026 xtb: 6.6.1 (8d0f1dd)
C          128.87599507597213      115.48539858974419      126.40264502083538
C          127.50325826341030      115.45960477464162      125.77838142356977
C          129.50482948184288      116.87022331996326      126.48854033329721
C          130.91642199562236      116.80218393311895      127.06332469586827
H          129.53203653461338      117.31911700611293      125.49514789309414
H          128.89061036006512      117.50699448106046      127.12578777438739
C          131.55065865546777      118.19054941755279      127.17929273698735
H          130.88393151735474      116.34641517562031      128.05503296213644
H          131.53972521575494      116.17216017674005      126.42882058613166
C          131.63490158110395      118.86944044471979      125.82423833518196
H          130.94711599458643      118.81967575974676      127.83494246797306
H          132.55235445130069      118.10097052334774      127.60065595888409
N          132.56884443951262      118.36958488769903      125.00523494175182
O          127.27068654536890      116.40628450824541      124.90360914058226
O          126.67857281221870      114.60993407805685      126.06699248053741
H          126.34133097928742      116.29763491274119      124.50500938451728
H          129.49899548174281      114.82416650118230      125.79565157027054
H          128.80558276743790      115.02295476121913      127.38862109243770
C          132.82192197440563      118.87692019198553      123.67310542784672
H          133.12746141979045      117.58288105168849      125.30451512774432
C          132.91599604162644      117.74868557037594      122.64943000799646
H          132.00511861913455      119.56227027948114      123.43254171358541
H          133.75793545085091      119.44758925880619      123.67607750647781
C          133.19656621942957      118.28521228913768      121.24708864454657
H          133.71555446245370      117.06720908948523      122.94860416428716
H          131.98284780664645      117.18250418602412      122.64492699794221
C          133.38834366282879      117.15582460111139      120.23571177536093
H          132.36508463684876      118.91782719178077      120.93030261365622
H          134.09378695859181      118.90706840062899      121.27166751765911
C          133.56779750716714      117.69435558847242      118.81562371851338
H          134.26600957038696      116.56892444186671      120.51357806364706
H          132.51976517551134      116.49700485224109      120.27112926406652
C          133.94468808215183      116.60761287888926      117.81459571285227
H          132.64398899940301      118.17770458823254      118.49284678816548
H          134.35813884050387      118.44655901826479      118.81019780758247
N          132.88880489403073      115.62228573034149      117.69105462208319
H          134.14092781986619      117.04395961522874      116.82776117230033
H          134.86644360708422      116.10405002226204      118.13087434523145
C          132.94937435870349      114.57429793035850      116.86309816720839
H          132.08971053781275      115.71545204465365      118.31373567973256
O          130.90026047570322      119.80080109733620      125.51384869825064
C          131.79516408879303      113.59973593335879      117.02825283745669
C          131.08659210653016      113.26227604492647      115.71642541276191
H          132.21749965701540      112.67948776600458      117.43881773668868
H          131.09319618138517      114.00961135511308      117.75140538354395
C          129.93533104299894      112.27630273949853      115.94091953857149
H          130.70168328131109      114.17809902742408      115.26379908183314
H          131.81803545318814      112.83179998299134      115.03007738943936
C          128.71258475483040      112.96428830303036      116.56266699621673
H          129.64804055260177      111.82180443869633      114.99181378822439
H          130.28096399609387      111.47468599064823      116.59791099623433
C          127.79343527565602      111.97444428958529      117.25180743243384
H          129.04095836990717      113.67687282001110      117.32005870934138
H          128.16084683539884      113.49919815902402      115.78795152006020
N          127.17321178489165      111.10783148888827      116.44672203243523
C          126.33879874164566      110.03282036310830      116.93984937304813
H          127.30533254142006      111.15646563384283      115.44183314956503
O          133.86732460286817      114.39836718510149      116.06394519466441
C          126.70715077970945      108.70499402064327      116.27831506426091
H          126.49702441228932      109.97791617858583      118.01823831917351
H          125.28384446348859      110.27632510739770      116.75908530539624
C          125.63075377039110      107.63636180928819      116.45581329144466
H          126.86728569476995      108.87801089491802      115.21152366351932
H          127.64569101244440      108.35273222021918      116.70836670297453
C          125.41897412048684      107.26679296301370      117.92082900325559
H          124.68946549791586      107.99480379952935      116.03406907674717
H          125.93001723714411      106.74600447260674      115.89910214923873
C          124.48128046024608      106.07290068269499      118.09075391996507
H          126.38678551022961      107.04986104138254      118.37449410119224
H          124.99262747682117      108.12105038997584      118.44832951368744
C          124.19421585370999      105.83683830043633      119.56579511059314
N          123.30168182718667      104.71271425731895      119.77902411819603
H          125.12152284439698      105.63781340861023      120.10884009097080
H          123.73968255997225      106.73819792841503      119.99219921789812
C          123.08700604221535      104.19340391578488      120.99418043982271
H          122.75837927730753      104.38753345339119      118.99524199340750
O          127.62699078429776      111.98665187060651      118.47126734235729
C          122.08248937012458      103.06017950626465      121.03180819323634
C          122.68269826077446      101.77386976125905      120.45302152417973
H          121.78320070784130      102.89043461861101      122.06658836984165
H          121.19478556473874      103.33483582622566      120.46080578545963
C          123.71490004957626      101.15747234419557      121.39231323998540
H          121.87610013622445      101.06127245783209      120.27711989189758
H          123.15600592911878      101.98565643779860      119.49171719458951
C          124.49493173825144      100.02498720139752      120.71905518354015
H          124.41859440017582      101.92969246056263      121.70942602257193
H          123.21619618794320      100.76949353427023      122.28267112127615
C          123.59678817354987       98.84486528727690      120.40148893616650
H          124.95660508519664      100.39037830420406      119.80222927101957
H          125.27214521167025       99.67442751200284      121.39996634982340
N          123.26779292917685       98.71004132266071      119.11992036173240
C          122.49096999815934       97.59510389509789      118.61460645359796
H          123.58326274307845       99.39488119617609      118.44282484178561
H          123.54150096649252      106.28708141220427      117.57572465618446
H          124.92760461531429      105.18232214377947      117.64406359116451
O          123.69183362347755      104.59166127539291      121.98519493231530
O          123.21340204739951       98.06847513712636      121.28188822866646
C          121.97130365102834       97.88686066002928      117.21451933338118
H          123.12283812756833       96.69762079834572      118.59650961290822
H          121.66579386398887       97.39529567576095      119.30363217690520
C          121.14368099877768       96.71286875151402      116.69479286815887
H          121.37046934990605       98.79631905638597      117.24069156012543
H          122.82152632734660       98.06739009430997      116.55332300304921
C          120.82747609292220       96.80666492640532      115.20317182475596
H          121.70030100922015       95.79008224973963      116.87174802190464
H          120.21871362697605       96.64923685195660      117.26674788992722
C          120.01870663582754       98.04995527567878      114.83099638143752
H          121.77078985226112       96.80520214274216      114.65338228038090
H          120.26437948086439       95.91587822395134      114.91608765928217
C          119.44909561301361       97.95867749580988      113.41191353397316
H          119.18674021531082       98.16653268712354      115.52575424773794
H          120.65078968708579       98.93570909274740      114.90434030488437
N          120.49205538121248       97.76848264233273      112.42778688987633
H          118.74722826960775       97.12300616885919      113.34401581018963
H          118.93103264315955       98.88470796791594      113.15428102273791
C          120.89407474865398       98.70266500708196      111.55621466081254
H          121.02318837848024       96.91537717266671      112.50198737359921
C          122.13037014562123       98.31536464971624      110.76268755749723
C          123.37847089764382       98.25471708492300      111.65209161835556
H          121.96630840807920       97.34100536065870      110.29963348195345
H          122.27929897816678       99.04844346661088      109.97114194528226
C          123.69099238122931       99.58398072793948      112.34319084176867
H          123.24383131881029       97.48954678929856      112.41940511742898
H          124.23240211782641       97.96062988931463      111.03925449916208
C          124.23108703257802      100.64783815786133      111.38163297459448
H          122.78678084340524       99.97412865493681      112.81562196068019
H          124.42506179009803       99.40799270160659      113.13203973512090
C          124.59553862822877      101.89887385246169      112.15234141643192
H          125.09962895661691      100.28111051063155      110.83554028991823
H          123.45408809743788      100.92707295618183      110.66950125823755
N          125.77324621743192      101.91553399575375      112.79124613044861
C          126.88532551158526      101.00594400327556      112.59776797495553
H          125.98123144231268      102.77936839297647      113.28318613120089
O          120.30224204803012       99.76525660543214      111.40086556642439
C          128.08635089796431      101.43370647859560      113.43708258217686
H          126.58579569694963       99.99210802803360      112.88147191729814
H          127.16816175855774      100.99951536898537      111.53730531584078
C          127.80842347696498      101.41366762750616      114.95176079930772
H          128.91592361023845      100.77071016291764      113.19153755689653
H          128.37685709570002      102.44048152314129      113.13159232347338
C          128.01187159323626      102.79764514617374      115.56827856444131
H          126.78021040673833      101.09191735444409      115.11679247353189
H          128.46426658741009      100.69531718102320      115.44593632578791
C          127.69499137800111      102.89577589527478      117.06331101365591
H          129.05216237519616      103.09976651151808      115.42701958099906
H          127.39332752379406      103.51460570587287      115.03013603744449
C          126.35268860559880      102.29862238258505      117.48163170483096
H          128.46754324897702      102.38436386459756      117.64030656527625
H          127.72082475550263      103.95205439657242      117.33872615686992
N          125.26060604498653      102.64035342001121      116.58968080112238
H          126.41472495257506      101.20539795642406      117.51444636140059
H          126.11032130674762      102.64033143729149      118.49644531783538
O          123.81414004325930      102.84211609460128      112.24785674250811
C          124.18357783868981      101.85138168063629      116.49272770685330
H          125.40441886586621      103.38300038940282      115.91764229274426
C          123.16937609791398      102.27314449648878      115.45431340208629
C          122.11342177679892      103.21993734621094      116.03755065181585
H          123.68056463524113      102.77023633127321      114.63164334727728
H          122.67630899803343      101.37977832578140      115.06891811721798
C          121.07187058222500      102.49696403821312      116.88531261893186
H          122.61253384136720      103.99023143300390      116.63026940919221
H          121.60635132550885      103.71363064106200      115.20825969506133
C          120.03600679252038      103.47472668282653      117.45242160358056
H          120.55756673071200      101.76311618704970      116.26139890449680
H          121.55382352787525      101.95823067155229      117.70255507399838
C          118.97467851304211      102.68664457331951      118.19545788157016
H          120.51759649722202      104.16439659965081      118.14905338843401
H          119.58329143805618      104.04416195399139      116.64130487137420
N          117.80118446141550      102.59603993841445      117.56994005378797
O          124.02621965647776      100.87080769750972      117.21991621524093
C          116.70945465995787      101.76424599662741      118.04259019443207
H          117.60750884699610      103.18380479831821      116.75857412911790
C          115.61773529722315      101.70659663601847      116.98165820046826
H          117.10943598198148      100.76451925711474      118.24065998936325
H          116.31309293567676      102.15189546054614      118.98811492315689
C          114.59906991742038      100.59690481625917      117.23319679048612
H          115.10848093921015      102.67078395592513      116.93790611266770
H          116.09042154041518      101.53658863202321      116.01186679974047
C          113.58972327210097      100.52643436652490      116.08685427120803
H          115.12316427143872       99.64169910882796      117.30267865039943
H          114.08541839628109      100.76214403176081      118.18156180840349
C          112.76660135787401       99.23981983108985      116.11165395762302
H          112.92053236364565      101.38735445816741      116.13298309478222
H          114.14329571187180      100.58725803792673      115.14733448683685
C          111.82892933171762       99.11202108950403      114.91033989746053
H          113.43702220158572       98.37869491075358      116.12441853449232
H          112.16417848339165       99.21152551436342      117.01942706859283
N          112.57344677928624       98.95906253564380      113.67865922751606
H          111.20523451756235       98.22345320489508      115.01512305824494
H          111.17496982072271       99.98547017621942      114.82889876103893
C          112.34970468844068       98.01223425951366      112.76722721393294
H          113.26598979442691       99.66392726341599      113.48294624237752
O          119.21225469424097      102.13157782192445      119.26776538764936
C          113.27795245022523       97.99889427492818      111.56631455935698
C          114.55634404181095       98.82442177472365      111.68450075369630
H          113.52235511526969       96.95177844202418      111.37176577017604
H          112.69415961584254       98.34387891881552      110.70809616897580
C          115.44367184135346       98.63926346199348      110.45499100183090
H          114.32202060626371       99.88854611571843      111.75980909521334
H          115.11194089267858       98.52315151909005      112.57462411491936
C          116.61855262762197       99.61714945713564      110.46123887683260
H          115.81215556356442       97.61294287534591      110.40597291354656
H          114.85010279523536       98.81892345401272      109.55659046383013
C          117.26701576938214       99.74604646055111      109.09949456795401
H          116.23772050909218      100.60557000902952      110.73326732330061
H          117.37035985739114       99.33177872912438      111.19596120422710
N          118.55997592415338      100.07314526710377      109.11344183472859
C          119.33785559672671      100.24192369034027      107.90287664866305
H          119.06505650626032      100.14760175772943      109.98997464794644
O          111.44812203677037       97.17905470886056      112.87484425730945
C          120.61202714693493      101.02407363133521      108.19363091534028
H          119.59461212764994       99.25471665287270      107.49494787706649
H          118.71695251128337      100.75567515498395      107.16264455868179
C          121.62325120236402      100.92102006338013      107.05410418410752
H          120.36501080634017      102.06808557143393      108.38493836320332
H          121.05324055105011      100.62762897501082      109.10886093130971
C          123.01072913658420      101.39679563994602      107.48060966000541
H          121.69604166440764       99.88054767967387      106.72949763696927
H          121.27772701177176      101.50638215234581      106.20056066924944
C          124.00054703764077      101.37803199343590      106.31854635295157
H          122.95335590518695      102.40630894366835      107.89146606569874
H          123.38692854523768      100.74518859935068      108.27233939835668
C          125.44168015669027      101.56299450332665      106.78508934713111
H          123.93369894293276      100.42338402457099      105.79426703659462
H          123.75021253607207      102.17073879446708      105.61197635489599
N          125.63443706223634      102.82656531311545      107.46091624839120
H          125.72633834286168      100.77647846602274      107.48942514112062
H          126.11544934634479      101.51072953855785      105.92050125378233
C          126.27739729791645      102.95180332982991      108.62699924313591
H          125.19920634541602      103.64434755779787      107.04264664671338
O          116.64586024347540       99.57870818446568      108.04835699015726
C          126.43920528054936      104.39104352780943      109.08623734182092
C          126.47589185504346      104.51012732470868      110.60638853014855
H          127.38590575760304      104.74977986574488      108.67140226911587
H          125.63739726602738      104.99702065501947      108.66716895328092
C          126.68263042505868      105.95261933549409      111.05750983110354
H          125.53970314273435      104.12847611707035      111.01636095330845
H          127.28342012313848      103.87916652350155      110.98506069815922
C          126.83356835658529      106.06090002187638      112.57621496497646
H          127.59099391402346      106.34504706281932      110.59417884667631
H          125.84435088667270      106.56203139595715      110.71851678012726
C          125.64904372379725      105.52216672663045      113.35806508724625
H          127.72052290913372      105.51125512196924      112.89860765522889
H          126.96359014103670      107.10918835620438      112.85673858470786
N          124.48711048272112      106.12926913499653      113.14197970629257
O          126.73950509701868      101.99743980077947      109.24956812174139
C          123.28654046085603      105.76087653273774      113.86572738961783
H          124.37914003743106      106.76339103455156      112.35406083427458
C          122.31136002558107      106.92996152761005      113.88580731801338
H          122.84324751694403      104.87055633578557      113.40643316191168
H          123.59589785979914      105.50010789789675      114.88140154390663
C          121.15435088305419      106.74051126647980      114.86458054816669
H          122.87164313763662      107.82022260743422      114.17108523447760
H          121.91878840041529      107.08519325469466      112.88066736364378
C          120.30963744525279      108.01104459182594      114.99951691187248
H          120.51718486062200      105.92606093206948      114.51610558840655
H          121.54971580909752      106.45808502567935      115.84118789917872
C          121.01513375399887      109.13981146295663      115.75655921427767
H          120.05090866882071      108.36154312498083      113.99982039142348
H          119.38181841241138      107.77694423683110      115.52336873802975
C          120.97421718613195      108.93245912663471      117.26626361817819
H          122.05672529699839      109.21998118431452      115.44480052698175
H          120.52902262639303      110.08779938774798      115.52252305797502
N          121.92046368478334      109.79472875210799      117.94478491778750
H          119.96083739281859      109.13008939445996      117.63915043677100
H          121.22704547912579      107.90232810495499      117.53208535833595
C          122.48163118347095      109.46756826599956      119.10972979720671
H          122.21694249791769      110.64021720297872      117.46768709241950
O          125.78018476101077      104.62605006495963      114.19660473951373
C          123.40880568952713      110.50283452641693      119.70499392491902
C          122.64457617719189      111.29656399717223      120.77168870946591
H          124.24235041765387      109.98537687493824      120.18348283722982
H          123.80024136031521      111.16189772339055      118.93221909685040
C          121.63027776581528      112.28474776037352      120.20532261488952
H          122.11907851042452      110.60004010299133      121.42540136256737
H          123.35781862681817      111.84449238078500      121.38934259668974
C          122.29846450067286      113.47461258833691      119.53082827689362
H          120.97063582607335      111.78744475585680      119.49248270280448
H          121.00543772380044      112.63901715125657      121.02774776960277
C          121.32107329481626      114.55108727360714      119.09717870034642
H          123.03352786327464      113.93065702571647      120.19533519937137
H          122.82683745040644      113.14987693436747      118.63053067993339
N          121.93605246739963      115.65366393045545      118.64732627626285
C          121.24187992870617      116.75490308138087      118.01672434098217
H          122.93800979292173      115.74404783594156      118.78022414356546
O          122.23333450293372      108.41057745634171      119.69159793899274
C          122.02476098125958      118.05516029842414      118.13247938165250
H          121.09163340678975      116.52114393735842      116.95287338547114
H          120.25366424339707      116.84976687544929      118.47852126384215
C          121.34890852567376      119.13253522139489      117.29047464594525
H          122.09055966739201      118.35174034810939      119.17844540517180
H          123.04066658892211      117.89468955984987      117.76557990918501
C          122.01118764657473      120.50120689893015      117.40505329529060
H          121.40973881620542      118.81122853680216      116.25304638090680
H          120.29288050515169      119.20069767601420      117.55925047665274
C          121.37926921421297      121.51704871177695      116.43841966898201
H          121.93253525040410      120.85755989220017      118.43231608976292
H          123.06744903874971      120.37553929199433      117.17161346659607
C          122.39347445461533      122.15931364737301      115.49829570979303
H          120.61906918264671      121.01982580018084      115.83773250977080
H          120.88289584599778      122.31832705420267      116.98654487562273
N          122.92861917608278      121.21739295780894      114.53588382330032
H          121.92028462670586      122.96471674947630      114.93099481803291
H          123.21610486940529      122.59752287943057      116.07595870579530
C          123.21084309655390      121.55396168673393      113.27325142996901
H          123.09075207501367      120.26753247078913      114.84661529147694
O          120.10198409489877      114.41798026314238      119.11380377164311
C          123.81363954922853      120.44675270841162      112.42828171927485
C          122.75623138768412      119.44455143935998      111.95640761437870
H          124.29510185365270      120.90805443426095      111.56633245052500
H          124.57076938790770      119.92251656580515      113.01427039386769
C          123.35807469893859      118.32124156510092      111.11131668558420
H          122.27550025239488      119.00471922514033      112.83099597165662
H          121.99261794243154      119.96636942525257      111.37872474182336
C          123.81856746246348      118.79138722632754      109.73018392412682
H          124.20539370642742      117.88039477114151      111.64278892562274
H          122.60942467462199      117.53972505480257      110.97431560963872
C          124.36363515199230      117.63652133521843      108.91075942284014
H          122.95907298894183      119.20040982940549      109.19388579644006
H          124.58227741109738      119.56128956075663      109.81899886473742
N          125.63553416795445      117.78024101485059      108.52713428137098
O          123.01311095765060      122.68124078853209      112.82627734604358
C          126.32812749562370      116.82121487841580      107.69440903455303
H          126.15886758410930      118.59171271634449      108.83853278222755
C          127.76052428125273      116.59007684776437      108.16352828877598
H          125.75931876571411      115.88948328402046      107.72761760928485
H          126.34397884845282      117.18582097673648      106.65940007216885
C          127.84879546425094      116.04707775467419      109.58862076741033
H          128.24004119286460      115.89316502441312      107.47469533654979
H          128.30018233433637      117.53771750866315      108.11140536683101
C          127.22163760905953      114.66174139899040      109.75026714466330
H          128.90304815776653      115.99503602283905      109.86793972645926
H          127.35628288779250      116.74874902754939      110.26279281442140
C          127.71197885593017      113.94462823604333      111.00669936644968
H          126.13413848209420      114.75008629752763      109.78966312984763
H          127.47851971166692      114.04832174032074      108.88375810769261
C          127.33334123193896      114.65122255993835      112.31340544776675
H          127.29030453969571      112.93667752249785      111.03322336059034
H          128.80039725921537      113.84294897661825      110.96311610206710
N          127.74624594089207      113.93118229269383      113.50929024164962
H          127.79684507509936      115.64017100604848      112.35431653658864
H          126.24773900654903      114.78187193727246      112.35999734666433
H          127.37251708908653      112.98480765663221      113.48228859109618
H          128.75744306292182      113.83537965621791      113.50245989310409
O          123.67912398839114      116.65952914717695      108.61316153453252
C          114.70522749318388      123.89048377568488      122.04709919550649
C          113.58843032403661      123.46599672470273      122.97358282361822
C          114.38555132403778      125.22225127227355      121.34782614894642
C          113.35272318050539      125.06038857382860      120.23534081245079
H          114.04232941216659      125.94632702086366      122.08760301302968
H          115.31109219066423      125.60399690914352      120.91189563745338
C          113.24688505430666      126.28944221887387      119.32428872988852
H          113.65863566569696      124.22932808201001      119.59710297790105
H          112.37596281533504      124.80480781731997      120.64554321536556
C          112.39871587928243      127.43809851610719      119.82587262819965
H          114.24927118693877      126.67549985596034      119.12814681684463
H          112.81059412017868      125.95548555660206      118.38050366984224
N          111.09511542677112      127.18302485330075      119.95493071706834
O          113.66997084284264      124.06850154192669      124.14222949807662
O          112.72782655541097      122.66021167523743      122.68659204455464
H          112.89149755802350      123.87573682711022      124.75461194067664
H          114.86622506433470      123.11440423359937      121.29931535699957
H          115.60079486719353      124.01045229823190      122.65705548054964
C          110.14956855051527      128.22577364059961      120.30822703748107
H          110.75522782081769      126.23341011374525      119.83582849038984
C          108.74056783708782      127.92535482735983      119.80946227451660
H          110.12779677919971      128.35658084614820      121.39688109215707
H          110.52227039649054      129.15753605623985      119.86929577429527
C          108.03089463920627      126.92459818901388      120.71866229320257
H          108.17697186555300      128.85811698107332      119.77541565555418
H          108.79529644722716      127.52769244585663      118.79476867614365
C          106.59508356922724      126.62223755204813      120.28861854302137
H          108.60182106597409      125.99620948218325      120.74180397940994
H          108.02072670744354      127.33219581917822      121.73203667682063
C          105.63336451336538      127.73971350429454      120.68549691565140
H          106.55867851673402      126.47750359007455      119.20805045415908
H          106.26768377656418      125.69060634661119      120.75508213777417
C          104.21323099711562      127.49482453419915      120.19594324277755
H          105.61813929413846      127.82908546703028      121.77489311627379
H          105.97243889829569      128.68836398729982      120.26718819933440
N          103.62452721692955      126.30398111597202      120.77377845759847
H          103.58710198106375      128.36011698133311      120.44759462141909
H          104.19873060380668      127.36952435672035      119.11083335235786