3795
 energy: -5103.048449982311 gnorm: 0.000943207537 xtb: 6.6.1 (8d0f1dd)
C          128.66525428246291      115.47858544634498      126.39218781447163
C          127.32079780333139      115.48332089427718      125.70854926285553
C          129.32522617026595      116.84784331019583      126.48970102550493
C          130.71704620593206      116.74520332158382      127.10456561857484
H          129.39396511059300      117.29120431067609      125.49577280240453
H          128.70995946958439      117.50303688383281      127.10635652830024
C          131.37878279658267      118.11674285086330      127.24752565255420
H          130.64787458610849      116.28174201434578      128.09178439449934
H          131.34216816446744      116.10892848693436      126.48030085116388
C          131.46998522649662      118.82740875807443      125.90845259025711
H          130.79341456526868      118.74523796624068      127.92096860797176
H          132.38164256633408      117.99962573520040      127.66129798313065
N          132.36268890535186      118.30548033071017      125.05652322697372
O          127.17257323692752      116.40595822260705      124.78907524462775
O          126.45083298527065      114.68062104459965      125.98729259302520
H          126.26098123844274      116.31973388780111      124.35255767243152
H          129.29929959593119      114.79530045336465      125.82192650191691
H          128.54187893682635      115.03414312763346      127.38079646476361
C          132.63200007964099      118.86869569024773      123.75129210784816
H          132.87994253940428      117.47243187743290      125.30543184426284
C          132.72772794748684      117.77868085855496      122.68884940760162
H          131.82566929653680      119.57308432912254      123.53032487176627
H          133.57465863603630      119.42971158838476      123.78569040339403
C          133.06610813013972      118.34587106859348      121.31169439590923
H          133.49886407762077      117.06613143708822      122.99058499858664
H          131.78028851831505      117.23936899110365      122.63782592871071
C          133.25390046947254      117.23015638372962      120.28502889547596
H          132.26418504949106      119.01087793762578      120.98457281431325
H          133.98034962342615      118.94046755677483      121.37801839562782
C          133.49141976819098      117.77234003933823      118.87420481835638
H          134.10422757740443      116.61192220530148      120.58125962280933
H          132.36264987539099      116.60176818352271      120.29073233489012
C          133.89242428297561      116.67550821305906      117.89076857797313
H          132.58549120624014      118.26669461075679      118.51928237142239
H          134.29013410081856      118.51661340890358      118.89965897927593
N          132.83807271591573      115.69710340352364      117.74237768923791
H          134.11602569925233      117.09482159139783      116.90397497816437
H          134.80453527480597      116.17910885159284      118.24943501396139
C          132.73006431938705      114.85366040587640      116.69872180625590
H          132.13898380544612      115.65924927469678      118.47372668254498
O          130.77709945687462      119.79890349153345      125.64210519980561
C          131.63346892481729      113.81960053433298      116.91589404001618
C          130.94101033627828      113.36129339734873      115.63600141024594
H          132.11415314431827      112.95630826588831      117.38421962107134
H          130.91304591618399      114.22630412869724      117.62300236774233
C          129.84064690437975      112.33781030950925      115.93369432943943
H          130.51157583124177      114.22572680650883      115.12542115645148
H          131.68879433572093      112.92427247070566      114.97262323649107
C          128.60826299117471      113.00216626884041      116.56165574361643
H          129.54692565343535      111.83068798333690      115.01305061834769
H          130.23798781261146      111.58076714783535      116.61397880765858
C          127.70761013277641      112.00392368017819      117.26122497673092
H          128.92726148217290      113.72472911572132      117.31320247339423
H          128.04299278050095      113.52322369677611      115.78702101961159
N          127.10338853459183      111.11885544919654      116.46228646243070
C          126.28557207252825      110.03976707775712      116.97169702433175
H          127.23814059968051      111.15784677860390      115.45786091727868
O          133.45052298319669      114.89136419364351      115.71879194112138
C          126.69040257577807      108.70428296013365      116.34666229851125
H          126.43665954566299      110.01490892020789      118.05194221603080
H          125.22781598891170      110.25531344634086      116.77337823513703
C          125.62221992753503      107.62647470560587      116.51748031806456
H          126.87760794349049      108.85599619819888      115.28076635166865
H          127.61766746887234      108.37083538472611      116.81289103154911
C          125.34667005862984      107.32767178923351      117.98786190899456
H          124.69670946814836      107.94653170588495      116.03236958653422
H          125.96009752988658      106.71515660667896      116.02036738203620
C          124.42371253014582      106.12567715773687      118.17938665947429
H          126.29656041701460      107.15567917663338      118.49375331417895
H          124.87702968867409      108.19835397889535      118.44622742955228
C          124.02605363006649      106.00078244414333      119.64416275063603
N          123.15002288186226      104.87047855450363      119.88130777560106
H          124.90828079219384      105.86180503709315      120.27053324769636
H          123.51717589959014      106.92013286090891      119.95419533487075
C          123.07050960407105      104.24407810335907      121.06247955874535
H          122.49080215593413      104.63953103461279      119.15512024621627
O          127.53495281045468      112.02670360766743      118.47628372883990
C          122.04787123182750      103.12730856164244      121.11262467585050
C          122.62916827045433      101.85485550554449      120.48402534055049
H          121.78315786937092      102.93163254550294      122.15191965171510
H          121.14419883660281      103.42222020874154      120.57871201825856
C          123.65788683606490      101.19713380500329      121.39890970396822
H          121.81570934163867      101.15694963742000      120.28293903744066
H          123.10194363814169      102.09878785345911      119.52953346116550
C          124.41713000778911      100.07634098116301      120.68668141495723
H          124.37182289809537      101.95139819183447      121.73556418095198
H          123.15800759404944      100.78565704016019      122.27791031738705
C          123.51215929203713       98.90174429933082      120.37061782023277
H          124.86362634641985      100.45499049898402      119.76768599031388
H          125.20719166554274       99.70837474634118      121.34423103923876
N          123.27527255987835       98.70246589905845      119.07471377908220
C          122.53183505046550       97.56269390359058      118.58075074923944
H          123.62186417370023       99.36347735025291      118.38802537279157
H          123.52170800348532      106.27032598472196      117.57751373825899
H          124.91747843545005      105.21326724591324      117.83913328243835
O          123.80536564220662      104.52554874510314      122.00109769412930
O          123.05092299641758       98.18377707487259      121.25708689249156
C          122.00686521026394       97.82581135617384      117.17651521092306
H          123.18619137427910       96.68065327209892      118.57013934491060
H          121.70690753481675       97.35063758467844      119.26629897549921
C          121.18905192635587       96.63605836240941      116.67962445805186
H          121.39574159604570       98.72868713139690      117.18867049563126
H          122.85209782282337       98.00392375809426      116.50802803985590
C          120.86524164206831       96.70422118222847      115.18843577512894
H          121.75357592869979       95.72000207052263      116.86686223117509
H          120.26607071985570       96.57093176650521      117.25596295966203
C          120.04803114423129       97.93673336505206      114.80085765074391
H          121.80565533532581       96.70067568253262      114.63242772231011
H          120.30701449735891       95.80536207266009      114.91248402390642
C          119.50062226709238       97.83690867945126      113.37400408481213
H          119.20562582445504       98.04770795792464      115.48535392957352
H          120.66931044654328       98.82934195887017      114.87906609953207
N          120.55781163166185       97.68009647880476      112.40194834273277
H          118.81516931396990       96.98704521500501      113.29332767786768
H          118.96583851161169       98.75281749008960      113.11300348786492
C          120.94864048117535       98.65066290316824      111.55666598907223
H          121.11193729814474       96.84216010491579      112.46984258362809
C          122.20097389636642       98.31309171572465      110.76918258889495
C          123.44096239674484       98.30476508470576      111.67212858352219
H          122.07925672167293       97.33249105700335      110.30388862059938
H          122.32672542596572       99.05339630232642      109.98089172593387
C          123.66794142565035       99.63538442677861      112.39261278463276
H          123.34014767766230       97.51347656119175      112.42025233581475
H          124.31661843595886       98.07038489223829      111.06339608681886
C          124.12015219854173      100.75854340541494      111.45444128677811
H          122.74436408652235       99.94551625734574      112.88606363799867
H          124.41984047679998       99.48548803918673      113.17007513955589
C          124.44911285929169      101.99675715267806      112.26362374693996
H          124.98728916519669      100.45796984518083      110.86733849368197
H          123.30396820210386      101.02332376954826      110.78218542139982
N          125.63491782859609      102.02924103516980      112.88815206165376
C          126.77426301083888      101.16610747413175      112.64497753975721
H          125.81913138138437      102.88187428324431      113.40948184010685
O          120.33595447368641       99.69832170517351      111.43335355913061
C          127.97774972213553      101.61559071544423      113.46937178179353
H          126.52116921654141      100.13381861936666      112.90998191624024
H          127.03090460330894      101.19683555505335      111.57917632581956
C          127.73348952641089      101.54788664001745      114.98859430440918
H          128.82605900879494      100.98965699668932      113.19060074895822
H          128.22652842626349      102.63954103146854      113.18606144516001
C          127.91652653190894      102.91959956327179      115.63811538307040
H          126.71712260070137      101.19659437990826      115.16587806196327
H          128.41538871228624      100.83078712952850      115.44990588485176
C          127.60450706692340      102.97678868147722      117.13607315078967
H          128.95062230856749      103.24376156455561      115.49943671483953
H          127.27996532906873      103.63709851078768      115.12267146532893
C          126.27375150366422      102.34657184790788      117.54460992036145
H          128.38814187843857      102.46635717227470      117.70021931552346
H          127.61304375628318      104.02673163268889      117.43627833107264
N          125.17371316506879      102.67963205759324      116.66051643922820
H          126.35712133568119      101.25416156192048      117.55899777824681
H          126.02743199891979      102.66567258461933      118.56661167903695
O          123.63965625941502      102.90597750055979      112.39908186723005
C          124.12832463617592      101.85161148344577      116.53310261351481
H          125.28929737158528      103.45057257008885      116.01384692872927
C          123.09704582715453      102.27854136782523      115.51359770616581
C          122.04072605195594      103.20684507017189      116.12363134233307
H          123.58975435291042      102.79606117205955      114.69284330253149
H          122.60705980202002      101.38707123397216      115.11993441143827
C          121.00026093006004      102.46029170440301      116.95196535096217
H          122.53816042349183      103.95998655030355      116.73970664943373
H          121.53051478128781      103.72405993091863      115.31003418132833
C          119.96089448478224      103.42365974860589      117.53560557889378
H          120.48813861811001      101.73858811068787      116.31076408589664
H          121.48145449662258      101.90586528910846      117.75839719102814
C          118.88686335911670      102.62468646871282      118.24625162154794
H          120.43818350490622      104.09152719966281      118.25572012683021
H          119.51970733940887      104.01845094079808      116.73570552226714
N          117.70317161978920      102.60242079677545      117.62785048191859
O          124.01156144129341      100.83729453170048      117.21624564427421
C          116.60109344438938      101.77153680647459      118.07149532784163
H          117.52028040731653      103.21838159352117      116.83424417112866
C          115.55107036366023      101.69362037487504      116.97126792261230
H          116.99897761444582      100.77724745538310      118.30043487670370
H          116.16303586653444      102.16793163620048      118.99494272640797
C          114.51883875338550      100.59254002730833      117.20120205217722
H          115.04527817534102      102.65756836709899      116.89159244693545
H          116.05883584091531      101.50794964809789      116.02154309810368
C          113.53197784069640      100.54099345344002      116.03521021725967
H          115.03141031324445       99.63019564104783      117.28025907321533
H          113.98945871506820      100.76019523551741      118.14089477226176
C          112.67067781235681       99.28031864691472      116.04131296018868
H          112.88647123797787      101.42048406891908      116.06708904169464
H          114.10634253921232      100.58134994518917      115.10694911447828
C          111.73184824749328       99.20243771197674      114.83492719991258
H          113.31653973393492       98.39876431945738      116.04422872459466
H          112.06719186794608       99.25415137650508      116.94977083703702
N          112.46770957272736       99.07593374332453      113.59702343984974
H          111.10107948472292       98.31670879002884      114.91706344179345
H          111.08826640607127      100.08461194714836      114.78176173107910
C          112.31416082657485       98.06419909572750      112.73513682855001
H          113.10631800105168       99.81980938382442      113.36725728712292
O          119.11193726532292      102.01052512206036      119.28362263890111
C          113.23989833565639       98.06553900882949      111.53326827317186
C          114.54235220165513       98.84658168950705      111.69279197643527
H          113.45373034571820       97.01941149246237      111.30193811561080
H          112.67491526501811       98.46493431533820      110.68657106876347
C          115.45134405531408       98.65390278349584      110.48108555620617
H          114.34461985605904       99.91642958404775      111.78269533817100
H          115.06422101465300       98.51554138194282      112.59470082026981
C          116.64061030050196       99.61334520229069      110.51529640455236
H          115.80397274797053       97.62146652399490      110.43359587590462
H          114.87960857834857       98.84983886881066      109.57256420769227
C          117.30753182384288       99.73676416445811      109.16157766421604
H          116.26803915934615      100.60385233059942      110.79095408740375
H          117.37660974321321       99.31070316350579      111.26039979431518
N          118.59704171526221      100.08632156289715      109.18960623773869
C          119.38896471372939      100.21545489048950      107.98416842401032
H          119.09535413502539      100.15559754613496      110.06940231870922
O          111.47495690100065       97.18391007283046      112.89072411833601
C          120.65252049901724      101.01939503803833      108.26158506358001
H          119.66021611483197       99.21541463912841      107.61602773618245
H          118.77275819989767      100.69482146461534      107.21780075620249
C          121.68041669463396      100.88589791779171      107.13995538401515
H          120.39271625535022      102.06718760839368      108.40943979055888
H          121.08437423446492      100.66170750977582      109.19709648442443
C          123.06114407851324      101.37828180983567      107.56928989437539
H          121.75891125286989       99.83611349124546      106.84497423803309
H          121.34388084491056      101.44410357483297      106.26425465229661
C          124.05999319609285      101.35096962105592      106.41547001714568
H          122.99268398319084      102.39360775213656      107.96211566766858
H          123.43636843902618      100.74180026173906      108.37316208117551
C          125.49345144352911      101.57012567656557      106.89400997323268
H          124.01115677595263      100.38519396643115      105.90787587589038
H          123.80144148612899      102.12507128783119      105.69087655561600
N          125.65859946396937      102.83666848143201      107.56525358971251
H          125.78431465264069      100.79402842055273      107.60727064394345
H          126.17413664372486      101.52238024977760      106.03382468707426
C          126.22019390788313      102.95149601216671      108.77938339396539
H          125.25739216091787      103.65658389625220      107.12061359091454
O          116.70589838199264       99.55331414777946      108.10800180198663
C          126.39610800344099      104.39248340785397      109.22993686823006
C          126.40039492944382      104.51934414966807      110.74972831515474
H          127.35777899082649      104.73200354029713      108.83272383623049
H          125.61618371065023      105.01062360647160      108.78764040176186
C          126.60874096994600      105.96178468121765      111.20045977202348
H          125.45239777905162      104.14861069888693      111.13937137946995
H          127.19541426578182      103.88601488026762      111.14716923817485
C          126.73083998051983      106.07512414952998      112.72213531347627
H          127.52949356216369      106.34794843677928      110.75523516298766
H          125.78377854830912      106.57838045121328      110.84213686264025
C          125.53061250073488      105.55165994717659      113.48771621416626
H          127.60737232625287      105.52036317462999      113.06378389797077
H          126.86565107377953      107.12380492039928      112.99981388401699
N          124.36957091324508      106.14805502921794      113.23360796238353
O          126.59807061961166      101.99328317083322      109.43675248842743
C          123.16398500446928      105.78016353526624      113.94794678173531
H          124.26976094018731      106.76685183299666      112.43308185527077
C          122.17830222608822      106.94133045368547      113.94259012909902
H          122.73364865466580      104.87956410066444      113.49713097424959
H          123.46507694282060      105.53793662636845      114.97094685741699
C          121.03034042933191      106.77278729736811      114.93575775596571
H          122.72959600152808      107.84688796948207      114.19692984266905
H          121.77464745693825      107.06699814371456      112.93699680666080
C          120.17939263941480      108.04236345654209      115.04010186348160
H          120.39617652931821      105.94199881433845      114.61898738538933
H          121.43475155478576      106.52445413878606      115.91844011949229
C          120.87894138383137      109.18532493802397      115.78101032647534
H          119.92394391982164      108.37037243809310      114.03032659380584
H          119.24690784673031      107.81617181852332      115.55989911165351
C          120.78997005859988      109.02853164265849      117.29564764765708
H          121.93028755150836      109.23799196790857      115.49725535408803
H          120.41621545764710      110.13200849677152      115.49827461666945
N          121.74873928552054      109.87576948381874      117.97209942278245
H          119.77316507837216      109.27261964325663      117.62984190789216
H          120.99793100430843      107.99752531508808      117.59650098503749
C          122.32027041094298      109.52167446966205      119.12681222611278
H          122.08253432012704      110.69886198994662      117.47793219912937
O          125.64159374540114      104.67437358715220      114.34576076197283
C          123.27635808734479      110.52739770587644      119.72018323132875
C          122.53717457336455      111.34881723568314      120.78553281527785
H          124.09153355384728      109.98421624346004      120.20199596544413
H          123.68989549725288      111.17160275771683      118.94645203715277
C          121.53189394985390      112.34592176833458      120.21778449641454
H          122.01037658272023      110.67146485714500      121.45716607132063
H          123.27084687544379      111.89283689036088      121.38187727989126
C          122.21386770176582      113.51218379238411      119.51520687192651
H          120.85429138251408      111.85088402936599      119.52160937268739
H          120.92762899718251      112.72524699932006      121.04324561457118
C          121.24811231373552      114.58546406444636      119.05226246626675
H          122.95496141352147      113.97575354994660      120.16722324737246
H          122.73794716173748      113.16028719837193      118.62264245140666
N          121.87983866361427      115.67974509566484      118.59956050037312
C          121.19644280224428      116.76628885257374      117.93594096307045
H          122.88012529731472      115.77275206112793      118.75553765857430
O          122.04787008769887      108.46736604969217      119.69918411493867
C          121.98061223157698      118.06672136082025      118.04243179612972
H          121.06214538427217      116.51721184820335      116.87331371663734
H          120.20195485700667      116.87350030030007      118.38104377778835
C          121.30537002677380      119.14395039299175      117.20059467297050
H          122.04750322459360      118.36934066346900      119.08663998179870
H          122.99578519017545      117.90738912184686      117.67467859792232
C          121.93497781483741      120.52306903864375      117.35866911681761
H          121.40159790172511      118.84707611100468      116.15836357881609
H          120.24146320703713      119.18980287902795      117.44308743363555
C          121.31682040562161      121.54392830597415      116.38955283964587
H          121.81582756328024      120.86067749950934      118.38948979502959
H          123.00105750085052      120.42507550234612      117.15908863888568
C          122.33770671699766      122.15636160232336      115.43665371396455
H          120.53950509258183      121.05789357869875      115.80141597287675
H          120.84266952847392      122.36150912876951      116.93380924162473
N          122.86068869786412      121.20628031040566      114.47742472998357
H          121.87300396447527      122.96110405704398      114.86206556689329
H          123.16735418324950      122.58976389690190      116.00952330022635
C          123.07712561777288      121.53231709299887      113.19576660858189
H          123.05950701938443      120.26475294809856      114.79390179221311
O          120.03155106114545      114.45781675791400      119.03930245612176
C          123.70598590172625      120.44264434378589      112.34832852556947
C          122.68411460023134      119.39446422667001      111.89905209250344
H          124.15010159734304      120.91845339676647      111.47492686497161
H          124.49521437291668      119.95274139198197      112.92157221346643
C          123.32572140402795      118.28911091268762      111.05914939481868
H          122.22730044572670      118.94684719802822      112.78235598356599
H          121.89626133804320      119.87949713841725      111.32102569161280
C          123.73869066151637      118.76853925127597      109.66572530849507
H          124.20354977133543      117.89895957769355      111.57963697651320
H          122.61504811359806      117.47000015258962      110.94371240550213
C          124.31555735070056      117.62952225667892      108.84762370264492
H          122.85310138171663      119.13992634743570      109.14456451385576
H          124.47485722902866      119.56617981352362      109.74044720935429
N          125.61393178245984      117.76141707907721      108.55715171621094
O          122.80706302104804      122.63729178196056      112.74091580151298
C          126.33304379772109      116.82496533194650      107.72393996956880
H          126.13100776832511      118.55118102923970      108.93473926282199
C          127.75482624432907      116.59501505513191      108.22341715207665
H          125.77165777754972      115.88737465960541      107.72091697249671
H          126.37173190015459      117.20830372666646      106.69471024364910
C          127.80848716184032      116.02966095132572      109.64085595047804
H          128.25757190160414      115.91297836190826      107.53491154516232
H          128.28903195018319      117.54669810619653      108.20074540297924
C          127.18576889135927      114.63869773240322      109.76460742045585
H          128.85532650629420      115.97917046695618      109.94779246126544
H          127.29181675873389      116.71743068575751      110.31068261440755
C          127.64267185901868      113.91158313198952      111.02745157750604
H          126.09696038676279      114.72008462945732      109.77050903120684
H          127.47202790799427      114.03776185176093      108.89747190828871
C          127.22960295447207      114.60943738177696      112.32929359208863
H          127.22062332257704      112.90381633585895      111.03397018410190
H          128.73184705917660      113.81110745117122      111.01126168816489
N          127.61981493883376      113.88494906927293      113.52704298827167
H          127.68734661254943      115.60080513030717      112.38485612830155
H          126.14260245942346      114.73583677861149      112.34885083917666
H          127.25122092253433      112.93643380422107      113.48980223464368
H          128.63156822254527      113.79344044376225      113.53889353898219
O          123.63796870500840      116.67499960352792      108.47726470982829
C          114.72850092811318      123.93019748151056      122.00224625091661
C          113.63324547819887      123.45283798341863      122.93476391468414
C          114.37232569378207      125.26210238428970      121.32333606234343
C          113.34857172733992      125.08786277471047      120.20409784220372
H          114.00631757704868      125.96203712531218      122.07473550883132
H          115.28763414347185      125.68005840269433      120.89743664211639
C          113.24323480259065      126.31366028404176      119.28745535686383
H          113.66961392732462      124.25968401280412      119.56970506043629
H          112.37162935910695      124.82474765023663      120.60634383637613
C          112.37927625833777      127.46200198133960      119.76056113925810
H          114.24476235725079      126.70844993095453      119.10266511926157
H          112.82377740415538      125.97009081583259      118.33908772191539
N          111.08594987850864      127.18571518117440      119.93020527593563
O          113.65425989834121      124.10519614080974      124.07570376786349
O          112.85517493199556      122.56504734190105      122.66852785415590
H          112.88489232738918      123.88004122378916      124.69614716954757
H          114.91191370083403      123.16725306810464      121.24532001538977
H          115.62575266284634      124.06666647761446      122.60781808937651
C          110.12919966677647      128.22456480525685      120.26024769318212
H          110.76109447579510      126.22234662215048      119.85589104031915
C          108.72416227081750      127.90314400588296      119.76294668015078
H          110.10103729251121      128.37337234105959      121.34640366224711
H          110.49238069275977      129.15411534099576      119.80761604729433
C          108.02439270894200      126.90911734154226      120.68671787502210
H          108.15344530767121      128.83070673237910      119.71287981355087
H          108.78470118544259      127.49256524809526      118.75344997929270
C          106.59066032363130      126.58766246477245      120.26378998546186
H          108.60496703512094      125.98844433366325      120.72341237167238
H          108.01078084354593      127.33547348585738      121.69205191740193
C          105.62125563510308      127.69753039993631      120.66301961652685
H          106.55074543592491      126.43979287967164      119.18355084524062
H          106.27385188782020      125.65634460119749      120.73644334673887
C          104.20152601662244      127.44236079764060      120.17776079209474
H          105.60797603571298      127.78541120951596      121.75271797562127
H          105.95331735203153      128.64927309888571      120.24550759620989
N          103.63120064248041      126.23153842392060      120.72799915306865
H          103.56570408036742      128.29453380713528      120.45292023948170
H          104.18065052109813      127.34231717764295      119.09009661789986