3536
 energy: -3716.239630545442 gnorm: 0.000964975060 xtb: 6.6.1 (8d0f1dd)
C           59.92426511124865       70.13986610718653       42.73541389400222
C           60.30744427149400       68.78864939541828       43.33748197984571
C           60.18878930885621       67.69834978220342       42.27534850119397
C           59.41605112292984       68.49493453176589       44.54952173872010
C           59.89005058584468       67.34903335786589       45.45324683836667
C           58.73155402086709       66.89619849455680       46.34094724009654
C           61.08467641775240       67.78509214497822       46.31143839052541
C           61.88607618743766       66.61967136165302       46.90725291590817
C           62.67197083424734       67.09271944136715       48.12793392511813
C           62.82243687549678       66.00538120100876       45.85878004816375
C           63.36769475408243       64.61921597570418       46.25054103630940
C           64.86427523041120       64.68572291825873       46.55994055695189
C           63.14124323837608       63.56964486011226       45.15352785619697
C           61.68135489993146       63.24627706535973       44.80518469330256
C           60.89036190441561       62.81984809289576       46.03949844656468
C           61.66253379297396       62.14272148359213       43.73549744095213
C           60.35768576361976       62.04426916816270       42.93228154851458
C           60.29166734423379       60.68497873286019       42.23648092452933
C           60.26729195500448       63.17887576340286       41.90330021298531
C           58.84987163445723       63.51836610066940       41.41547570947539
C           58.95641049119389       64.40777650645708       40.17719396000330
C           58.05357064892325       64.20320555087459       42.53483099794416
C           56.66237050020062       64.74365879879898       42.16997395846692
C           56.11696695020220       65.51652815891187       43.36995483105400
C           55.71745513696175       63.60797082096777       41.76360839975692
C           54.31958664712400       64.01929496371348       41.27058495609820
C           53.51862753293637       62.75215841076459       40.97710122060960
C           54.44369523882510       64.93421135048131       40.04244257374385
C           53.21905950942777       65.09676100667950       39.12643384090005
C           53.63992080291079       66.01712846799134       37.97736540495897
C           51.97745411004524       65.63972463881424       39.85736329260845
C           50.64811727580625       65.02772083692861       39.38906748798525
C           50.27013932426446       65.47800227320830       37.97902004431930
C           49.51197112890546       65.38222393739917       40.36327347933998
C           49.43017916711351       64.49506945765492       41.61258902334482
C           48.92056754636210       63.10046598991301       41.25517743897355
C           48.48808136135373       65.12002091553718       42.65359263597988
C           49.10930764359395       66.25969867295622       43.46600195216028
C           50.14256021844307       65.72212694332920       44.45329581123379
C           48.04430810608082       67.06628976517332       44.23241959299662
C           48.31390074590271       68.57822025047291       44.20350578697637
C           47.56299621186270       69.25996767292148       45.34713039124760
C           47.90469667345810       69.16630234497995       42.83955884135133
C           48.92071378056423       70.11330324196284       42.18382620550863
C           49.17557412598084       71.35212372319859       43.03811100999610
C           48.38303665185803       70.49217196968149       40.79479854106723
C           49.33955245316368       71.24405175880676       39.85690291735412
C           48.54661627898771       71.75931907373953       38.65601033244872
C           50.48239748159659       70.32768853176816       39.40882752330074
C           51.56497390474180       70.96327279735770       38.52479876680312
C           52.63049821888956       69.90633699114866       38.22984515966846
C           52.15199953525655       72.27730926910864       39.07465786135614
C           52.62868138115058       72.30508150466932       40.53604444758387
C           52.51027205713168       73.73228842955920       41.07533001063621
C           54.07366398782163       71.81098850547966       40.71532764470307
C           54.31592907867091       71.12506995425147       42.07007341477453
C           55.81186925424425       71.05184836375955       42.36708338956129
C           53.69234336414090       69.72683131444114       42.04448306176216
C           53.66540108147970       68.92633522966602       43.35390929475054
C           52.92755366844686       67.61870569658535       43.06299574656809
C           52.99103773860230       69.71598895113870       44.48339245344773
C           52.65486463661045       68.90879570189743       45.74657302391343
C           51.89938885669563       69.79939306778653       46.73120532977838
C           53.92231179669870       68.31895720014677       46.37453343945959
C           53.73163302193731       67.49050926303364       47.65383557136263
C           55.11130638032593       67.05948981885270       48.15437221109070
C           52.83269643316366       66.27236844126413       47.41261718401459
C           52.33565803496105       65.57765751014202       48.68541975511640
C           51.78682319276596       64.19444207366445       48.33992122774134
C           51.24626559141225       66.39370716796775       49.39844443614194
C           51.28103681445676       66.21585526152464       50.92415970857947
C           49.89020130616081       66.41615498681381       51.52179462431977
C           52.29342920758641       67.19979308466404       51.52163936695226
C           52.68053590245985       66.99181106498031       52.99132423265245
C           53.50476291730705       68.19835004472667       53.44523801603420
C           53.48881002185504       65.70350800503948       53.21841923656979
C           52.67658190300553       64.47685635553914       53.65152909148033
C           52.22549139765403       64.61404349916525       55.10430265586004
C           53.51531311507296       63.19936699620580       53.50889874546791
C           53.73070933649174       62.70962237169203       52.06965922635783
C           52.47158504257585       62.00818353304576       51.56551884216877
C           54.94317251607934       61.76954105813810       52.01625165929463
C           55.45850149560932       61.44590862605227       50.60597850860081
C           56.28507882714677       60.16262935207904       50.64752393612687
C           56.28574626401694       62.61427806319888       50.05872195198637
C           56.60904494319197       62.54894237689948       48.55975106415529
C           57.70598927303599       63.56162165306125       48.23503078585632
C           55.35605610777883       62.82012405303774       47.72137645589199
C           55.48140998258134       62.37457789863852       46.26727637975082
C           54.17698321451042       62.58471941917556       45.50749783215197
H           58.88016565732328       70.13525321569392       42.42944440101594
H           60.06388202784009       70.93841466035134       43.46091533757100
H           60.53680382893815       70.36036683460131       41.86397880101160
H           53.36936986661069       62.03029328545897       45.98092002119423
H           53.90377862462967       63.63776596502912       45.49151717292189
H           54.26072479404307       62.24396086181665       44.47771227352793
H           54.51199963938537       62.28575257888933       48.16077342262111
H           55.12729555898225       63.88723400658821       47.75951169678056
H           55.75068118097023       63.54777780956938       50.24423912942766
H           57.22183450446008       62.65703504523879       50.62158703836792
H           54.60147112722134       61.27284675209552       49.95063282162872
H           57.10930117626776       60.26776033291198       51.34863434658340
H           55.66847401010894       59.32797674346752       50.97007366832715
H           56.69028287547316       59.92455958670251       49.66751457661518
H           55.76713185574673       62.21254217252027       52.58110335875543
H           54.67089096121001       60.83794997414028       52.51578220879287
H           54.48329291864027       63.38044858210143       53.98305472502339
H           53.02183706285570       62.39869741865607       54.06512676202188
H           56.98321793312565       61.54983903561661       48.31466951463697
H           58.61227652780617       63.33700499318717       48.79408866464781
H           57.94996974745126       63.54644103553475       47.17626968103931
H           57.37766857208621       64.56619503267834       48.49626170084598
H           53.92625626076205       63.57098022694468       51.42478708407062
H           51.60434110090196       62.65494583077707       51.67407349249577
H           52.56192075634726       61.74543861622212       50.51512926493329
H           52.29013132299998       61.09945282488647       52.13656040529200
H           51.78428679982136       64.39006359004074       53.02833964054206
H           51.66764249034713       65.53503805981572       55.25480713625694
H           51.58629773385468       63.78045309000633       55.38627493879176
H           53.08919276324885       64.62326036334193       55.76560440880861
H           54.03477626109422       65.47412770216374       52.30224795829485
H           54.23576460208999       65.88697241741102       53.99450798127013
H           51.77135245092809       66.96197136052014       53.59754496667041
H           52.94564223696047       69.12229974966630       53.31198506217623
H           53.76900054746614       68.10588305119684       54.49553979681747
H           54.42158319488590       68.26872117886158       52.86254276649088
H           53.20873453648250       67.16474305791650       50.92546212250488
H           51.88032260768518       68.20715949116780       51.41592761892597
H           51.60477547780995       65.19388013035878       51.13506102673502
H           49.52365323364744       67.41832092925414       51.30883742492695
H           49.18804307002345       65.69884153423148       51.10052768356417
H           49.90537817667055       66.27954863109146       52.60056820243258
H           51.35232759163863       67.45544090763897       49.17101704093058
H           50.27315661527226       66.08203563619858       49.01281852102984
H           53.18029877961354       65.44403372167280       49.36742890955782
H           52.56947089449535       63.55714977177030       47.93834813025211
H           51.37638286316972       63.71878063057853       49.22678257793417
H           50.99724084011418       64.27950133399325       47.59508133063500
H           51.95374992135832       66.56971496580812       46.84193504046121
H           53.38693757254745       65.55181709931335       46.80617065178975
H           53.27771354446601       68.12444783847708       48.41993957603851
H           55.60835729147902       66.43720390530845       47.41247067390186
H           55.73897651922752       67.92891461086735       48.33845965056023
H           55.04046495752304       66.49723453370605       49.08240863615138
H           54.41839281322622       67.68301162967990       45.63883650678647
H           54.60110060444795       69.14353058337073       46.60441530179259
H           51.98371901104822       68.09897649510202       45.45396570829470
H           52.55275695587483       70.56918687858942       47.13527245447754
H           51.05929477754533       70.28146172183234       46.23380966386518
H           51.50273782924341       69.21834488564588       47.55928247977608
H           53.63877631475071       70.54803686538908       44.76862307224928
H           52.06045630814842       70.13904354658257       44.09364965717678
H           54.69321609840744       68.69118374631056       43.64519808962459
H           51.86895900690762       67.81049820152170       42.90092427356748
H           53.32583987063995       67.15943334948174       42.16071289615675
H           53.02700438615584       66.90999858604194       43.88001758891930
H           52.65995313070270       69.81483045481001       41.70090766598882
H           54.23355198342272       69.13331315129435       41.30124395098429
H           53.83602392010228       71.72483345663785       42.84858723819501
H           56.24830385958512       72.04828350160636       42.38174877001812
H           55.99426424588787       70.58888570552888       43.33360351267891
H           56.31941222525889       70.46755142837735       41.60151452066970
H           54.33814944372880       71.11285591719087       39.92238353446645
H           54.74568274448096       72.66731205927455       40.62292123513827
H           51.96527073851247       71.67583897523363       41.13135621854497
H           53.07025974560879       74.42256267827838       40.44710033167738
H           51.47165718346302       74.05816549629726       41.09516690990746
H           52.90366472147088       73.79317826474373       42.08650240217564
H           52.98121583311533       72.57642921744106       38.42816859726397
H           51.37975800015945       73.04221342667648       38.96480287307669
H           51.10704250251588       71.22374181560033       37.56313056433604
H           53.43681631551578       70.32503439706154       37.63140569583049
H           53.04671590252790       69.50527835114124       39.14955464333006
H           52.19110303721572       69.08092199522666       37.67232898176691
H           50.96448733625780       69.90425714292324       40.29066952183103
H           50.04964310452910       69.48990349262269       38.85404030761605
H           49.75086943469292       72.10553453883321       40.38701300411420
H           47.72203318101725       72.38813358432907       38.98569118616545
H           49.17510925551825       72.34949717918624       37.99462512409069
H           48.13525104555912       70.92736321814097       38.08755597313525
H           48.06386073262118       69.57898855584729       40.28455519125293
H           47.49154103004511       71.10723324109063       40.94259949777782
H           49.86458121960885       69.56797990422652       42.07293998010419
H           49.55767077541329       71.07423550541920       44.01722003774632
H           49.90852269882671       72.00445962508599       42.56940304612669
H           48.25438921462573       71.91487702475463       43.17488802210296
H           47.73240912740153       68.34364659181034       42.14240854598805
H           46.95558068770608       69.69554041984679       42.94893237987583
H           49.38720440777303       68.73368329326071       44.35734972759634
H           47.68764859659603       70.33877171094649       45.30907740352220
H           46.49934951454688       69.03807317821443       45.28338371918030
H           47.92801470027284       68.90676396828204       46.30994041271302
H           47.05150372151148       66.88284525159047       43.81642694803215
H           48.02165184683085       66.72657054951434       45.26976879759552
H           49.61466632002121       66.93608393868836       42.76999279077774
H           50.52074388582300       66.53243732051124       45.07085468684980
H           49.69024425733647       64.97947727698576       45.10738080418174
H           50.98464740595833       65.26067447798795       43.94447973196382
H           47.60147443190181       65.48669836220881       42.13000199685082
H           48.15502156795657       64.34573475595484       43.34718116688357
H           50.42817404931297       64.39194987724056       42.04726925564876
H           47.90163284093427       63.16148382978626       40.87737189093571
H           49.54136559735933       62.63346557397131       40.49585437975889
H           48.92578877164147       62.45707067409813       42.13226774693285
H           49.63004860326073       66.42576534894046       40.66198159040457
H           48.55657747690939       65.30308471767911       39.83854025539117
H           50.76250453291763       63.93891930464700       39.36813207073526
H           49.29778579853260       65.07499542798786       37.70162680224685
H           50.21832492161093       66.56371022298578       37.92585796172337
H           50.99263588458932       65.12501064766145       37.24849643484036
H           52.07566067891857       65.43592493188268       40.92343409286720
H           51.93036349740848       66.72447954769258       39.73839714756331
H           52.97448714407448       64.11743146949257       38.70441354487819
H           53.96426166449432       66.98100842233748       38.36519957233576
H           54.46903099451116       65.58052978536490       37.42293439240252
H           52.82507925745488       66.19109631315030       37.28261299708964
H           54.74530080810990       65.92803318160453       40.38219696495654
H           55.25457425472013       64.54702168025423       39.41846612595334
H           53.80781140255925       64.55689540331245       42.07463533818449
H           53.53124424880333       62.09280814366909       41.84285839983761
H           52.48292364390415       62.98419980616082       40.74899159732608
H           53.94791253579702       62.21756287318925       40.13398726497967
H           56.19027087114597       63.02889888822195       40.96743611441463
H           55.60022484068276       62.94543480669613       42.62385332647942
H           56.76752369827935       65.44394796774911       41.33853652475982
H           55.98712634993606       64.85392110746304       44.22327063424121
H           56.80762079023800       66.30911994981052       43.65165522637415
H           55.16054075712336       65.97283451440276       43.13878616491729
H           57.93297822361690       63.50058412729263       43.36244920217206
H           58.64787135333505       65.04261924391230       42.90384188872605
H           58.34770634062165       62.58885642623554       41.13066221140897
H           57.98290551199462       64.57601108213528       39.72578985027972
H           59.38942511609756       65.37077546403552       40.43832043503986
H           59.59309964936162       63.93986142366354       39.42923472252332
H           60.70463942535045       64.08771703537893       42.32135929159099
H           60.87909544817386       62.89998772227696       41.04161334716479
H           59.51337836648206       62.11745574545003       43.62223479121928
H           61.17418671195995       60.53524365078229       41.61733401519499
H           60.24528668441094       59.87944564658578       42.96614887999923
H           59.41377561052452       60.61614832370022       41.59971385462112
H           62.48158631197433       62.30924945644342       43.03148447752941
H           61.84970801069301       61.18470246058442       44.22650009703130
H           61.20487487345441       64.13954090294691       44.39164366107569
H           60.68751464736504       63.66990531909223       46.68472074764279
H           59.93609778989651       62.38464626735416       45.75202365846815
H           61.44708076628753       62.08053550144211       46.61055166716801
H           63.64797988765565       63.90836871681528       44.24570785303972
H           63.62564169776615       62.64044625778246       45.46752231994984
H           62.85731978491474       64.28405390362812       47.15752724952628
H           65.42475209960888       64.95716410959257       45.66742022107955
H           65.06764719137122       65.42573276272667       47.32963925589186
H           65.22764567087840       63.72120396582667       46.90929392495273
H           62.28522217174358       65.92766336928103       44.91395234023793
H           63.65444737065746       66.69241644943946       45.69069032784188
H           61.18262014839792       65.84957805378384       47.23917433270174
H           63.37276464328819       67.87727507761130       47.84917308097803
H           61.99590188522688       67.49040809646051       48.88177218604051
H           63.22781247229410       66.27133468742247       48.57287810764878
H           61.76359429226579       68.40056078245649       45.71881894119252
H           60.70698662609252       68.41315755955253       47.12095386530235
H           60.18752964508934       66.50137171970731       44.82963209024086
H           57.92342169575485       66.48737519485636       45.73913634407699
H           59.05107453646774       66.12861104274108       47.04001090675699
H           58.34147133706706       67.73635704654232       46.91169926984765
H           59.34130328168456       69.39655604421040       45.16096947968552
H           58.41137498604391       68.26815100529376       44.18309632690430
H           61.35207319865140       68.84104262582359       43.66163477446940
H           60.51289568677170       66.73597790847680       42.66372269396619
H           59.15706789802424       67.60726949985040       41.94051040556475
H           60.80942703647451       67.93748150936057       41.41424587058286
H           56.28165563171132       62.92832605247347       45.77180053070549
H           55.74908235659550       61.31565418584646       46.24370649156310
C           38.07124538856321       43.35556071004858       42.48814949154949
C           39.54226135490968       43.73342375736835       42.63943385343958
C           40.16571450328275       42.94584228286232       43.79134336293757
C           39.72218745367293       45.23513585690819       42.89216185952750
C           39.26287601659138       46.16799934087970       41.76463832204274
C           39.96392336275351       45.83595070497549       40.44623279705249
C           39.56362331094897       47.63451112388572       42.11300648393298
C           38.85847501721517       48.20722487128427       43.34806079833419
C           37.33949578209807       48.18255690541751       43.18007346340619
C           39.30544616571863       49.65448064059947       43.61154675820476
C           40.80528745389509       49.86221154907833       43.85257700909168
C           41.33225084685881       48.93711948135395       44.94853275762078
C           41.11423837887430       51.31408450947428       44.24679401171860
C           40.75817018163035       52.39903838549601       43.22253907682821
C           41.42454412383199       52.13192316288247       41.87476034569992
C           41.19473930280865       53.77606895702559       43.75244539572301
C           40.20365570791765       54.41807500234644       44.73244161026497
C           39.07744943548735       55.10872201964922       43.96236204097810
C           40.89211560137337       55.44233046587640       45.64760109171817
C           41.78244012565883       54.85412723196507       46.74811693888221
C           40.97524486107626       53.95789383538425       47.68701947795461
C           42.42739415022078       55.95770458714588       47.59942002423269
C           43.37967536241212       56.93121907219896       46.89684313367565
C           44.59073882416761       56.19124652697720       46.33200605469973
C           43.85628058203827       57.99906480645731       47.89331470850713
C           42.79063104683819       59.03580620508779       48.29095605045066
C           42.97096083956966       60.31913552025827       47.48080704846780
C           42.85253529276124       59.34970150610719       49.79254624454803
C           42.30353048176465       58.22135197349497       50.67976122230108
C           40.77673069021906       58.25933298315761       50.70428398129633
C           42.87973835341366       58.33331672476076       52.09665628225174
C           42.60796616909696       57.14279897802128       53.03000974706785
C           43.01017623925523       57.53153994790852       54.45231842610075
C           43.38357265024100       55.90879172991706       52.55543849902713
C           43.17535787186475       54.61757967387072       53.35886922915232
C           44.25727275967463       53.61733740275431       52.95147525134896
C           41.78177805955657       54.02294471103837       53.12058209103100
C           41.35508521734445       52.96325297166257       54.15098276586411
C           40.29971452800314       52.04769580589520       53.53405211934091
C           40.82614742022766       53.63282547331421       55.42311422670080
C           40.49616831769123       52.69663176575690       56.59546613482809
C           39.82764046764920       53.52310622227954       57.69552478780119
C           41.73540000994316       51.97536445226103       57.15387809947739
C           41.96040079269367       50.55390271377641       56.61577451505379
C           40.99450380363798       49.57193983436047       57.27801744310172
C           43.40595349514133       50.09916491765869       56.86934787839755
C           44.44361616413424       50.74623146692849       55.94280259149459
C           44.38037112802246       50.13887570683695       54.54218470170092
C           45.87302335181035       50.60314717979852       56.49515936543885
C           46.78077708326317       51.81417749122535       56.20740882364684
C           48.14488457749827       51.33710188359250       55.71026385456976
C           46.97746351082374       52.70448996706465       57.44560857766201
C           45.68547494738556       53.27291980034364       58.04488538486120
C           45.11709210845897       54.37550484249739       57.14941687992117
C           45.88575357346422       53.85842823293496       59.45223425164647
C           46.44337059397974       52.92399373442928       60.53699661957131
C           45.80789629003528       51.53526082038530       60.50511215182531
C           46.19815952919435       53.49740814163994       61.94276956827105
C           46.64435888348456       54.93892088131177       62.20413757028225
C           48.16066283420376       55.07722558968836       62.10274517104865
C           46.17269346372534       55.37896409152484       63.59932328634030
C           44.68891910358891       55.77626406752956       63.66242890404994
C           44.51238942663031       57.20135969859856       63.14532899585700
C           44.18473837031693       55.63683978761843       65.10331764733107
C           42.70661195376484       55.96617284969206       65.35422775763008
C           42.44440951466673       55.90273652220122       66.86109870938022
C           41.74035821191766       55.00795984085455       64.63511743265465
C           41.20854131945560       55.47258995913401       63.27319160834677
C           40.32802253348689       56.71445664035397       63.41784918133852
C           40.37100232829849       54.36872934551258       62.60918695080929
C           41.12107967944138       53.10790736335652       62.15537982176778
C           42.07884594352061       53.42162390782006       61.01033822594874
C           40.07773143787190       52.05920741711019       61.74226714323711
C           40.60192664029526       50.67412192061546       61.33381315362405
C           39.43260032086091       49.85953580053002       60.78013761508230
C           41.25552366583550       49.96729960606205       62.52640061120314
C           41.93567141166842       48.62016835745384       62.23660202578265
C           42.24956482887732       47.94521723305454       63.57195420775133
C           43.21186681348970       48.81922572020768       61.41026139354477
C           43.85855144596639       47.53664539967215       60.86502932701749
C           45.29270130883125       47.84437197094734       60.43461554779980
C           43.04777158358322       46.97697866516316       59.69182216205824
C           43.49065432099283       45.59989593540155       59.18145584302359
C           42.73286850003295       45.27928530770799       57.89340194310967
C           43.26814520268417       44.48661991595454       60.22134164680318
C           44.53433632242458       44.04229507586084       60.96454672100447
C           45.47637951517662       43.28657740412523       60.02811109448706
C           44.19807484553974       43.14429431027172       62.16149889729719
C           43.44684402442238       43.83909711875077       63.29452247490103
C           43.33639073490478       42.93732721813072       64.51831749960067
H           37.50859004871937       43.66081871190406       43.36850136772162
H           37.63150638099649       43.83154650394276       41.61567548032995
H           37.96741505434959       42.27851839999833       42.37301504186385
H           42.78795442512665       43.43567769710219       65.31450819896860
H           42.81577972267807       42.01572720956443       64.26729362533116
H           44.32480262869952       42.67901950225307       64.89271982449425
H           43.61755590993801       42.28573400624888       61.81554827379239
H           45.13710521641580       42.76252430654185       62.57007257440512
H           42.52633972290840       44.82905239707283       60.94307736774272
H           42.84956782820042       43.60734905046983       59.72581484661666
H           44.55183013931170       45.65245795820078       58.93241001832540
H           43.07037832171695       44.33161865272834       57.47922531470747
H           41.66457561554432       45.21109213008268       58.08658307046690
H           42.89620276806544       46.05274188602242       57.14629705682666
H           41.99608390335250       46.90954694945971       59.97848598162319
H           43.11344520994445       47.68935962326093       58.86578413705971
H           42.99569234781323       49.46912059936103       60.56022281158516
H           43.93846561515815       49.33973053370359       62.03942384443303
H           45.06006957497605       44.92538667602702       61.33982316616792
H           45.78181586899892       43.90774251480141       59.18974079675879
H           46.37343479361269       42.97515088217224       60.55765137034349