3536
 energy: -3716.245735247218 gnorm: 0.000822265545 xtb: 6.6.1 (8d0f1dd)
C           67.58524308062178       53.51434077608312       50.32735124590496
C           68.34494284006206       53.31131215890345       51.63401142513584
C           67.94342420828659       54.37521677430360       52.65282073068460
C           69.86870533329378       53.24866499472385       51.44045822921309
C           70.52363884402376       54.50363216165678       50.83697552776123
C           70.80029934376357       54.31632605344342       49.34570317648308
C           71.82916892492275       54.86352540155715       51.56422835916316
C           72.16329355490875       56.36136730802224       51.51576521945704
C           73.65452117717531       56.57359487117692       51.76987344361112
C           71.31803412921055       57.11279530434333       52.55102824134465
C           71.24460194881428       58.63180414531180       52.35849945783412
C           70.51373983323299       59.25062784161165       53.55059340049420
C           70.55377698470394       59.01414922387421       51.03489885441179
C           71.49076301537443       59.66556901799459       50.01099598229286
C           71.88579636408720       61.06981181795644       50.47169668784127
C           70.83340514639036       59.77023734388126       48.62725197429422
C           70.67769200216719       58.46501043271875       47.83114547675022
C           72.03399851325673       57.90699913593944       47.40777830174436
C           69.79846487445987       58.76595936285726       46.60886495089785
C           69.45858981336160       57.59821164087149       45.67063507564751
C           68.60665547449793       58.14404965339810       44.52330864674818
C           68.73286235014223       56.47912161443638       46.42745294255067
C           68.18066547883879       55.32533374738905       45.57658072879016
C           67.37995236054320       54.38663515563955       46.47825185641067
C           69.30904863103808       54.56548635244598       44.87027376469450
C           68.87616299029867       53.56007863829541       43.79035331763806
C           70.10980670600352       52.78092837070582       43.33422584720943
C           68.20020998330133       54.29798107603541       42.62534295900229
C           67.94038396340245       53.51005220561625       41.32946182248677
C           67.42088327212511       54.49448234204559       40.27963516430327
C           66.96416376013509       52.35271279522234       41.58380847090761
C           66.84079600483814       51.24307529422495       40.52058134137492
C           68.20867502323367       50.78139479335690       40.01431517086886
C           65.95198724902797       51.57533275047422       39.31362522679953
C           64.45517217469072       51.77514623212679       39.59473625149482
C           63.78884944010308       50.45076608788548       39.95663139995755
C           63.82348061130705       52.40478658365759       38.34246833769628
C           62.29807368871752       52.58540540070975       38.34330785897029
C           61.86093586273847       53.09163999492853       36.96843715708433
C           61.85516455684457       53.54292064197136       39.45401907483114
C           60.33972082330113       53.72931066506269       39.63056743885079
C           60.09855864348849       54.79946778275094       40.69459461902320
C           59.67743567873222       52.39322561306083       39.99073618827712
C           58.19036295675446       52.41983143503730       40.37833607608008
C           57.75574897728297       50.98283738423915       40.66928299849964
C           57.33309068294422       53.05190789675733       39.27628383730367
C           55.84933551746313       53.27725291272687       39.61153176703845
C           55.12831507939741       53.69365411800414       38.32672068168675
C           55.66654780138725       54.34300614974016       40.70733639603881
C           54.65549093719770       54.02497430768436       41.82229898420282
C           55.03924642818158       52.76791081097203       42.60050512038701
C           53.20927156628729       53.90103482548008       41.32569651902654
C           52.53970577386652       55.23903625319909       40.98403913421750
C           52.17487386150901       55.98902123037307       42.26365399297086
C           51.28107462948020       55.01588519990418       40.13371711226263
C           50.81995028469646       56.26044788151459       39.35890856757571
C           49.31969756185400       56.17073265192884       39.08322860991061
C           51.60572901537035       56.39745226217905       38.04806439168627
C           51.51592303185529       57.78522452144900       37.39455664979475
C           51.76507946592866       57.67258311756849       35.89146882184773
C           52.50658505970095       58.76069604938478       38.04235779932829
C           52.23412177248309       60.24257401792703       37.71524980265102
C           53.30868541625041       60.81817359135442       36.79302548598879
C           52.15133712431393       61.08391870025682       38.99627669734359
C           50.87616584612159       60.82802129341108       39.81425293389972
C           49.70443215808012       61.61585106328094       39.23172684125342
C           51.12047247016623       61.18758728711028       41.28533806682466
C           49.97498192353849       60.86830286932032       42.25768192323225
C           50.28514218111256       61.49903825252260       43.61489850813994
C           49.79243488794521       59.35294214716801       42.39353838187260
C           48.52576220745004       58.87804243372100       43.11984773726167
C           48.65063990417142       57.37829145565360       43.37851617331801
C           47.28051533211771       59.19967783722016       42.28363036441231
C           45.92699413921718       58.73380218716988       42.84162489980584
C           44.84982993078013       59.01382538236217       41.79228133457620
C           45.60342750056468       59.43153237164300       44.16773362186721
C           44.36932925029630       58.90290825840979       44.91501649375031
C           43.96605601395094       59.91496738292383       45.98751429717497
C           44.65464612990822       57.53205840742324       45.54106044901135
C           43.41923635593870       56.72052296389670       45.95864743002131
C           43.85967304850342       55.56873390191865       46.85985045305544
C           42.67911745034190       56.20512826517027       44.71921539422268
C           41.41164243468435       55.37122696283225       44.96378354354915
C           40.79099670099446       55.04453057679514       43.60476932058331
C           40.43179178766997       56.11896069503523       45.87701917874725
C           39.02553975370000       55.51929343499872       46.02050712702053
C           38.20224140565994       56.42627132361686       46.93618306755563
C           39.06032941528742       54.08428702030746       46.55652014365975
C           37.69229426537480       53.40264158818144       46.53800333598505
C           37.80221040785511       51.90926822791755       46.81830491938412
H           66.51520608203973       53.43382456863081       50.50429996418447
H           67.78513047915560       54.49767867067131       49.90912262161000
H           67.86297221674312       52.75830638036103       49.59561506802496
H           36.81746708025774       51.44715247000416       46.83715327011434
H           38.39804889914958       51.41614255730541       46.05375100664259
H           38.27864591132927       51.74099340939797       47.78146332561930
H           39.74228552605030       53.49003271291906       45.94602988371966
H           39.45025776374868       54.08764506424903       47.57758139736288
H           40.86807365750714       56.18783132040532       46.87591581054969
H           40.32244458233856       57.13821381658632       45.49482720261852
H           41.69995668012663       54.42989854693882       45.44100165822665
H           41.54515181990865       54.62760179381599       42.94012374562774
H           39.98752162769313       54.31895031125107       43.69678064432781
H           40.39090167309795       55.94527312391617       43.14254754300274
H           42.39511343918214       57.05943775840618       44.09979226184198
H           43.37524534092239       55.59745251397289       44.13381390324222
H           45.22691446260010       56.92531623623984       44.83682781290089
H           45.28258469055245       57.68903922818728       46.42054738515463
H           38.54440856659602       55.50843513619239       45.03669491752195
H           38.21197920114426       57.45019636546262       46.56752557682047
H           37.16752899464704       56.09911502845849       46.98811503567754
H           38.61487756253199       56.42340538316596       47.94302440647846
H           42.75071418264696       57.37349830150759       46.52755878375532
H           44.40350003061413       55.94724869757300       47.72181693155171
H           43.00614479569348       55.00362411427767       47.22362739682281
H           44.51468044261657       54.89491447873851       46.31302769111143
H           43.53978288618415       58.81531115163015       44.20872281144861
H           43.11982219757304       59.55565567011387       46.56733878848450
H           44.79488109342454       60.09502137130605       46.66810385900649
H           43.68418944691997       60.86297817316093       45.53284601948369
H           46.45927260418765       59.34326046739200       44.83868438177946
H           45.45908112209215       60.49568844442446       43.96083752197907
H           45.96288673480540       57.65221741173195       42.99671919239113
H           44.74790477070346       60.08490819764447       41.62564308161540
H           45.11017975246772       58.54547584258317       40.84488335510192
H           43.88456435743522       58.62219553703096       42.10204486994195
H           47.22188821328707       60.28083031811124       42.13748963859139
H           47.41357221944909       58.74527880740545       41.29695147925241
H           48.45964194049557       59.38813618113988       44.08449731245518
H           47.82050227202912       57.01076378044427       43.97410149550519
H           48.67167180662267       56.83165726297621       42.43800933034814
H           49.57090313029620       57.16399867283973       43.91662502958000
H           49.78603132797902       58.90061583346821       41.39988530060531
H           50.66443866740873       58.96503507852320       42.92646204925072
H           49.05649444194152       61.31949095815441       41.87462619470517
H           50.41919286402042       62.57461899379082       43.51758324063843
H           49.47772557890674       61.32433097933751       44.32099036757037
H           51.19938606588788       61.07458463109800       44.02504649685621
H           52.01058908272122       60.65334955317470       41.62925751749115
H           51.33843164078393       62.25806329650668       41.34111832362934
H           50.63787890303282       59.76330472039466       39.74355173993857
H           49.62505246542039       61.44781915954768       38.15998945703667
H           48.76415424437189       61.31296403278866       39.68533843706803
H           49.84170651668914       62.68273431978627       39.39916722850472
H           53.03132356504512       60.86113378944057       39.60419105014129
H           52.19642192858561       62.14480346860636       38.73820344914229
H           51.27307793271395       60.31569610683370       37.19467454781597
H           53.41840033479119       60.21250159234988       35.89656360322692
H           53.04993951390888       61.83087210960736       36.48865026872787
H           54.26716414759188       60.85043433717379       37.30483578066843
H           52.47187204452430       58.62110438116147       39.12365745052922
H           53.51623434322359       58.49591081567454       37.72058932507253
H           50.50325776521030       58.17689750318949       37.53943678426303
H           52.75674067597752       57.26604334128312       35.70109875310150
H           51.03136612437774       57.01445341303846       35.42963233183318
H           51.69293863686941       58.64570224961840       35.41205824065343
H           52.65869472782098       56.16924846140910       38.22766005719798
H           51.22800590808151       55.64679758436237       37.34875993408448
H           51.00097570879238       57.14706442535308       39.97417582890243
H           48.97194212337465       57.02113087576219       38.50119322312784
H           49.08990248819533       55.26288544562853       38.52838414805510
H           48.76076483253900       56.14930161550970       40.01598756833329
H           51.45635334108010       54.21230971978613       39.41338637488015
H           50.47600835165247       54.68266319989841       40.79246086105388
H           53.24351913973264       55.84846897650379       40.40732473880833
H           53.05200514712704       56.16231411646393       42.88172521198108
H           51.72390748097467       56.95129686474188       42.03522375378523
H           51.45978051673677       55.40888236793327       42.84458175148637
H           53.19279924096504       53.24476347726677       40.45410148021720
H           52.61357437154376       53.41229538073644       42.10090269978306
H           54.70526720459592       54.86405296604616       42.52591932939108
H           56.08857161879179       52.78904285718544       42.88311836154774
H           54.44584504632659       52.69387135924154       43.50755458438013
H           54.85657004486590       51.87158506286499       42.01282986613161
H           56.62790827494813       54.52247621737942       41.19241915860601
H           55.37971968833836       55.28448902266100       40.23270428796214
H           55.41722954225155       52.33143524447748       39.94465383485565
H           55.58506895195921       54.59054715718136       37.91020330559471
H           55.18844318855432       52.90577772298307       37.57729259048803
H           54.07867810890644       53.90374237038993       38.51431630587681
H           57.75562042165956       54.02214750842407       39.00765693369637
H           57.39545606988083       52.41383707441199       38.38957245698270
H           58.08156518613848       52.99930912582594       41.29935861280038
H           57.81434572184128       50.37532817339383       39.76744481201469
H           58.40344350135642       50.53705745504450       41.42211651915245
H           56.73770661617839       50.94404782144377       41.04263840065283
H           59.78312492139536       51.71581232360860       39.13970442923185
H           60.23090231166631       51.95458805399501       40.82715471322828
H           59.92369488106085       54.08951614943780       38.68581226890246
H           59.04587283352951       55.05937204231339       40.76230726238042
H           60.43254908454713       54.45424060047328       41.66957539230631
H           60.65009945923379       55.70371616917897       40.44807952260560
H           62.25780087577036       53.18351951252958       40.40276950310226
H           62.30590763321969       54.52057013211414       39.25719838717891
H           61.83876282960397       51.60675732975498       38.50143525728195
H           62.23334629236727       52.43532946712309       36.18412268682231
H           60.77760814991568       53.12506746131233       36.88962272691754
H           62.25183311703458       54.09147435663992       36.78730811649393
H           64.28587264038563       53.38258216883045       38.17823100968331
H           64.08463254357444       51.77624385486357       37.48566198958351
H           64.34229004399465       52.46595467061011       40.43446621753777
H           63.82174765737020       49.76634872999445       39.11082477714231
H           64.29497714055621       49.98150261132061       40.79594632688338
H           62.75033836571459       50.59943992016233       40.23947327067404
H           66.33609693225503       52.46798103235174       38.82203958409547
H           66.04858417270957       50.75332249680257       38.59767042124592
H           66.38439038962079       50.38731928047064       41.03367135655773
H           68.10763059421988       49.85653707606261       39.44972453921910
H           68.65356004193835       51.52661535395583       39.35907980237254
H           68.88995010901429       50.59641938943097       40.84208834682949
H           67.28194783952904       51.85950263750927       42.50530560312454
H           65.97363383185346       52.77134413898438       41.77176732329484
H           68.89408659038496       53.11225862236574       40.97702656248753
H           68.04073934576860       55.38976053230591       40.26059206297866
H           67.44395217770818       54.06301772987266       39.28348684577077
H           66.39939220288845       54.79355379568279       40.50486713073249
H           67.24321853762402       54.69479953225801       42.97168105388218
H           68.83361405842608       55.15188277425484       42.36632425868512
H           68.17161598491367       52.84990796014131       44.23298019835117
H           70.80246402457871       53.43557985832506       42.80857888719972
H           70.62625552154518       52.35938842287389       44.19449732499299
H           69.83911903247447       51.96208337357305       42.67353005910881
H           69.98427226143900       55.28141849888889       44.39770391921382
H           69.88565049027427       54.03204791277054       45.63146111909158
H           67.49870543877442       55.74330114337624       44.83294940075649
H           66.61680184414074       54.93996495052026       47.02168529404970
H           66.88864692871259       53.60889919329907       45.89955538641020
H           68.03245879016389       53.90723267238931       47.20470347772531
H           69.41415893500114       56.05600149617479       47.16777362800743
H           67.89652301426570       56.93103942518049       46.96555763589370
H           70.39100069325198       57.21129578173232       45.24829349341275
H           69.08350515099110       59.01555691810798       44.07832069329808
H           68.47657064130185       57.40117830161344       43.74144389638644
H           67.62507664147647       58.44127627721468       44.88656678516269
H           68.85640060690612       59.19186296771818       46.96255740933186
H           70.30015621072155       59.53961194134622       46.01963178258291
H           70.17348180494415       57.72391900455715       48.45787765018458
H           71.91655031348826       56.95725516528400       46.89173046777027
H           72.53782552503128       58.60215343418187       46.73860031250373
H           72.67599256460247       57.73965409342611       48.26935260231341
H           69.84456776939136       60.21860818073162       48.75980097443279
H           71.42078011260652       60.46316587743287       48.01834088161080
H           72.40242658575927       59.06541146442365       49.93271126742135
H           72.31876572757979       61.05016810498378       51.46869631609468
H           72.61768814808120       61.50532105089295       49.79427014699047
H           71.01224101970217       61.71907826663062       50.49266049973281
H           70.10698006270198       58.12184816759687       50.59533007943573
H           69.73828573564742       59.71081077776870       51.23778704152396
H           72.26610375955177       59.02438273998243       52.35488897753537
H           70.47215728050652       60.33348276650617       53.45744408045619
H           69.49585488085008       58.87101149079661       53.60839091304214
H           71.02079120475581       59.00828680433210       54.48270793782920
H           70.29938877306138       56.72003868407044       52.53782959392098
H           71.72951691796889       56.90486242832530       53.54288584995015
H           71.92962570904625       56.73984863254194       50.51684548303736
H           73.90802426688266       57.63121856050598       51.75931589120153
H           73.93654609228732       56.16441839083869       52.73835131244149
H           74.24784567998366       56.07742621342263       51.00397912364743
H           71.76781249853411       54.56852329813522       52.61369586779082
H           72.64739951693326       54.29241514076909       51.11915305764468
H           69.83321105368914       55.34382849060365       50.94453902956734
H           69.87976611797707       54.13209888168153       48.79872411710475
H           71.27341346044147       55.20304186628789       48.92837942511693
H           71.46740538793051       53.47054831640381       49.18503796509329
H           70.30836973551745       53.04796884891206       52.42080605445553
H           70.10756824989161       52.38982997735192       50.80950650440791
H           68.04700125552409       52.33663337807495       52.04404208138853
H           68.14680203868014       55.37563341928531       52.27936313058107
H           66.87903005809675       54.31246585587863       52.86586954750709
H           68.48733609853863       54.23665965653921       53.58428464390288
H           37.03919248545841       53.85504193758481       47.28550366696128
H           37.22977059250132       53.55042929658796       45.55830966015907
C           42.26284804313863       45.86910909634054       58.91683709560741
C           43.75814230569971       46.16287427524588       58.83087448857293
C           44.53099994215570       44.86062754730656       58.62435668910951
C           44.27805983484271       46.86582793076342       60.09007618394701
C           43.64804692788885       48.22609230777528       60.41174040743759
C           43.84486430404402       49.21388045815732       59.26305002589954
C           44.27479391981889       48.82831088901062       61.67842096338370
C           44.09806756482005       48.03125333477046       62.97359803221221
C           42.61938670492454       47.74784741207044       63.24950096236586
C           44.67869699963392       48.76905525069519       64.19133438672826
C           46.20244348878392       48.98434835121903       64.28668268242906
C           46.67159355696149       50.23717564199629       63.54508023711817
C           47.03773765343693       47.77398601335567       63.85282768316498
C           46.80670938378402       46.49024067144783       64.66030054715792
C           47.34752406834595       46.62930760774587       66.08322206423024
C           47.47908676336159       45.28635590880602       63.97848967316306
C           46.75893071443547       44.73297894968558       62.74231209848290
C           45.40946022106546       44.11826991921438       63.11939496568556
C           47.59728609183656       43.64301072049916       62.05548022664932
C           48.85553414289485       44.09100943510919       61.29828777782824
C           48.48484832939339       44.92569435772111       60.07313594738335
C           49.66927042774029       42.85123896045636       60.86937422248138
C           50.97080221178408       42.59487065176724       61.64560934069571
C           51.64756795583994       41.35754742426163       61.05546623650810
C           50.72005100253179       42.42599839763894       63.14766324832222
C           51.97734766290525       42.36589128009815       64.02896174575127
C           51.55271246818210       42.12205138930337       65.47821198434941
C           52.82468654134561       43.64766068525009       63.91481301649262
C           54.19886008700131       43.42818386532790       63.25839519562311
C           55.16740545884480       42.84652389154948       64.28569061698697
C           54.70780596792579       44.75332561726995       62.67806449740922
C           56.00739390363486       44.72952368435545       61.85720120552276
C           56.68639440804105       46.09575794394024       61.99188949769161
C           55.78780228798511       44.46409962857538       60.35897644016407
C           55.20736180221723       43.10588334328394       59.95492140260295
C           56.08971487415768       41.95322323665413       60.43688805989718
C           55.07044984062227       42.98567565575791       58.42832858455639
C           54.21327348801363       44.03431569060824       57.70791818972815
C           52.80568064164927       44.10397549078451       58.29455897912124
C           54.10643011343632       43.69875116606269       56.21109288578873
C           55.40159671683644       43.85685866386788       55.40705031663160
C           55.70549562181300       45.33586608891632       55.17089150667636
C           55.32946307367177       43.14997832587845       54.04609038445436
C           55.07601776230943       41.63414168456190       54.05115643872278
C           56.05552492801829       40.90467317001941       54.96559284252594
C           55.17374584436070       41.12678798655020       52.60565326017804
C           54.76619700485679       39.66612859121799       52.37513783971826
C           55.05120807323750       39.29455809922383       50.91906447700286
C           53.29013421566788       39.40017541038499       52.73080701967416
C           53.10767019398866       38.48390997662347       53.94711734496170
C           53.49963338575282       37.04826438279467       53.59204868060456
C           51.66239411206116       38.48556461308721       54.46509713031266
C           51.17090012642004       39.76220608459845       55.16455731394470
C           51.99843063561499       40.06883346006483       56.41038397044202
C           49.69410563743931       39.55940557385739       55.53443465581276
C           48.94687376270419       40.78147238463972       56.08457564381107
C           47.58723162932763       40.32367074693591       56.61785912446177
C           48.75323165600958       41.88513394578952       55.02972732994571
C           49.72713999474247       43.06576792088266       55.12044613086760
C           49.45854643304235       43.88554754871541       56.38171103031263
C           49.58157817504088       43.98144519398674       53.89446265580116
C           50.17152139438874       43.42163467570572       52.59325967214413
C           51.68095416796499       43.64850903540604       52.54607329114523
C           49.46414588746565       43.93302050218099       51.32175709161461
C           49.71764499879507       45.37945526090005       50.87664382562752
C           49.00913208570984       46.39551386442294       51.77015099923283
C           49.22585995818463       45.61432635380734       49.43806353414038
C           49.87364671049568       44.78156277617581       48.32515533558195
C           51.39955824267960       44.79937924005620       48.41333175664289
C           49.46820004407782       45.30453274667810       46.93754382504098
C           47.96838865521878       45.42942659593297       46.64999330847092
C           47.28637615670331       44.06357566963624       46.69699008663187
C           47.75136522411506       46.06816228461164       45.26953328252274
C           47.94494017667009       47.59165891371347       45.21302995928751
C           46.71596532905495       48.30488491807554       45.76948160963573
C           48.22943690014365       47.98861146627331       43.75679431307979
C           48.30643404767484       49.48809584322127       43.43463855264485
C           48.53115386985520       49.64372066079887       41.92974779211354
C           49.41047803739396       50.19347476196469       44.22897635498821
C           49.36348871605163       51.72872311067390       44.19316013624059
C           50.71092476545412       52.28533941799563       44.65344280178483
C           48.23605060412324       52.27096592118288       45.08218392770902
C           47.85811138459746       53.73960124418840       44.80981704505292
C           47.79407624097111       54.52527640163449       46.11921322802645
C           46.50437729059381       53.86552851000448       44.09750828799733
C           46.42957920518719       53.26319241350753       42.69217469985378
C           47.29454714095809       54.04874756740238       41.70761066867892
C           44.98649502704136       53.25106830506478       42.16655809003100
C           43.98706051166899       52.40594619898738       42.95914723560232
C           44.40846373921065       50.94979317089970       43.10491247642264
H           41.68269069685646       46.78731951494773       58.95686034680220
H           41.93755432793755       45.30329616155863       58.04627422698887
H           42.04151986817607       45.28228082091011       59.80687601619670
H           45.26068350426221       50.85599289247494       43.77172865418209
H           43.59243157819357       50.36432618615518       43.52181600203735
H           44.67538924370976       50.52786426487742       42.13799301102204
H           44.61799937820943       54.28113438994284       42.12966472309287
H           45.00467049772347       52.87880337993771       41.13793105411738
H           45.75483658510797       53.38568388967087       44.72956979148844
H           46.24157387284150       54.92515369537599       44.02640646732267
H           48.62781927219856       54.20036316132608       44.18387379692618
H           47.02228014015066       54.11655273174655       46.76726883863242
H           48.74641272571053       54.48198427196915       46.64190653799459
H           47.55578026899072       55.57009836656245       45.93344847200211
H           47.34620975017314       51.65222918765897       44.95895081502400
H           48.55263076356472       52.16638071439128       46.12208563860687
H           49.35275840339285       49.88491045576092       45.27384832342956
H           50.37529384853869       49.85872543962000       43.83907629769058
H           46.79490560223763       52.23416988842085       42.72152326344712
H           46.94446173697038       55.07724379402867       41.63496764483681
H           48.33508654854656       54.06143836402100       42.02139960097931