      -----------------------------------------------------------      
     |                   =====================                   |     
     |                           x T B                           |     
     |                   =====================                   |     
     |                         S. Grimme                         |     
     |          Mulliken Center for Theoretical Chemistry        |     
     |                    University of Bonn                     |     
      -----------------------------------------------------------      

   * xtb version 6.6.1 (8d0f1dd) compiled by 'stahn@M-Bot' on 2023-08-01

   xtb is free software: you can redistribute it and/or modify it under
   the terms of the GNU Lesser General Public License as published by
   the Free Software Foundation, either version 3 of the License, or
   (at your option) any later version.
   
   xtb is distributed in the hope that it will be useful,
   but WITHOUT ANY WARRANTY; without even the implied warranty of
   MERCHANTABILITY or FITNESS FOR A PARTICULAR PURPOSE.  See the
   GNU Lesser General Public License for more details.
   
   Cite this work as:
   * C. Bannwarth, E. Caldeweyher, S. Ehlert, A. Hansen, P. Pracht,
     J. Seibert, S. Spicher, S. Grimme, WIREs Comput. Mol. Sci., 2020, 11,
     e01493. DOI: 10.1002/wcms.1493
   
   for GFN2-xTB:
   * C. Bannwarth, S. Ehlert and S. Grimme., J. Chem. Theory Comput., 2019,
     15, 1652-1671. DOI: 10.1021/acs.jctc.8b01176
   for GFN1-xTB:
   * S. Grimme, C. Bannwarth, P. Shushkov, J. Chem. Theory Comput., 2017,
     13, 1989-2009. DOI: 10.1021/acs.jctc.7b00118
   for GFN0-xTB:
   * P. Pracht, E. Caldeweyher, S. Ehlert, S. Grimme, ChemRxiv, 2019, preprint.
     DOI: 10.26434/chemrxiv.8326202.v1
   for GFN-FF:
   * S. Spicher and S. Grimme, Angew. Chem. Int. Ed., 2020, 59, 15665-15673.
     DOI: 10.1002/anie.202004239
   
   for ALPB and GBSA implicit solvation:
   * S. Ehlert, M. Stahn, S. Spicher, S. Grimme, J. Chem. Theory Comput.,
     2021, 17, 4250-4261. DOI: 10.1021/acs.jctc.1c00471
   
   for DFT-D4:
   * E. Caldeweyher, C. Bannwarth and S. Grimme, J. Chem. Phys., 2017,
     147, 034112. DOI: 10.1063/1.4993215
   * E. Caldeweyher, S. Ehlert, A. Hansen, H. Neugebauer, S. Spicher,
     C. Bannwarth and S. Grimme, J. Chem. Phys., 2019, 150, 154122.
     DOI: 10.1063/1.5090222
   * E. Caldeweyher, J.-M. Mewes, S. Ehlert and S. Grimme, Phys. Chem. Chem. Phys.
     2020, 22, 8499-8512. DOI: 10.1039/D0CP00502A
   
   for sTDA-xTB:
   * S. Grimme and C. Bannwarth, J. Chem. Phys., 2016, 145, 054103.
     DOI: 10.1063/1.4959605
   
   in the mass-spec context:
   * V. Asgeirsson, C. Bauer and S. Grimme, Chem. Sci., 2017, 8, 4879.
     DOI: 10.1039/c7sc00601b
   * J. Koopman and S. Grimme, ACS Omega 2019, 4, 12, 15120-15133.
     DOI: 10.1021/acsomega.9b02011
   
   for metadynamics refer to:
   * S. Grimme, J. Chem. Theory Comput., 2019, 155, 2847-2862
     DOI: 10.1021/acs.jctc.9b00143
   
   for SPH calculations refer to:
   * S. Spicher and S. Grimme, J. Chem. Theory Comput., 2021, 17, 1701-1714
     DOI: 10.1021/acs.jctc.0c01306
   
   with help from (in alphabetical order)
   P. Atkinson, C. Bannwarth, F. Bohle, G. Brandenburg, E. Caldeweyher
   M. Checinski, S. Dohm, S. Ehlert, S. Ehrlich, I. Gerasimov, C. Hölzer
   A. Katbashev, J. Koopman, C. Lavigne, S. Lehtola, F. März, M. Müller,
   F. Musil, H. Neugebauer, J. Pisarek, C. Plett, P. Pracht, F. Pultar,
   J. Seibert, P. Shushkov, S. Spicher, M. Stahn, M. Steiner, T. Strunk,
   J. Stückrath, T. Rose, and J. Unsleber
   
 * started run on 2024/06/20 at 22:57:57.379     

           -------------------------------------------------
          |                Calculation Setup                |
           -------------------------------------------------

          program call               : /home/abt-grimme/AK-bin/xtb input.xyz --input input.inp --opt --gbsa water
          hostname                   : boar022.thch.uni-bonn.de
          coordinate file            : input.xyz
          omp threads                :                     8

   ID    Z sym.   atoms
    1    6 C      1-90, 273-362, 545-634, 817-906, 1089-1178, 1361-1450,
                  1633-1722, 1905-1994, 2177-2266, 2449-2538, 2721-2810,
                  2993-3082, 3265-3354
    2    1 H      91-272, 363-544, 635-816, 907-1088, 1179-1360, 1451-1632,
                  1723-1904, 1995-2176, 2267-2448, 2539-2720, 2811-2992,
                  3083-3264, 3355-3536

molecular fragmentation (1/2 indicates fragments):
111111111111111111111111111111111111111111111111111111111111111111111111
111111111111111111111111111111111111111111111111111111111111111111111111
111111111111111111111111111111111111111111111111111111111111111111111111
111111111111111111111111111111111111111111111111111111112222222222222222
222222222222222222222222222222222222222222222222222222222222222222222222
222222222222222222222222222222222222222222222222222222222222222222222222
222222222222222222222222222222222222222222222222222222222222222222222222
222222222222222222222222222222222222222222222222222222222222222222222222
222222222222222222222222222222222222222222222222222222222222222222222222
222222222222222222222222222222222222222222222222222222222222222222222222
222222222222222222222222222222222222222222222222222222222222222222222222
222222222222222222222222222222222222222222222222222222222222222222222222
222222222222222222222222222222222222222222222222222222222222222222222222
222222222222222222222222222222222222222222222222222222222222222222222222
222222222222222222222222222222222222222222222222222222222222222222222222
222222222222222222222222222222222222222222222222222222222222222222222222
222222222222222222222222222222222222222222222222222222222222222222222222
222222222222222222222222222222222222222222222222222222222222222222222222
222222222222222222222222222222222222222222222222222222222222222222222222
222222222222222222222222222222222222222222222222222222222222222222222222
222222222222222222222222222222222222222222222222222222222222222222222222
222222222222222222222222222222222222222222222222222222222222222222222222
222222222222222222222222222222222222222222222222222222222222222222222222
222222222222222222222222222222222222222222222222222222222222222222222222
222222222222222222222222222222222222222222222222222222222222222222222222
222222222222222222222222222222222222222222222222222222222222222222222222
222222222222222222222222222222222222222222222222222222222222222222222222
222222222222222222222222222222222222222222222222222222222222222222222222
222222222222222222222222222222222222222222222222222222222222222222222222
222222222222222222222222222222222222222222222222222222222222222222222222
222222222222222222222222222222222222222222222222222222222222222222222222
222222222222222222222222222222222222222222222222222222222222222222222222
222222222222222222222222222222222222222222222222222222222222222222222222
222222222222222222222222222222222222222222222222222222222222222222222222
222222222222222222222222222222222222222222222222222222222222222222222222
222222222222222222222222222222222222222222222222222222222222222222222222
222222222222222222222222222222222222222222222222222222222222222222222222
222222222222222222222222222222222222222222222222222222222222222222222222
222222222222222222222222222222222222222222222222222222222222222222222222
222222222222222222222222222222222222222222222222222222222222222222222222
222222222222222222222222222222222222222222222222222222222222222222222222
222222222222222222222222222222222222222222222222222222222222222222222222
222222222222222222222222222222222222222222222222222222222222222222222222
222222222222222222222222222222222222222222222222222222222222222222222222
222222222222222222222222222222222222222222222222222222222222222222222222
222222222222222222222222222222222222222222222222222222222222222222222222
222222222222222222222222222222222222222222222222222222222222222222222222
222222222222222222222222222222222222222222222222222222222222222222222222
222222222222222222222222222222222222222222222222222222222222222222222222
22222222
# atoms in fragment 1/2:   272  3264
 fragment masses (1/2) :     1264.41    15172.94
CMA distance (Bohr)    :  27.230
constraining FC (au)   :  0.0500

           -------------------------------------------------
          |                 G F N 2 - x T B                 |
           -------------------------------------------------

        Reference                      10.1021/acs.jctc.8b01176
      * Hamiltonian:
        H0-scaling (s, p, d)           1.850000    2.230000    2.230000
        zeta-weighting                 0.500000
      * Dispersion:
        s8                             2.700000
        a1                             0.520000
        a2                             5.000000
        s9                             5.000000
      * Repulsion:
        kExp                           1.500000    1.000000
        rExp                           1.000000
      * Coulomb:
        alpha                          2.000000
        third order                    shell-resolved
        anisotropic                    true
        a3                             3.000000
        a5                             4.000000
        cn-shift                       1.200000
        cn-exp                         4.000000
        max-rad                        5.000000

      * Solvation model:               GBSA
        Solvent                        water
        Parameter file                 internal GFN2-xTB/GBSA
        Dielectric constant                8.0200E+01
        Reference state                gsolv [1 M gas/solution]
        Free energy shift                  1.8574E-03 Eh       1.1656E+00 kcal/mol
        Temperature                        2.9815E+02 K
        Density                            1.0000E+00 kg/L
        Solvent mass                       1.8000E+01 g/mol
        Interaction kernel             Still
        Born radius scaling (c1)           1.5524E+00
        Born radii integrator          GBOBC
        Born offset                        2.4628E-02 a0       4.6540E-02 AA
        H-bond correction              true
        Ion screening                  false
        Surface tension                    1.0000E-05 Eh       1.5569E+01 dyn/cm
        Grid points                               230 per atom
q/qsh data taken from xtbrestart
CAMM data taken from xtbrestart

          ...................................................
          :                      SETUP                      :
          :.................................................:
          :  # basis functions                7046          :
          :  # atomic orbitals                7046          :
          :  # shells                         4706          :
          :  # electrons                      7046          :
          :  max. iterations                   250          :
          :  Hamiltonian                  GFN2-xTB          :
          :  restarted?                       true          :
          :  GBSA solvation                   true          :
          :  PC potential                    false          :
          :  electronic temp.          300.0000000     K    :
          :  accuracy                    1.0000000          :
          :  -> integral cutoff          0.2500000E+02      :
          :  -> integral neglect         0.1000000E-07      :
          :  -> SCF convergence          0.1000000E-05 Eh   :
          :  -> wf. convergence          0.1000000E-03 e    :
          :  Broyden damping             0.4000000          :
          ...................................................

 iter      E             dE          RMSdq      gap      omega  full diag
   1  -3764.2446301 -0.376424E+04  0.327E-05   10.56       0.0  T
   2  -3764.2446301 -0.580712E-09  0.243E-05   10.56      69.2  T
   3  -3764.2446301 -0.778982E-09  0.116E-05   10.56     144.4  T

   *** convergence criteria satisfied after 3 iterations ***

         #    Occupation            Energy/Eh            Energy/eV
      -------------------------------------------------------------
         1        2.0000           -0.6180280             -16.8174
       ...           ...                  ...                  ...
      3517        2.0000           -0.3766415             -10.2489
      3518        2.0000           -0.3758536             -10.2275
      3519        2.0000           -0.3756631             -10.2223
      3520        2.0000           -0.3753061             -10.2126
      3521        2.0000           -0.3750605             -10.2059
      3522        2.0000           -0.3748571             -10.2004
      3523        2.0000           -0.3740776             -10.1792 (HOMO)
      3524                          0.0140646               0.3827 (LUMO)
      3525                          0.0144848               0.3942
      3526                          0.0147511               0.4014
      3527                          0.0169215               0.4605
      3528                          0.0177879               0.4840
       ...                                ...                  ...
      7046                          0.3701094              10.0712
      -------------------------------------------------------------
                  HL-Gap            0.3881422 Eh           10.5619 eV
             Fermi-level           -0.1800065 Eh           -4.8982 eV

 SCC (total)                   0 d,  0 h,  9 min, 15.945 sec
 SCC setup                      ...        0 min,  2.047 sec (  0.368%)
 Dispersion                     ...        0 min,  4.200 sec (  0.755%)
 classical contributions        ...        0 min,  0.175 sec (  0.032%)
 integral evaluation            ...        0 min,  7.340 sec (  1.320%)
 iterations                     ...        3 min, 59.526 sec ( 43.084%)
 molecular gradient             ...        4 min, 51.683 sec ( 52.466%)
 printout                       ...        0 min, 10.973 sec (  1.974%)

         :::::::::::::::::::::::::::::::::::::::::::::::::::::
         ::                     SUMMARY                     ::
         :::::::::::::::::::::::::::::::::::::::::::::::::::::
         :: total energy           -3715.385185771560 Eh    ::
         :: total w/o Gsasa/hb     -3715.275413283910 Eh    ::
         :: gradient norm              0.663718369882 Eh/a0 ::
         :: HOMO-LUMO gap             10.561886812222 eV    ::
         ::.................................................::
         :: SCC energy             -3764.244630093729 Eh    ::
         :: -> isotropic ES            0.439166465425 Eh    ::
         :: -> anisotropic ES          1.494779879480 Eh    ::
         :: -> anisotropic XC          2.301836932274 Eh    ::
         :: -> dispersion             -4.686027056714 Eh    ::
         :: -> Gsolv                  -0.047011486800 Eh    ::
         ::    -> Gelec                0.062761000851 Eh    ::
         ::    -> Gsasa               -0.105255953306 Eh    ::
         ::    -> Ghb                 -0.006373977471 Eh    ::
         ::    -> Gshift               0.001857443127 Eh    ::
         :: repulsion energy          48.133348488386 Eh    ::
         :: add. restraining           0.000000000000 Eh    ::
         :: total charge              -0.000000000012 e     ::
         :::::::::::::::::::::::::::::::::::::::::::::::::::::

      ----------------------------------------------------------- 
     |              Fast Inertial Relaxation Engine              |
      ----------------------------------------------------------- 

          ...................................................
          :                      SETUP                      :
          :.................................................:
          :   energy convergence        0.5000000E-05 Eh    :
          :   grad. convergence         0.1000000E-02 Eh/a0 :
          :   optimization log               true           :
          :   writing optlog all                1     steps :
          :   Hessian reset                    20     steps :
          :   time step scaling                 5     steps :
          :   maximium step len.        1.0000000     a0    :
          :   initial time step         0.2500000     fs    :
          :   maximum time step         1.2500000     fs    :
          :   power reset thr           0.0000000     au    :
          :   alpha parameter           0.1000000           :
          :   BFGS update                   false           :
          :   preconditioning               false           :
          ...................................................

........................................................................
.............................. CYCLE    1 ..............................
........................................................................

 iter      E             dE          RMSdq      gap      omega  full diag
   1  -3764.5060755 -0.376451E+04  0.758E-03   10.57       0.0  T
   2  -3764.5061186 -0.430065E-04  0.411E-03   10.57       1.0  T
   3  -3764.5061192 -0.660707E-06  0.178E-03   10.57       1.0  T
   4  -3764.5061197 -0.501538E-06  0.437E-04   10.57       3.8  T
   5  -3764.5061200 -0.268204E-06  0.174E-04   10.57       9.6  T
     SCC iter.                  ...        6 min, 11.745 sec
     gradient                   ...        4 min, 49.238 sec
 * total energy  : -3715.4352384 Eh     change    :  -0.5005264E-01 Eh
   gradient norm :     0.6306776 Eh/a0  converged?    E=F G=F D=F
   time step     :     0.2500000 fs     power     :   0.2590416E-05
   step length   :     0.0777864 a0     speed     :   0.7526250E-02

........................................................................
.............................. CYCLE    2 ..............................
........................................................................

 iter      E             dE          RMSdq      gap      omega  full diag
   1  -3764.8917784 -0.376489E+04  0.111E-02   10.58       0.0  T
   2  -3764.8918710 -0.925362E-04  0.603E-03   10.58       1.0  T
   3  -3764.8918725 -0.147836E-05  0.260E-03   10.58       1.0  T
   4  -3764.8918735 -0.108716E-05  0.649E-04   10.58       2.6  T
   5  -3764.8918741 -0.585831E-06  0.270E-04   10.58       6.2  T
   6  -3764.8918742 -0.450400E-07  0.122E-04   10.58      13.8  T
     SCC iter.                  ...        7 min, 24.914 sec
     gradient                   ...        4 min, 50.406 sec
 * total energy  : -3715.5047057 Eh     change    :  -0.6946729E-01 Eh
   gradient norm :     0.5848122 Eh/a0  converged?    E=F G=F D=F
   time step     :     0.2500000 fs     power     :   0.3543798E-05
   step length   :     0.1146019 a0     speed     :   0.1108835E-01

........................................................................
.............................. CYCLE    3 ..............................
........................................................................

 iter      E             dE          RMSdq      gap      omega  full diag
   1  -3765.3919231 -0.376539E+04  0.143E-02   10.59       0.0  T
   2  -3765.3920747 -0.151534E-03  0.777E-03   10.59       1.0  T
   3  -3765.3920771 -0.245976E-05  0.332E-03   10.59       1.0  T
   4  -3765.3920789 -0.176444E-05  0.833E-04   10.59       2.0  T
   5  -3765.3920798 -0.964100E-06  0.350E-04   10.59       4.8  T
   6  -3765.3920799 -0.734185E-07  0.154E-04   10.59      10.9  T
     SCC iter.                  ...        7 min, 21.411 sec
     gradient                   ...        4 min, 49.843 sec
 * total energy  : -3715.5870732 Eh     change    :  -0.8236749E-01 Eh
   gradient norm :     0.5270311 Eh/a0  converged?    E=F G=F D=F
   time step     :     0.2500000 fs     power     :   0.4132233E-05
   step length   :     0.1487508 a0     speed     :   0.1439244E-01

........................................................................
.............................. CYCLE    4 ..............................
........................................................................

 iter      E             dE          RMSdq      gap      omega  full diag
   1  -3765.9938888 -0.376599E+04  0.171E-02   10.60       0.0  T
   2  -3765.9940999 -0.211087E-03  0.927E-03   10.60       1.0  T
   3  -3765.9941035 -0.354720E-05  0.391E-03   10.60       1.0  T
   4  -3765.9941059 -0.241217E-05  0.983E-04   10.60       1.7  T
   5  -3765.9941072 -0.132727E-05  0.424E-04   10.60       4.0  T
   6  -3765.9941073 -0.104985E-06  0.181E-04   10.60       9.3  T
   7  -3765.9941074 -0.470145E-07  0.121E-04   10.60      13.9  T
     SCC iter.                  ...        8 min, 50.173 sec
     gradient                   ...        4 min, 51.302 sec
 * total energy  : -3715.6748693 Eh     change    :  -0.8779611E-01 Eh
   gradient norm :     0.4609522 Eh/a0  converged?    E=F G=F D=F
   time step     :     0.2500000 fs     power     :   0.4316373E-05
   step length   :     0.1793973 a0     speed     :   0.1735765E-01

........................................................................
.............................. CYCLE    5 ..............................
........................................................................

 iter      E             dE          RMSdq      gap      omega  full diag
   1  -3766.6823121 -0.376668E+04  0.194E-02   10.61       0.0  T
   2  -3766.6825732 -0.261034E-03  0.105E-02   10.61       1.0  T
   3  -3766.6825777 -0.456757E-05  0.434E-03   10.61       1.0  T
   4  -3766.6825806 -0.282684E-05  0.108E-03   10.61       1.6  T
   5  -3766.6825821 -0.156609E-05  0.474E-04   10.61       3.6  T
   6  -3766.6825822 -0.108557E-06  0.186E-04   10.61       9.0  T
   7  -3766.6825823 -0.466539E-07  0.123E-04   10.61      13.7  T
     SCC iter.                  ...        8 min, 35.891 sec
     gradient                   ...        4 min, 49.818 sec
 * total energy  : -3715.7606116 Eh     change    :  -0.8574227E-01 Eh
   gradient norm :     0.3919806 Eh/a0  converged?    E=F G=F D=F
   time step     :     0.2500000 fs     power     :   0.4110921E-05
   step length   :     0.2058243 a0     speed     :   0.1991460E-01

........................................................................
.............................. CYCLE    6 ..............................
........................................................................

 iter      E             dE          RMSdq      gap      omega  full diag
   1  -3767.5221359 -0.376752E+04  0.235E-02   10.63       0.0  T
   2  -3767.5224942 -0.358360E-03  0.126E-02   10.62       1.0  T
   3  -3767.5225012 -0.696760E-05  0.507E-03   10.62       1.0  T
   4  -3767.5225049 -0.367530E-05  0.124E-03   10.62       1.4  T
   5  -3767.5225069 -0.198954E-05  0.580E-04   10.62       2.9  T
   6  -3767.5225070 -0.149188E-06  0.211E-04   10.62       8.0  T
   7  -3767.5225071 -0.582868E-07  0.142E-04   10.62      11.8  T
     SCC iter.                  ...        8 min, 42.050 sec
     gradient                   ...        4 min, 51.620 sec
 * total energy  : -3715.8452895 Eh     change    :  -0.8467790E-01 Eh
   gradient norm :     0.3211510 Eh/a0  converged?    E=F G=F D=F
   time step     :     0.2750000 fs     power     :   0.3509386E-05
   step length   :     0.2525769 a0     speed     :   0.2221652E-01

........................................................................
.............................. CYCLE    7 ..............................
........................................................................

 iter      E             dE          RMSdq      gap      omega  full diag
   1  -3768.5096416 -0.376851E+04  0.273E-02   10.64       0.0  T
   2  -3768.5100814 -0.439847E-03  0.146E-02   10.63       1.0  T
   3  -3768.5100918 -0.103307E-04  0.562E-03   10.63       1.0  T
   4  -3768.5100959 -0.414600E-05  0.134E-03   10.63       1.3  T
   5  -3768.5100979 -0.202051E-05  0.686E-04   10.63       2.5  T
   6  -3768.5100981 -0.190370E-06  0.224E-04   10.63       7.5  T
   7  -3768.5100982 -0.635910E-07  0.155E-04   10.63      10.9  T
     SCC iter.                  ...        8 min, 43.452 sec
     gradient                   ...        4 min, 48.431 sec
 * total energy  : -3715.9195506 Eh     change    :  -0.7426107E-01 Eh
   gradient norm :     0.2645166 Eh/a0  converged?    E=F G=F D=F
   time step     :     0.3025000 fs     power     :   0.2566394E-05
   step length   :     0.3006855 a0     speed     :   0.2404375E-01

........................................................................
.............................. CYCLE    8 ..............................
........................................................................

 iter      E             dE          RMSdq      gap      omega  full diag
   1  -3769.6105162 -0.376961E+04  0.305E-02   10.65       0.0  T
   2  -3769.6109739 -0.457719E-03  0.163E-02   10.64       1.0  T
   3  -3769.6109886 -0.147206E-04  0.576E-03   10.64       1.0  T
   4  -3769.6109925 -0.383371E-05  0.131E-03   10.64       1.3  T
   5  -3769.6109937 -0.124020E-05  0.756E-04   10.64       2.2  T
   6  -3769.6109939 -0.222997E-06  0.212E-04   10.64       7.9  T
   7  -3769.6109940 -0.548421E-07  0.154E-04   10.64      10.9  T
     SCC iter.                  ...        8 min, 44.662 sec
     gradient                   ...        4 min, 48.913 sec
 * total energy  : -3715.9752616 Eh     change    :  -0.5571101E-01 Eh
   gradient norm :     0.2419050 Eh/a0  converged?    E=F G=F D=F
   time step     :     0.3327500 fs     power     :   0.1484918E-05
   step length   :     0.3447755 a0     speed     :   0.2506302E-01

........................................................................
.............................. CYCLE    9 ..............................
........................................................................

 iter      E             dE          RMSdq      gap      omega  full diag
   1  -3770.7426389 -0.377074E+04  0.324E-02   10.66       0.0  T
   2  -3770.7430161 -0.377191E-03  0.175E-02   10.65       1.0  T
   3  -3770.7430346 -0.185488E-04  0.536E-03   10.65       1.0  T
   4  -3770.7430379 -0.324391E-05  0.129E-03   10.65       1.3  T
   5  -3770.7430384 -0.473884E-06  0.741E-04   10.65       2.3  T
   6  -3770.7430386 -0.207894E-06  0.167E-04   10.65      10.1  T
     SCC iter.                  ...        7 min, 22.461 sec
     gradient                   ...        4 min, 50.789 sec
 * total energy  : -3716.0097985 Eh     change    :  -0.3453699E-01 Eh
   gradient norm :     0.2497586 Eh/a0  converged?    E=F G=F D=F
   time step     :     0.3660250 fs     power     :   0.5654394E-06
   step length   :     0.3772703 a0     speed     :   0.2493199E-01

........................................................................
.............................. CYCLE   10 ..............................
........................................................................

 iter      E             dE          RMSdq      gap      omega  full diag
   1  -3771.7931324 -0.377179E+04  0.332E-02   10.67       0.0  T
   2  -3771.7933756 -0.243134E-03  0.185E-02   10.67       1.0  T
   3  -3771.7933913 -0.157664E-04  0.471E-03   10.67       1.0  T
   4  -3771.7933995 -0.821306E-05  0.145E-03   10.67       1.2  T
   5  -3771.7934006 -0.107635E-05  0.813E-04   10.67       2.1  T
   6  -3771.7934007 -0.132303E-06  0.137E-04   10.66      12.2  T
   7  -3771.7934008 -0.213240E-07  0.104E-04   10.66      16.2  T
     SCC iter.                  ...        8 min, 37.653 sec
     gradient                   ...        4 min, 49.767 sec
 * total energy  : -3716.0267747 Eh     change    :  -0.1697616E-01 Eh
   gradient norm :     0.2592680 Eh/a0  converged?    E=F G=F D=F
   time step     :     0.4026275 fs     power     :  -0.3789708E-07
   step length   :     0.3955333 a0     speed     :   0.2376264E-01

........................................................................
.............................. CYCLE   11 ..............................
........................................................................
 * reset velocities

 iter      E             dE          RMSdq      gap      omega  full diag
   1  -3771.7746833 -0.377177E+04  0.104E-03   10.66       0.0  T
   2  -3771.7746841 -0.827583E-06  0.638E-04   10.66       2.6  T
   3  -3771.7746841 -0.107461E-07  0.268E-04   10.66       6.3  T
     SCC iter.                  ...        3 min, 41.550 sec
     gradient                   ...        4 min, 51.221 sec
 * total energy  : -3716.0292979 Eh     change    :  -0.2523244E-02 Eh
   gradient norm :     0.2530662 Eh/a0  converged?    E=F G=F D=F
   time step     :     0.2013138 fs     power     :   0.1643249E-06
   step length   :     0.0098516 a0     speed     :   0.1183715E-02

........................................................................
.............................. CYCLE   12 ..............................
........................................................................

 iter      E             dE          RMSdq      gap      omega  full diag
   1  -3771.7377256 -0.377174E+04  0.209E-03   10.66       0.0  T
   2  -3771.7377287 -0.310501E-05  0.128E-03   10.66       1.3  T
   3  -3771.7377288 -0.266523E-07  0.518E-04   10.66       3.2  T
   4  -3771.7377288 -0.797759E-07  0.135E-04   10.66      12.5  T
     SCC iter.                  ...        4 min, 56.730 sec
     gradient                   ...        4 min, 51.506 sec
 * total energy  : -3716.0341063 Eh     change    :  -0.4808311E-02 Eh
   gradient norm :     0.2409805 Eh/a0  converged?    E=F G=F D=F
   time step     :     0.2013138 fs     power     :   0.3091396E-06
   step length   :     0.0194673 a0     speed     :   0.2339091E-02

........................................................................
.............................. CYCLE   13 ..............................
........................................................................

 iter      E             dE          RMSdq      gap      omega  full diag
   1  -3771.6834711 -0.377168E+04  0.301E-03   10.66       0.0  T
   2  -3771.6834781 -0.698777E-05  0.185E-03   10.67       1.0  T
   3  -3771.6834782 -0.984396E-07  0.780E-04   10.67       2.2  T
   4  -3771.6834784 -0.180519E-06  0.206E-04   10.67       8.2  T
     SCC iter.                  ...        5 min,  6.871 sec
     gradient                   ...        4 min, 52.197 sec
 * total energy  : -3716.0407503 Eh     change    :  -0.6643990E-02 Eh
   gradient norm :     0.2234805 Eh/a0  converged?    E=F G=F D=F
   time step     :     0.2013138 fs     power     :   0.4211964E-06
   step length   :     0.0286222 a0     speed     :   0.3439098E-02

........................................................................
.............................. CYCLE   14 ..............................
........................................................................

 iter      E             dE          RMSdq      gap      omega  full diag
   1  -3771.6133474 -0.377161E+04  0.388E-03   10.67       0.0  T
   2  -3771.6133590 -0.116846E-04  0.239E-03   10.67       1.0  T
   3  -3771.6133592 -0.170028E-06  0.101E-03   10.67       1.7  T
   4  -3771.6133595 -0.300862E-06  0.267E-04   10.67       6.3  T
   5  -3771.6133596 -0.898594E-07  0.677E-05   10.67      24.8  T
     SCC iter.                  ...        6 min, 12.238 sec
     gradient                   ...        4 min, 51.937 sec
 * total energy  : -3716.0486192 Eh     change    :  -0.7868992E-02 Eh
   gradient norm :     0.2013291 Eh/a0  converged?    E=F G=F D=F
   time step     :     0.2013138 fs     power     :   0.4909064E-06
   step length   :     0.0371060 a0     speed     :   0.4458464E-02

........................................................................
.............................. CYCLE   15 ..............................
........................................................................

 iter      E             dE          RMSdq      gap      omega  full diag
   1  -3771.5292851 -0.377153E+04  0.464E-03   10.67       0.0  T
   2  -3771.5293019 -0.168620E-04  0.286E-03   10.67       1.0  T
   3  -3771.5293022 -0.249775E-06  0.121E-03   10.67       1.4  T
   4  -3771.5293026 -0.419492E-06  0.320E-04   10.67       5.3  T
   5  -3771.5293027 -0.128237E-06  0.803E-05   10.67      21.0  T
     SCC iter.                  ...        6 min, 10.928 sec
     gradient                   ...        4 min, 53.308 sec
 * total energy  : -3716.0570092 Eh     change    :  -0.8389907E-02 Eh
   gradient norm :     0.1755725 Eh/a0  converged?    E=F G=F D=F
   time step     :     0.2013138 fs     power     :   0.5133452E-06
   step length   :     0.0447300 a0     speed     :   0.5374530E-02

........................................................................
.............................. CYCLE   16 ..............................
........................................................................

 iter      E             dE          RMSdq      gap      omega  full diag
   1  -3771.4337757 -0.377143E+04  0.527E-03   10.67       0.0  T
   2  -3771.4337975 -0.218652E-04  0.325E-03   10.67       1.0  T
   3  -3771.4337978 -0.328404E-06  0.137E-03   10.67       1.2  T
   4  -3771.4337984 -0.533034E-06  0.364E-04   10.67       4.6  T
   5  -3771.4337985 -0.165312E-06  0.915E-05   10.67      18.4  T
     SCC iter.                  ...        6 min, 22.381 sec
     gradient                   ...        4 min, 53.293 sec
 * total energy  : -3716.0652040 Eh     change    :  -0.8194805E-02 Eh
   gradient norm :     0.1477804 Eh/a0  converged?    E=F G=F D=F
   time step     :     0.2013138 fs     power     :   0.4891775E-06
   step length   :     0.0513287 a0     speed     :   0.6167396E-02

........................................................................
.............................. CYCLE   17 ..............................
........................................................................

 iter      E             dE          RMSdq      gap      omega  full diag
   1  -3771.3185797 -0.377132E+04  0.637E-03   10.67       0.0  T
   2  -3771.3186118 -0.320980E-04  0.394E-03   10.67       1.0  T
   3  -3771.3186123 -0.485154E-06  0.166E-03   10.67       1.0  T
   4  -3771.3186131 -0.763027E-06  0.441E-04   10.67       3.8  T
   5  -3771.3186133 -0.240423E-06  0.109E-04   10.67      15.4  T
     SCC iter.                  ...        6 min,  8.923 sec
     gradient                   ...        4 min, 51.905 sec
 * total energy  : -3716.0732693 Eh     change    :  -0.8065341E-02 Eh
   gradient norm :     0.1175363 Eh/a0  converged?    E=F G=F D=F
   time step     :     0.2214451 fs     power     :   0.4159941E-06
   step length   :     0.0630396 a0     speed     :   0.6885932E-02

........................................................................
.............................. CYCLE   18 ..............................
........................................................................

 iter      E             dE          RMSdq      gap      omega  full diag
   1  -3771.1859026 -0.377119E+04  0.740E-03   10.68       0.0  T
   2  -3771.1859460 -0.433727E-04  0.459E-03   10.68       1.0  T
   3  -3771.1859467 -0.655660E-06  0.193E-03   10.68       1.0  T
   4  -3771.1859477 -0.100863E-05  0.513E-04   10.68       3.3  T
   5  -3771.1859480 -0.322817E-06  0.126E-04   10.68      13.3  T
   6  -3771.1859480 -0.125633E-07  0.861E-05   10.68      19.5  T
     SCC iter.                  ...        7 min, 16.004 sec
     gradient                   ...        4 min, 48.735 sec
 * total energy  : -3716.0802286 Eh     change    :  -0.6959255E-02 Eh
   gradient norm :     0.0909627 Eh/a0  converged?    E=F G=F D=F
   time step     :     0.2435896 fs     power     :   0.2973113E-06
   step length   :     0.0751833 a0     speed     :   0.7465821E-02

........................................................................
.............................. CYCLE   19 ..............................
........................................................................

 iter      E             dE          RMSdq      gap      omega  full diag
   1  -3771.0441657 -0.377104E+04  0.811E-03   10.68       0.0  T
   2  -3771.0442172 -0.514607E-04  0.506E-03   10.68       1.0  T
   3  -3771.0442179 -0.736477E-06  0.210E-03   10.68       1.0  T
   4  -3771.0442191 -0.118950E-05  0.558E-04   10.68       3.0  T
   5  -3771.0442195 -0.378877E-06  0.129E-04   10.68      13.0  T
   6  -3771.0442195 -0.110990E-07  0.838E-05   10.68      20.1  T
     SCC iter.                  ...        7 min, 15.699 sec
     gradient                   ...        4 min, 48.997 sec
 * total energy  : -3716.0851764 Eh     change    :  -0.4947856E-02 Eh
   gradient norm :     0.0812460 Eh/a0  converged?    E=F G=F D=F
   time step     :     0.2679486 fs     power     :   0.1574929E-06
   step length   :     0.0863779 a0     speed     :   0.7797694E-02

........................................................................
.............................. CYCLE   20 ..............................
........................................................................

 iter      E             dE          RMSdq      gap      omega  full diag
   1  -3770.9115751 -0.377091E+04  0.814E-03   10.69       0.0  T
   2  -3770.9116241 -0.489972E-04  0.513E-03   10.69       1.0  T
   3  -3770.9116247 -0.593509E-06  0.204E-03   10.69       1.0  T
   4  -3770.9116260 -0.122605E-05  0.549E-04   10.69       3.1  T
   5  -3770.9116263 -0.363145E-06  0.129E-04   10.69      13.0  T
   6  -3770.9116263 -0.930822E-08  0.781E-05   10.69      21.5  T
     SCC iter.                  ...        7 min, 40.256 sec
     gradient                   ...        4 min, 49.982 sec
 * total energy  : -3716.0879281 Eh     change    :  -0.2751735E-02 Eh
   gradient norm :     0.0945932 Eh/a0  converged?    E=F G=F D=F
   time step     :     0.2947435 fs     power     :   0.4742407E-07
   step length   :     0.0940387 a0     speed     :   0.7717520E-02
 * RMSD in coord.:     0.0373413 a0     energy gain  -0.7027424E+00 Eh

........................................................................
.............................. CYCLE   21 ..............................
........................................................................

 iter      E             dE          RMSdq      gap      omega  full diag
   1  -3770.8311449 -0.377083E+04  0.579E-03   10.69       0.0  T
   2  -3770.8311661 -0.212190E-04  0.368E-03   10.70       1.0  T
   3  -3770.8311662 -0.126762E-06  0.134E-03   10.70       1.3  T
   4  -3770.8311669 -0.685646E-06  0.363E-04   10.70       4.6  T
   5  -3770.8311671 -0.160564E-06  0.939E-05   10.70      17.9  T
     SCC iter.                  ...        6 min,  6.977 sec
     gradient                   ...        4 min, 53.257 sec
 * total energy  : -3716.0892346 Eh     change    :  -0.1306486E-02 Eh
   gradient norm :     0.1109430 Eh/a0  converged?    E=F G=F D=F
   time step     :     0.2500000 fs     power     :   0.2800878E-07
   step length   :     0.0746055 a0     speed     :   0.7218487E-02

........................................................................
.............................. CYCLE   22 ..............................
........................................................................

 iter      E             dE          RMSdq      gap      omega  full diag
   1  -3770.7855605 -0.377079E+04  0.477E-03   10.70       0.0  T
   2  -3770.7855704 -0.990597E-05  0.304E-03   10.70       1.0  T
   3  -3770.7855703  0.102747E-06  0.864E-04   10.70       1.9  T
   4  -3770.7855708 -0.529858E-06  0.249E-04   10.70       6.8  T
     SCC iter.                  ...        4 min, 52.468 sec
     gradient                   ...        4 min, 54.467 sec
 * total energy  : -3716.0908230 Eh     change    :  -0.1588369E-02 Eh
   gradient norm :     0.1227769 Eh/a0  converged?    E=F G=F D=F
   time step     :     0.2500000 fs     power     :   0.6112540E-07
   step length   :     0.0694472 a0     speed     :   0.6719388E-02

........................................................................
.............................. CYCLE   23 ..............................
........................................................................

 iter      E             dE          RMSdq      gap      omega  full diag
   1  -3770.7741538 -0.377077E+04  0.417E-03   10.71       0.0  T
   2  -3770.7741568 -0.301812E-05  0.260E-03   10.71       1.0  T
   3  -3770.7741567  0.111179E-06  0.394E-04   10.71       4.3  T
   4  -3770.7741570 -0.319826E-06  0.148E-04   10.71      11.4  T
     SCC iter.                  ...        4 min, 53.806 sec
     gradient                   ...        4 min, 50.321 sec
 * total energy  : -3716.0933552 Eh     change    :  -0.2532224E-02 Eh
   gradient norm :     0.1276229 Eh/a0  converged?    E=F G=F D=F
   time step     :     0.2500000 fs     power     :   0.1216014E-06
   step length   :     0.0659181 a0     speed     :   0.6377933E-02

........................................................................
.............................. CYCLE   24 ..............................
........................................................................

 iter      E             dE          RMSdq      gap      omega  full diag
   1  -3770.7945328 -0.377079E+04  0.408E-03   10.72       0.0  T
   2  -3770.7945333 -0.475442E-06  0.245E-03   10.72       1.0  T
   3  -3770.7945334 -0.906148E-07  0.180E-04   10.72       9.4  T
   4  -3770.7945334 -0.441596E-07  0.996E-05   10.72      16.9  T
     SCC iter.                  ...        5 min,  0.818 sec
     gradient                   ...        4 min, 50.205 sec
 * total energy  : -3716.0970338 Eh     change    :  -0.3678575E-02 Eh
   gradient norm :     0.1254058 Eh/a0  converged?    E=F G=F D=F
   time step     :     0.2500000 fs     power     :   0.1857074E-06
   step length   :     0.0645928 a0     speed     :   0.6249703E-02

........................................................................
.............................. CYCLE   25 ..............................
........................................................................

 iter      E             dE          RMSdq      gap      omega  full diag
   1  -3770.8433790 -0.377084E+04  0.441E-03   10.72       0.0  T
   2  -3770.8433803 -0.128958E-05  0.256E-03   10.72       1.0  T
   3  -3770.8433803 -0.236396E-07  0.356E-04   10.72       4.7  T
   4  -3770.8433805 -0.144996E-06  0.113E-04   10.72      14.8  T
     SCC iter.                  ...        4 min, 59.115 sec
     gradient                   ...        4 min, 49.647 sec
 * total energy  : -3716.1016976 Eh     change    :  -0.4663854E-02 Eh
   gradient norm :     0.1170968 Eh/a0  converged?    E=F G=F D=F
   time step     :     0.2500000 fs     power     :   0.2359801E-06
   step length   :     0.0652962 a0     speed     :   0.6317755E-02

........................................................................
.............................. CYCLE   26 ..............................
........................................................................

 iter      E             dE          RMSdq      gap      omega  full diag
   1  -3770.9257437 -0.377093E+04  0.549E-03   10.73       0.0  T
   2  -3770.9257492 -0.545708E-05  0.313E-03   10.73       1.0  T
   3  -3770.9257491  0.110899E-06  0.749E-04   10.73       2.2  T
   4  -3770.9257495 -0.445409E-06  0.169E-04   10.73      10.0  T
     SCC iter.                  ...        4 min, 57.473 sec
     gradient                   ...        4 min, 49.847 sec
 * total energy  : -3716.1075224 Eh     change    :  -0.5824779E-02 Eh
   gradient norm :     0.1028056 Eh/a0  converged?    E=F G=F D=F
   time step     :     0.2750000 fs     power     :   0.2621017E-06
   step length   :     0.0747172 a0     speed     :   0.6572085E-02

........................................................................
.............................. CYCLE   27 ..............................
........................................................................

 iter      E             dE          RMSdq      gap      omega  full diag
   1  -3771.0431434 -0.377104E+04  0.677E-03   10.74       0.0  T
   2  -3771.0431564 -0.129424E-04  0.383E-03   10.74       1.0  T
   3  -3771.0431562  0.161973E-06  0.112E-03   10.74       1.5  T
   4  -3771.0431570 -0.750553E-06  0.244E-04   10.74       6.9  T
   5  -3771.0431571 -0.951518E-07  0.115E-04   10.74      14.6  T
     SCC iter.                  ...        6 min, 10.038 sec
     gradient                   ...        4 min, 51.421 sec
 * total energy  : -3716.1139840 Eh     change    :  -0.6461556E-02 Eh
   gradient norm :     0.0849021 Eh/a0  converged?    E=F G=F D=F
   time step     :     0.3025000 fs     power     :   0.2540064E-06
   step length   :     0.0868746 a0     speed     :   0.6946763E-02

........................................................................
.............................. CYCLE   28 ..............................
........................................................................

 iter      E             dE          RMSdq      gap      omega  full diag
   1  -3771.1931742 -0.377119E+04  0.803E-03   10.75       0.0  T
   2  -3771.1931962 -0.220326E-04  0.452E-03   10.75       1.0  T
   3  -3771.1931960  0.153561E-06  0.141E-03   10.75       1.2  T
   4  -3771.1931970 -0.975891E-06  0.312E-04   10.75       5.4  T
   5  -3771.1931972 -0.157264E-06  0.128E-04   10.75      13.2  T
     SCC iter.                  ...        6 min,  9.950 sec
     gradient                   ...        4 min, 50.531 sec
 * total energy  : -3716.1202948 Eh     change    :  -0.6310832E-02 Eh
   gradient norm :     0.0699217 Eh/a0  converged?    E=F G=F D=F
   time step     :     0.3327500 fs     power     :   0.2123027E-06
   step length   :     0.1010974 a0     speed     :   0.7349152E-02

........................................................................
.............................. CYCLE   29 ..............................
........................................................................

 iter      E             dE          RMSdq      gap      omega  full diag
   1  -3771.3646468 -0.377136E+04  0.888E-03   10.76       0.0  T
   2  -3771.3646740 -0.271817E-04  0.498E-03   10.76       1.0  T
   3  -3771.3646739  0.987643E-07  0.151E-03   10.76       1.1  T
   4  -3771.3646749 -0.999434E-06  0.346E-04   10.76       4.9  T
   5  -3771.3646751 -0.190691E-06  0.136E-04   10.76      12.4  T
     SCC iter.                  ...        6 min,  7.404 sec
     gradient                   ...        4 min, 50.937 sec
 * total energy  : -3716.1257888 Eh     change    :  -0.5493935E-02 Eh
   gradient norm :     0.0673744 Eh/a0  converged?    E=F G=F D=F
   time step     :     0.3660250 fs     power     :   0.1566476E-06
   step length   :     0.1158757 a0     speed     :   0.7657671E-02

........................................................................
.............................. CYCLE   30 ..............................
........................................................................

 iter      E             dE          RMSdq      gap      omega  full diag
   1  -3771.5339086 -0.377153E+04  0.893E-03   10.77       0.0  T
   2  -3771.5339306 -0.220267E-04  0.499E-03   10.77       1.0  T
   3  -3771.5339307 -0.427190E-07  0.132E-03   10.77       1.3  T
   4  -3771.5339314 -0.668135E-06  0.303E-04   10.77       5.6  T
   5  -3771.5339315 -0.137726E-06  0.130E-04   10.77      12.9  T
     SCC iter.                  ...        6 min, 16.490 sec
     gradient                   ...        4 min, 52.092 sec
 * total energy  : -3716.1305423 Eh     change    :  -0.4753573E-02 Eh
   gradient norm :     0.0755928 Eh/a0  converged?    E=F G=F D=F
   time step     :     0.4026275 fs     power     :   0.1214889E-06
   step length   :     0.1290297 a0     speed     :   0.7751779E-02

........................................................................
.............................. CYCLE   31 ..............................
........................................................................

 iter      E             dE          RMSdq      gap      omega  full diag
   1  -3771.6738419 -0.377167E+04  0.833E-03   10.78       0.0  T
   2  -3771.6738520 -0.100566E-04  0.469E-03   10.78       1.0  T
   3  -3771.6738523 -0.291548E-06  0.842E-04   10.78       2.0  T
   4  -3771.6738525 -0.198442E-06  0.196E-04   10.78       8.6  T
     SCC iter.                  ...        4 min, 57.962 sec
     gradient                   ...        4 min, 49.701 sec
 * total energy  : -3716.1354652 Eh     change    :  -0.4922837E-02 Eh
   gradient norm :     0.0816528 Eh/a0  converged?    E=F G=F D=F
   time step     :     0.4428903 fs     power     :   0.1228252E-06
   step length   :     0.1410896 a0     speed     :   0.7705733E-02

........................................................................
.............................. CYCLE   32 ..............................
........................................................................

 iter      E             dE          RMSdq      gap      omega  full diag
   1  -3771.7618669 -0.377176E+04  0.772E-03   10.79       0.0  T
   2  -3771.7618695 -0.267707E-05  0.452E-03   10.79       1.0  T
   3  -3771.7618694  0.143800E-06  0.619E-04   10.79       2.7  T
   4  -3771.7618701 -0.697488E-06  0.187E-04   10.79       9.0  T
     SCC iter.                  ...        4 min, 57.895 sec
     gradient                   ...        4 min, 51.770 sec
 * total energy  : -3716.1414466 Eh     change    :  -0.5981437E-02 Eh
   gradient norm :     0.0773774 Eh/a0  converged?    E=F G=F D=F
   time step     :     0.4871793 fs     power     :   0.1416176E-06
   step length   :     0.1553039 a0     speed     :   0.7710963E-02

........................................................................
.............................. CYCLE   33 ..............................
........................................................................

 iter      E             dE          RMSdq      gap      omega  full diag
   1  -3771.7835354 -0.377178E+04  0.773E-03   10.79       0.0  T
   2  -3771.7835457 -0.102812E-04  0.484E-03   10.79       1.0  T
   3  -3771.7835443  0.137357E-05  0.113E-03   10.79       1.5  T
   4  -3771.7835469 -0.256039E-05  0.226E-04   10.80       7.4  T
   5  -3771.7835469 -0.355194E-07  0.129E-04   10.80      13.0  T
   6  -3771.7835469 -0.101600E-07  0.571E-05   10.80      29.4  T
     SCC iter.                  ...        7 min, 26.642 sec
     gradient                   ...        4 min, 50.619 sec
 * total energy  : -3716.1483368 Eh     change    :  -0.6890156E-02 Eh
   gradient norm :     0.0644604 Eh/a0  converged?    E=F G=F D=F
   time step     :     0.5358972 fs     power     :   0.1423575E-06
   step length   :     0.1740001 a0     speed     :   0.7853857E-02

........................................................................
.............................. CYCLE   34 ..............................
........................................................................

 iter      E             dE          RMSdq      gap      omega  full diag
   1  -3771.7418202 -0.377174E+04  0.832E-03   10.81       0.0  T
   2  -3771.7418496 -0.294260E-04  0.542E-03   10.81       1.0  T
   3  -3771.7418490  0.615186E-06  0.165E-03   10.81       1.0  T
   4  -3771.7418513 -0.231215E-05  0.395E-04   10.81       4.3  T
   5  -3771.7418515 -0.214618E-06  0.160E-04   10.81      10.5  T
   6  -3771.7418515 -0.196633E-07  0.846E-05   10.81      19.9  T
     SCC iter.                  ...        7 min, 33.621 sec
     gradient                   ...        4 min, 49.962 sec
 * total energy  : -3716.1549258 Eh     change    :  -0.6588997E-02 Eh
   gradient norm :     0.0573951 Eh/a0  converged?    E=F G=F D=F
   time step     :     0.5894869 fs     power     :   0.1112715E-06
   step length   :     0.1963829 a0     speed     :   0.8058322E-02

........................................................................
.............................. CYCLE   35 ..............................
........................................................................

 iter      E             dE          RMSdq      gap      omega  full diag
   1  -3771.6752394 -0.377168E+04  0.884E-03   10.82       0.0  T
   2  -3771.6752731 -0.337206E-04  0.566E-03   10.82       1.0  T
   3  -3771.6752730  0.912291E-07  0.157E-03   10.82       1.1  T
   4  -3771.6752745 -0.151697E-05  0.485E-04   10.83       3.5  T
   5  -3771.6752748 -0.291501E-06  0.176E-04   10.83       9.5  T
   6  -3771.6752748 -0.189157E-07  0.792E-05   10.83      21.2  T
     SCC iter.                  ...        7 min, 29.172 sec
     gradient                   ...        4 min, 49.518 sec
 * total energy  : -3716.1606796 Eh     change    :  -0.5753833E-02 Eh
   gradient norm :     0.0636036 Eh/a0  converged?    E=F G=F D=F
   time step     :     0.6484356 fs     power     :   0.8456128E-07
   step length   :     0.2182112 a0     speed     :   0.8140017E-02

........................................................................
.............................. CYCLE   36 ..............................
........................................................................

 iter      E             dE          RMSdq      gap      omega  full diag
   1  -3771.6449951 -0.377164E+04  0.986E-03   10.85       0.0  T
   2  -3771.6450098 -0.147386E-04  0.592E-03   10.85       1.0  T
   3  -3771.6450106 -0.803243E-06  0.871E-04   10.85       1.9  T
   4  -3771.6450110 -0.401918E-06  0.314E-04   10.85       5.4  T
     SCC iter.                  ...        4 min, 58.454 sec
     gradient                   ...        4 min, 51.442 sec
 * total energy  : -3716.1667694 Eh     change    :  -0.6089857E-02 Eh
   gradient norm :     0.0634499 Eh/a0  converged?    E=F G=F D=F
   time step     :     0.7132792 fs     power     :   0.8804508E-07
   step length   :     0.2390415 a0     speed     :   0.8106417E-02

........................................................................
.............................. CYCLE   37 ..............................
........................................................................

 iter      E             dE          RMSdq      gap      omega  full diag
   1  -3771.6961869 -0.377170E+04  0.120E-02   10.88       0.0  T
   2  -3771.6961948 -0.796803E-05  0.693E-03   10.88       1.0  T
   3  -3771.6961946  0.210853E-06  0.122E-03   10.88       1.4  T
   4  -3771.6961967 -0.207254E-05  0.345E-04   10.88       4.9  T
   5  -3771.6961967 -0.139685E-07  0.117E-04   10.88      14.4  T
   6  -3771.6961967 -0.526097E-08  0.295E-05   10.88      57.0  T
     SCC iter.                  ...        7 min, 34.886 sec
     gradient                   ...        4 min, 51.368 sec
 * total energy  : -3716.1734680 Eh     change    :  -0.6698584E-02 Eh
   gradient norm :     0.0515152 Eh/a0  converged?    E=F G=F D=F
   time step     :     0.7846071 fs     power     :   0.8180237E-07
   step length   :     0.2644288 a0     speed     :   0.8152140E-02

........................................................................
.............................. CYCLE   38 ..............................
........................................................................

 iter      E             dE          RMSdq      gap      omega  full diag
   1  -3771.8267525 -0.377183E+04  0.132E-02   10.91       0.0  T
   2  -3771.8267757 -0.231302E-04  0.763E-03   10.91       1.0  T
   3  -3771.8267746  0.103249E-05  0.168E-03   10.91       1.0  T
   4  -3771.8267778 -0.320326E-05  0.358E-04   10.91       4.7  T
   5  -3771.8267780 -0.108962E-06  0.177E-04   10.91       9.5  T
   6  -3771.8267780 -0.936870E-08  0.580E-05   10.91      29.0  T
     SCC iter.                  ...        7 min, 25.251 sec
     gradient                   ...        5 min,  0.355 sec
 * total energy  : -3716.1790204 Eh     change    :  -0.5552370E-02 Eh
   gradient norm :     0.0531633 Eh/a0  converged?    E=F G=F D=F
   time step     :     0.8630678 fs     power     :   0.4721981E-07
   step length   :     0.2927681 a0     speed     :   0.8205291E-02

........................................................................
.............................. CYCLE   39 ..............................
........................................................................

 iter      E             dE          RMSdq      gap      omega  full diag
   1  -3771.9598364 -0.377196E+04  0.118E-02   10.93       0.0  T
   2  -3771.9598503 -0.139411E-04  0.684E-03   10.93       1.0  T
   3  -3771.9598507 -0.391327E-06  0.999E-04   10.93       1.7  T
   4  -3771.9598515 -0.748479E-06  0.271E-04   10.93       6.2  T
     SCC iter.                  ...        5 min,  2.734 sec
     gradient                   ...        4 min, 50.188 sec
 * total energy  : -3716.1840733 Eh     change    :  -0.5052879E-02 Eh
   gradient norm :     0.0580918 Eh/a0  converged?    E=F G=F D=F
   time step     :     0.9493746 fs     power     :   0.4374820E-07
   step length   :     0.3164664 a0     speed     :   0.8063157E-02

........................................................................
.............................. CYCLE   40 ..............................
........................................................................

 iter      E             dE          RMSdq      gap      omega  full diag
   1  -3772.0275233 -0.377203E+04  0.114E-02   10.95       0.0  T
   2  -3772.0275388 -0.154281E-04  0.685E-03   10.95       1.0  T
   3  -3772.0275368  0.196102E-05  0.156E-03   10.95       1.1  T
   4  -3772.0275413 -0.450666E-05  0.331E-04   10.95       5.1  T
   5  -3772.0275413 -0.346004E-07  0.177E-04   10.95       9.5  T
   6  -3772.0275414 -0.148548E-07  0.659E-05   10.95      25.5  T
     SCC iter.                  ...        7 min, 23.104 sec
     gradient                   ...        4 min, 50.295 sec
 * total energy  : -3716.1900638 Eh     change    :  -0.5990481E-02 Eh
   gradient norm :     0.0489737 Eh/a0  converged?    E=F G=F D=F
   time step     :     1.0443120 fs     power     :   0.4614254E-07
   step length   :     0.3446452 a0     speed     :   0.7982832E-02

........................................................................
.............................. CYCLE   41 ..............................
........................................................................

 iter      E             dE          RMSdq      gap      omega  full diag
   1  -3772.0491946 -0.377205E+04  0.126E-02   10.97       0.0  T
   2  -3772.0492247 -0.300290E-04  0.777E-03   10.97       1.0  T
   3  -3772.0492228  0.182310E-05  0.171E-03   10.97       1.0  T
   4  -3772.0492275 -0.467210E-05  0.425E-04   10.97       4.0  T
   5  -3772.0492277 -0.169912E-06  0.225E-04   10.97       7.5  T
   6  -3772.0492277 -0.323957E-07  0.100E-04   10.97      16.8  T
     SCC iter.                  ...        7 min, 28.075 sec
     gradient                   ...        4 min, 49.600 sec
 * total energy  : -3716.1951557 Eh     change    :  -0.5091992E-02 Eh
   gradient norm :     0.0496942 Eh/a0  converged?    E=F G=F D=F
   time step     :     1.1487432 fs     power     :   0.2268761E-07
   step length   :     0.3776862 a0     speed     :   0.7952857E-02

........................................................................
.............................. CYCLE   42 ..............................
........................................................................

 iter      E             dE          RMSdq      gap      omega  full diag
   1  -3772.1192311 -0.377212E+04  0.141E-02   11.00       0.0  T
   2  -3772.1192392 -0.802235E-05  0.818E-03   11.00       1.0  T
   3  -3772.1192394 -0.281637E-06  0.100E-03   11.00       1.7  T
   4  -3772.1192406 -0.119644E-05  0.325E-04   11.00       5.2  T
   5  -3772.1192407 -0.281921E-07  0.158E-04   11.00      10.7  T
     SCC iter.                  ...        6 min, 18.194 sec
     gradient                   ...        4 min, 50.528 sec
 * total energy  : -3716.1993177 Eh     change    :  -0.4161930E-02 Eh
   gradient norm :     0.0469413 Eh/a0  converged?    E=F G=F D=F
   time step     :     1.2500000 fs     power     :   0.1069849E-07
   step length   :     0.4018285 a0     speed     :   0.7775813E-02
 * RMSD in coord.:     0.0599031 a0     energy gain  -0.1113895E+00 Eh

........................................................................
.............................. CYCLE   43 ..............................
........................................................................

 iter      E             dE          RMSdq      gap      omega  full diag
   1  -3772.1334140 -0.377213E+04  0.238E-03   11.00       0.0  T
   2  -3772.1334143 -0.268577E-06  0.137E-03   11.00       1.2  T
   3  -3772.1334143  0.940463E-08  0.201E-04   11.00       8.4  T
   4  -3772.1334143 -0.563450E-07  0.551E-05   11.00      30.5  T
     SCC iter.                  ...        5 min,  0.674 sec
     gradient                   ...        4 min, 50.725 sec
 * total energy  : -3716.1999262 Eh     change    :  -0.6085481E-03 Eh
   gradient norm :     0.0471103 Eh/a0  converged?    E=F G=F D=F
   time step     :     0.2500000 fs     power     :   0.2809040E-07
   step length   :     0.0736970 a0     speed     :   0.7130578E-02

........................................................................
.............................. CYCLE   44 ..............................
........................................................................

 iter      E             dE          RMSdq      gap      omega  full diag
   1  -3772.1466619 -0.377215E+04  0.229E-03   11.01       0.0  T
   2  -3772.1466624 -0.532346E-06  0.135E-03   11.01       1.2  T
   3  -3772.1466624  0.201439E-07  0.234E-04   11.01       7.2  T
   4  -3772.1466625 -0.668392E-07  0.507E-05   11.01      33.1  T
     SCC iter.                  ...        4 min, 56.665 sec
     gradient                   ...        4 min, 51.497 sec
 * total energy  : -3716.2007981 Eh     change    :  -0.8718727E-03 Eh
   gradient norm :     0.0435415 Eh/a0  converged?    E=F G=F D=F
   time step     :     0.2500000 fs     power     :   0.4194476E-07
   step length   :     0.0686059 a0     speed     :   0.6637993E-02

........................................................................
.............................. CYCLE   45 ..............................
........................................................................

 iter      E             dE          RMSdq      gap      omega  full diag
   1  -3772.1573506 -0.377216E+04  0.245E-03   11.01       0.0  T
   2  -3772.1573515 -0.845760E-06  0.147E-03   11.01       1.1  T
   3  -3772.1573515  0.658474E-08  0.260E-04   11.01       6.5  T
   4  -3772.1573515 -0.680830E-07  0.619E-05   11.01      27.2  T
     SCC iter.                  ...        4 min, 58.272 sec
     gradient                   ...        4 min, 52.679 sec
 * total energy  : -3716.2018078 Eh     change    :  -0.1009686E-02 Eh
   gradient norm :     0.0373523 Eh/a0  converged?    E=F G=F D=F
   time step     :     0.2500000 fs     power     :   0.4767434E-07
   step length   :     0.0648734 a0     speed     :   0.6276848E-02

........................................................................
.............................. CYCLE   46 ..............................
........................................................................

 iter      E             dE          RMSdq      gap      omega  full diag
   1  -3772.1637909 -0.377216E+04  0.269E-03   11.02       0.0  T
   2  -3772.1637920 -0.103770E-05  0.163E-03   11.02       1.0  T
   3  -3772.1637920 -0.117661E-07  0.273E-04   11.02       6.2  T
   4  -3772.1637920 -0.715445E-07  0.730E-05   11.02      23.0  T
     SCC iter.                  ...        5 min,  2.490 sec
     gradient                   ...        4 min, 54.564 sec
 * total energy  : -3716.2027932 Eh     change    :  -0.9853675E-03 Eh
   gradient norm :     0.0303050 Eh/a0  converged?    E=F G=F D=F
   time step     :     0.2500000 fs     power     :   0.4448273E-07
   step length   :     0.0621268 a0     speed     :   0.6011103E-02

........................................................................
.............................. CYCLE   47 ..............................
........................................................................

 iter      E             dE          RMSdq      gap      omega  full diag
   1  -3772.1643132 -0.377216E+04  0.287E-03   11.02       0.0  T
   2  -3772.1643142 -0.101849E-05  0.174E-03   11.02       1.0  T
   3  -3772.1643143 -0.242039E-07  0.271E-04   11.02       6.2  T
   4  -3772.1643143 -0.812734E-07  0.820E-05   11.02      20.5  T
     SCC iter.                  ...        4 min, 58.056 sec
     gradient                   ...        4 min, 52.710 sec
 * total energy  : -3716.2036203 Eh     change    :  -0.8271054E-03 Eh
   gradient norm :     0.0249917 Eh/a0  converged?    E=F G=F D=F
   time step     :     0.2500000 fs     power     :   0.3490776E-07
   step length   :     0.0598987 a0     speed     :   0.5795523E-02

........................................................................
.............................. CYCLE   48 ..............................
........................................................................

 iter      E             dE          RMSdq      gap      omega  full diag
   1  -3772.1570615 -0.377216E+04  0.319E-03   11.02       0.0  T
   2  -3772.1570625 -0.987479E-06  0.191E-03   11.02       1.0  T
   3  -3772.1570626 -0.209652E-07  0.297E-04   11.02       5.7  T
   4  -3772.1570627 -0.125059E-06  0.967E-05   11.02      17.4  T
     SCC iter.                  ...        4 min, 57.281 sec
     gradient                   ...        4 min, 53.286 sec
 * total energy  : -3716.2042842 Eh     change    :  -0.6639294E-03 Eh
   gradient norm :     0.0239616 Eh/a0  converged?    E=F G=F D=F
   time step     :     0.2750000 fs     power     :   0.2255116E-07
   step length   :     0.0634193 a0     speed     :   0.5578323E-02

........................................................................
.............................. CYCLE   49 ..............................
........................................................................

 iter      E             dE          RMSdq      gap      omega  full diag
   1  -3772.1415589 -0.377214E+04  0.325E-03   11.03       0.0  T
   2  -3772.1415597 -0.849004E-06  0.192E-03   11.03       1.0  T
   3  -3772.1415597  0.526825E-08  0.325E-04   11.03       5.2  T
   4  -3772.1415599 -0.174677E-06  0.102E-04   11.03      16.5  T
     SCC iter.                  ...        4 min, 55.794 sec
     gradient                   ...        4 min, 52.455 sec
 * total energy  : -3716.2047827 Eh     change    :  -0.4985221E-03 Eh
   gradient norm :     0.0271711 Eh/a0  converged?    E=F G=F D=F
   time step     :     0.3025000 fs     power     :   0.1399665E-07
   step length   :     0.0661630 a0     speed     :   0.5290598E-02

........................................................................
.............................. CYCLE   50 ..............................
........................................................................

 iter      E             dE          RMSdq      gap      omega  full diag
   1  -3772.1201412 -0.377212E+04  0.313E-03   11.03       0.0  T
   2  -3772.1201420 -0.810340E-06  0.181E-03   11.03       1.0  T
   3  -3772.1201419  0.186219E-07  0.333E-04   11.03       5.0  T
   4  -3772.1201421 -0.175863E-06  0.944E-05   11.03      17.8  T
     SCC iter.                  ...        4 min, 57.278 sec
     gradient                   ...        4 min, 57.760 sec
 * total energy  : -3716.2052325 Eh     change    :  -0.4497957E-03 Eh
   gradient norm :     0.0308596 Eh/a0  converged?    E=F G=F D=F
   time step     :     0.3327500 fs     power     :   0.1245566E-07
   step length   :     0.0681209 a0     speed     :   0.4951960E-02

........................................................................
.............................. CYCLE   51 ..............................
........................................................................

 iter      E             dE          RMSdq      gap      omega  full diag
   1  -3772.0962673 -0.377210E+04  0.302E-03   11.03       0.0  T
   2  -3772.0962682 -0.919484E-06  0.172E-03   11.03       1.0  T
   3  -3772.0962682  0.113241E-07  0.322E-04   11.03       5.2  T
   4  -3772.0962683 -0.131088E-06  0.804E-05   11.03      20.9  T
     SCC iter.                  ...        5 min,  2.879 sec
     gradient                   ...        4 min, 52.244 sec
 * total energy  : -3716.2057820 Eh     change    :  -0.5494771E-03 Eh
   gradient norm :     0.0323505 Eh/a0  converged?    E=F G=F D=F
   time step     :     0.3660250 fs     power     :   0.1611896E-07
   step length   :     0.0701895 a0     speed     :   0.4638486E-02

........................................................................
.............................. CYCLE   52 ..............................
........................................................................

 iter      E             dE          RMSdq      gap      omega  full diag
   1  -3772.0738835 -0.377207E+04  0.309E-03   11.04       0.0  T
   2  -3772.0738846 -0.107268E-05  0.178E-03   11.04       1.0  T
   3  -3772.0738846  0.457476E-09  0.303E-04   11.04       5.5  T
   4  -3772.0738847 -0.842538E-07  0.668E-05   11.04      25.2  T
     SCC iter.                  ...        5 min,  0.264 sec
     gradient                   ...        4 min, 51.895 sec
 * total energy  : -3716.2065186 Eh     change    :  -0.7366149E-03 Eh
   gradient norm :     0.0308339 Eh/a0  converged?    E=F G=F D=F
   time step     :     0.4026275 fs     power     :   0.2082828E-07
   step length   :     0.0732128 a0     speed     :   0.4398440E-02

........................................................................
.............................. CYCLE   53 ..............................
........................................................................

 iter      E             dE          RMSdq      gap      omega  full diag
   1  -3772.0574480 -0.377206E+04  0.340E-03   11.04       0.0  T
   2  -3772.0574491 -0.109697E-05  0.198E-03   11.04       1.0  T
   3  -3772.0574491 -0.944510E-08  0.280E-04   11.04       6.0  T
   4  -3772.0574492 -0.657519E-07  0.607E-05   11.04      27.7  T
     SCC iter.                  ...        4 min, 54.463 sec
     gradient                   ...        4 min, 52.748 sec
 * total energy  : -3716.2074159 Eh     change    :  -0.8973388E-03 Eh
   gradient norm :     0.0270084 Eh/a0  converged?    E=F G=F D=F
   time step     :     0.4428903 fs     power     :   0.2260173E-07
   step length   :     0.0776684 a0     speed     :   0.4241926E-02

........................................................................
.............................. CYCLE   54 ..............................
........................................................................

 iter      E             dE          RMSdq      gap      omega  full diag
   1  -3772.0516551 -0.377205E+04  0.378E-03   11.04       0.0  T
   2  -3772.0516560 -0.902359E-06  0.223E-03   11.04       1.0  T
   3  -3772.0516560 -0.457339E-08  0.274E-04   11.04       6.1  T
   4  -3772.0516561 -0.100905E-06  0.780E-05   11.04      21.6  T
     SCC iter.                  ...        4 min, 59.406 sec
     gradient                   ...        4 min, 55.853 sec
 * total energy  : -3716.2083440 Eh     change    :  -0.9280223E-03 Eh
   gradient norm :     0.0231221 Eh/a0  converged?    E=F G=F D=F
   time step     :     0.4871793 fs     power     :   0.1973371E-07
   step length   :     0.0834820 a0     speed     :   0.4144947E-02

........................................................................
.............................. CYCLE   55 ..............................
........................................................................

 iter      E             dE          RMSdq      gap      omega  full diag
   1  -3772.0597506 -0.377206E+04  0.397E-03   11.04       0.0  T
   2  -3772.0597513 -0.763595E-06  0.234E-03   11.05       1.0  T
   3  -3772.0597513  0.240866E-07  0.317E-04   11.05       5.3  T
   4  -3772.0597515 -0.185448E-06  0.103E-04   11.05      16.3  T
     SCC iter.                  ...        4 min, 51.070 sec
     gradient                   ...        5 min,  1.382 sec
 * total energy  : -3716.2091622 Eh     change    :  -0.8182500E-03 Eh
   gradient norm :     0.0219838 Eh/a0  converged?    E=F G=F D=F
   time step     :     0.5358972 fs     power     :   0.1415579E-07
   step length   :     0.0898714 a0     speed     :   0.4056533E-02

........................................................................
.............................. CYCLE   56 ..............................
........................................................................

 iter      E             dE          RMSdq      gap      omega  full diag
   1  -3772.0798498 -0.377208E+04  0.380E-03   11.05       0.0  T
   2  -3772.0798509 -0.114794E-05  0.224E-03   11.05       1.0  T
   3  -3772.0798509  0.717864E-08  0.365E-04   11.05       4.6  T
   4  -3772.0798511 -0.187266E-06  0.116E-04   11.05      14.5  T
     SCC iter.                  ...        4 min, 56.686 sec
     gradient                   ...        4 min, 51.270 sec
 * total energy  : -3716.2098529 Eh     change    :  -0.6906775E-03 Eh
   gradient norm :     0.0237798 Eh/a0  converged?    E=F G=F D=F
   time step     :     0.5894869 fs     power     :   0.1017931E-07
   step length   :     0.0957262 a0     speed     :   0.3928000E-02

........................................................................
.............................. CYCLE   57 ..............................
........................................................................

 iter      E             dE          RMSdq      gap      omega  full diag
   1  -3772.1042373 -0.377210E+04  0.348E-03   11.05       0.0  T
   2  -3772.1042389 -0.162608E-05  0.204E-03   11.05       1.0  T
   3  -3772.1042390 -0.372474E-07  0.382E-04   11.05       4.4  T
   4  -3772.1042391 -0.112055E-06  0.109E-04   11.05      15.4  T
     SCC iter.                  ...        4 min, 50.659 sec
     gradient                   ...        4 min, 50.984 sec
 * total energy  : -3716.2105623 Eh     change    :  -0.7093727E-03 Eh
   gradient norm :     0.0259499 Eh/a0  converged?    E=F G=F D=F
   time step     :     0.6484356 fs     power     :   0.1053055E-07
   step length   :     0.1011799 a0     speed     :   0.3774354E-02

........................................................................
.............................. CYCLE   58 ..............................
........................................................................

 iter      E             dE          RMSdq      gap      omega  full diag
   1  -3772.1230218 -0.377212E+04  0.336E-03   11.06       0.0  T
   2  -3772.1230231 -0.131859E-05  0.197E-03   11.06       1.0  T
   3  -3772.1230231 -0.527039E-07  0.328E-04   11.06       5.1  T
   4  -3772.1230232 -0.701048E-07  0.926E-05   11.06      18.2  T
     SCC iter.                  ...        4 min, 55.114 sec
     gradient                   ...        4 min, 50.740 sec
 * total energy  : -3716.2114900 Eh     change    :  -0.9277824E-03 Eh
   gradient norm :     0.0256926 Eh/a0  converged?    E=F G=F D=F
   time step     :     0.7132792 fs     power     :   0.1410621E-07
   step length   :     0.1078996 a0     speed     :   0.3659108E-02

........................................................................
.............................. CYCLE   59 ..............................
........................................................................

 iter      E             dE          RMSdq      gap      omega  full diag
   1  -3772.1272492 -0.377213E+04  0.372E-03   11.06       0.0  T
   2  -3772.1272499 -0.724072E-06  0.217E-03   11.06       1.0  T
   3  -3772.1272500 -0.658633E-07  0.287E-04   11.06       5.9  T
   4  -3772.1272501 -0.839200E-07  0.993E-05   11.06      16.9  T
     SCC iter.                  ...        5 min,  4.741 sec
     gradient                   ...        4 min, 50.131 sec
 * total energy  : -3716.2126745 Eh     change    :  -0.1184507E-02 Eh
   gradient norm :     0.0220009 Eh/a0  converged?    E=F G=F D=F
   time step     :     0.7846071 fs     power     :   0.1615791E-07
   step length   :     0.1176027 a0     speed     :   0.3625603E-02

........................................................................
.............................. CYCLE   60 ..............................
........................................................................

 iter      E             dE          RMSdq      gap      omega  full diag
   1  -3772.1119460 -0.377211E+04  0.436E-03   11.07       0.0  T
   2  -3772.1119475 -0.147588E-05  0.254E-03   11.07       1.0  T
   3  -3772.1119475 -0.959358E-07  0.404E-04   11.07       4.2  T
   4  -3772.1119477 -0.127234E-06  0.120E-04   11.07      14.0  T
     SCC iter.                  ...        4 min, 55.768 sec
     gradient                   ...        4 min, 50.021 sec
 * total energy  : -3716.2138754 Eh     change    :  -0.1200885E-02 Eh
   gradient norm :     0.0200244 Eh/a0  converged?    E=F G=F D=F
   time step     :     0.8630678 fs     power     :   0.1312309E-07
   step length   :     0.1302140 a0     speed     :   0.3649454E-02

........................................................................
.............................. CYCLE   61 ..............................
........................................................................

 iter      E             dE          RMSdq      gap      omega  full diag
   1  -3772.0827291 -0.377208E+04  0.447E-03   11.07       0.0  T
   2  -3772.0827314 -0.234923E-05  0.257E-03   11.07       1.0  T
   3  -3772.0827315 -0.101984E-06  0.488E-04   11.07       3.4  T
   4  -3772.0827317 -0.133479E-06  0.123E-04   11.07      13.7  T
     SCC iter.                  ...        4 min, 54.616 sec
     gradient                   ...        4 min, 53.357 sec
 * total energy  : -3716.2150047 Eh     change    :  -0.1129273E-02 Eh
   gradient norm :     0.0228480 Eh/a0  converged?    E=F G=F D=F
   time step     :     0.9493746 fs     power     :   0.1134072E-07
   step length   :     0.1430602 a0     speed     :   0.3644990E-02

........................................................................
.............................. CYCLE   62 ..............................
........................................................................

 iter      E             dE          RMSdq      gap      omega  full diag
   1  -3772.0575855 -0.377206E+04  0.423E-03   11.08       0.0  T
   2  -3772.0575872 -0.170362E-05  0.242E-03   11.08       1.0  T
   3  -3772.0575873 -0.951618E-07  0.439E-04   11.08       3.8  T
   4  -3772.0575874 -0.127147E-06  0.119E-04   11.08      14.1  T
     SCC iter.                  ...        5 min,  2.379 sec
     gradient                   ...        4 min, 52.567 sec
 * total energy  : -3716.2163820 Eh     change    :  -0.1377343E-02 Eh
   gradient norm :     0.0210497 Eh/a0  converged?    E=F G=F D=F
   time step     :     1.0443120 fs     power     :   0.1388871E-07
   step length   :     0.1570405 a0     speed     :   0.3637445E-02

........................................................................
.............................. CYCLE   63 ..............................
........................................................................

 iter      E             dE          RMSdq      gap      omega  full diag
   1  -3772.0600731 -0.377206E+04  0.489E-03   11.08       0.0  T
[...]
  3284   6 C     3286   6 C                                       1.5358594
  3286   6 C     3287   6 C                                       1.5329048
  3287   6 C     3288   6 C                                       1.5292390
  3287   6 C     3289   6 C                                       1.5326650
  3289   6 C     3290   6 C                                       1.5377074
  3290   6 C     3291   6 C                                       1.5263148
  3290   6 C     3292   6 C                                       1.5338592
  3292   6 C     3293   6 C                                       1.5349463
  3293   6 C     3294   6 C                                       1.5287604
  3293   6 C     3295   6 C                                       1.5327479
  3295   6 C     3296   6 C                                       1.5369422
  3296   6 C     3297   6 C                                       1.5290598
  3296   6 C     3298   6 C                                       1.5321768
  3298   6 C     3299   6 C                                       1.5341771
  3299   6 C     3300   6 C                                       1.5276084
  3299   6 C     3301   6 C                                       1.5324680
  3301   6 C     3302   6 C                                       1.5348698
  3302   6 C     3303   6 C                                       1.5270879
  3302   6 C     3304   6 C                                       1.5342950
  3304   6 C     3305   6 C                                       1.5345737
  3305   6 C     3306   6 C                                       1.5291862
  3307   6 C     3308   6 C                                       1.5337780
  3308   6 C     3309   6 C                                       1.5279749
  3308   6 C     3310   6 C                                       1.5369948
  3310   6 C     3311   6 C                                       1.5350654
  3311   6 C     3312   6 C                                       1.5272642
  3311   6 C     3313   6 C                                       1.5380082
  3313   6 C     3314   6 C                                       1.5387602
  3314   6 C     3315   6 C                                       1.5272166
  3314   6 C     3316   6 C                                       1.5357753
  3316   6 C     3317   6 C                                       1.5372411
  3317   6 C     3318   6 C                                       1.5300710
  3317   6 C     3319   6 C                                       1.5323696
  3319   6 C     3320   6 C                                       1.5379934
  3320   6 C     3321   6 C                                       1.5275507
  3320   6 C     3322   6 C                                       1.5324797
  3322   6 C     3323   6 C                                       1.5380973
  3323   6 C     3324   6 C                                       1.5280712
  3323   6 C     3325   6 C                                       1.5332681
  3325   6 C     3326   6 C                                       1.5375910
  3326   6 C     3327   6 C                                       1.5315061
  3329   6 C     3330   6 C                                       1.5272994
  3329   6 C     3331   6 C                                       1.5340440
  3331   6 C     3332   6 C                                       1.5373313
  3332   6 C     3333   6 C                                       1.5292481
  3332   6 C     3334   6 C                                       1.5316475
  3334   6 C     3335   6 C                                       1.5378231
  3335   6 C     3336   6 C                                       1.5288457
  3335   6 C     3337   6 C                                       1.5339342
  3337   6 C     3338   6 C                                       1.5361681
  3338   6 C     3339   6 C                                       1.5289196
  3338   6 C     3340   6 C                                       1.5327349
  3340   6 C     3341   6 C                                       1.5359105
  3341   6 C     3342   6 C                                       1.5289409
  3341   6 C     3343   6 C                                       1.5333552
  3343   6 C     3344   6 C                                       1.5352994
  3344   6 C     3345   6 C                                       1.5287581
  3346   6 C     3347   6 C                                       1.5364884
  3347   6 C     3348   6 C                                       1.5276876
  3347   6 C     3349   6 C                                       1.5334041
  3349   6 C     3350   6 C                                       1.5350505
  3350   6 C     3351   6 C                                       1.5287806
  3350   6 C     3352   6 C                                       1.5367291
  3352   6 C     3353   6 C                                       1.5274431
  3353   6 C     3354   6 C                                       1.5236704
  3265   6 C     3355   1 H                                       1.0879075
  3265   6 C     3356   1 H                                       1.0883254
  3265   6 C     3357   1 H                                       1.0885535
  3354   6 C     3358   1 H                                       1.0880525
  3354   6 C     3359   1 H                                       1.0885481
  3354   6 C     3360   1 H                                       1.0877798
  3352   6 C     3361   1 H                                       1.0941949
  3352   6 C     3362   1 H                                       1.0924437
  3349   6 C     3363   1 H                                       1.0917029
  3349   6 C     3364   1 H                                       1.0937303
  3347   6 C     3365   1 H                                       1.0932015
  3348   6 C     3366   1 H                                       1.0877441
  3348   6 C     3367   1 H                                       1.0873936
  3348   6 C     3368   1 H                                       1.0888365
  3346   6 C     3369   1 H                                       1.0918498
  3346   6 C     3370   1 H                                       1.0922641
  3343   6 C     3371   1 H                                       1.0916286
  3343   6 C     3372   1 H                                       1.0938437
  3350   6 C     3373   1 H                                       1.0968628
  3351   6 C     3374   1 H                                       1.0880199
  3351   6 C     3375   1 H                                       1.0861654
  3351   6 C     3376   1 H                                       1.0873177
  3344   6 C     3377   1 H                                       1.0944242
  3345   6 C     3378   1 H                                       1.0877571
  3345   6 C     3379   1 H                                       1.0885906
  3345   6 C     3380   1 H                                       1.0884378
  3341   6 C     3381   1 H                                       1.0911305
  3342   6 C     3382   1 H                                       1.0888211
  3342   6 C     3383   1 H                                       1.0885461
  3342   6 C     3384   1 H                                       1.0875154
  3340   6 C     3385   1 H                                       1.0923523
  3340   6 C     3386   1 H                                       1.0940630
  3338   6 C     3387   1 H                                       1.0916182
  3339   6 C     3388   1 H                                       1.0882353
  3339   6 C     3389   1 H                                       1.0880124
  3339   6 C     3390   1 H                                       1.0868095
  3337   6 C     3391   1 H                                       1.0915356
  3337   6 C     3392   1 H                                       1.0937349
  3335   6 C     3393   1 H                                       1.0937112
  3336   6 C     3394   1 H                                       1.0868343
  3336   6 C     3395   1 H                                       1.0873491
  3336   6 C     3396   1 H                                       1.0883343
  3334   6 C     3397   1 H                                       1.0915835
  3334   6 C     3398   1 H                                       1.0937594
  3332   6 C     3399   1 H                                       1.0929458
  3333   6 C     3400   1 H                                       1.0887998
  3333   6 C     3401   1 H                                       1.0885635
  3333   6 C     3402   1 H                                       1.0862001
  3331   6 C     3403   1 H                                       1.0944194
  3331   6 C     3404   1 H                                       1.0920508
  3329   6 C     3405   1 H                                       1.0967716
  3330   6 C     3406   1 H                                       1.0875075
  3330   6 C     3407   1 H                                       1.0874821
  3330   6 C     3408   1 H                                       1.0870179
  3328   6 C     3409   1 H                                       1.0908893
  3328   6 C     3410   1 H                                       1.0929353
  3326   6 C     3411   1 H                                       1.0916969
  3327   6 C     3412   1 H                                       1.0888731
  3327   6 C     3413   1 H                                       1.0865519
  3327   6 C     3414   1 H                                       1.0892246
  3325   6 C     3415   1 H                                       1.0921329
  3325   6 C     3416   1 H                                       1.0943013
  3323   6 C     3417   1 H                                       1.0937805
  3324   6 C     3418   1 H                                       1.0882803
  3324   6 C     3419   1 H                                       1.0879330
  3324   6 C     3420   1 H                                       1.0846670
  3322   6 C     3421   1 H                                       1.0918812
  3322   6 C     3422   1 H                                       1.0940301
  3320   6 C     3423   1 H                                       1.0929515
  3321   6 C     3424   1 H                                       1.0884263
  3321   6 C     3425   1 H                                       1.0874488
  3321   6 C     3426   1 H                                       1.0863883
  3319   6 C     3427   1 H                                       1.0923451
  3319   6 C     3428   1 H                                       1.0934355
  3317   6 C     3429   1 H                                       1.0934021
  3318   6 C     3430   1 H                                       1.0884663
  3318   6 C     3431   1 H                                       1.0866186
  3318   6 C     3432   1 H                                       1.0885445
  3316   6 C     3433   1 H                                       1.0929276
  3316   6 C     3434   1 H                                       1.0943496
  3314   6 C     3435   1 H                                       1.0943630
  3315   6 C     3436   1 H                                       1.0885628
  3315   6 C     3437   1 H                                       1.0881460
  3315   6 C     3438   1 H                                       1.0863578
  3313   6 C     3439   1 H                                       1.0928254
  3313   6 C     3440   1 H                                       1.0924906
  3311   6 C     3441   1 H                                       1.0930827
  3312   6 C     3442   1 H                                       1.0874929
  3312   6 C     3443   1 H                                       1.0876912
  3312   6 C     3444   1 H                                       1.0891154
  3310   6 C     3445   1 H                                       1.0934750
  3310   6 C     3446   1 H                                       1.0933709
  3308   6 C     3447   1 H                                       1.0946485
  3309   6 C     3448   1 H                                       1.0886282
  3309   6 C     3449   1 H                                       1.0887193
  3309   6 C     3450   1 H                                       1.0873579
  3307   6 C     3451   1 H                                       1.0907356
  3307   6 C     3452   1 H                                       1.0928688
  3305   6 C     3453   1 H                                       1.0943861
  3306   6 C     3454   1 H                                       1.0885517
  3306   6 C     3455   1 H                                       1.0880422
  3306   6 C     3456   1 H                                       1.0889078
  3304   6 C     3457   1 H                                       1.0924363
  3304   6 C     3458   1 H                                       1.0933227
  3302   6 C     3459   1 H                                       1.0930478
  3303   6 C     3460   1 H                                       1.0880613
  3303   6 C     3461   1 H                                       1.0882259
  3303   6 C     3462   1 H                                       1.0878360
  3301   6 C     3463   1 H                                       1.0908931
  3301   6 C     3464   1 H                                       1.0916868
  3299   6 C     3465   1 H                                       1.0946300
  3300   6 C     3466   1 H                                       1.0874201
  3300   6 C     3467   1 H                                       1.0879603
  3300   6 C     3468   1 H                                       1.0845257
  3298   6 C     3469   1 H                                       1.0915724
  3298   6 C     3470   1 H                                       1.0934570
  3296   6 C     3471   1 H                                       1.0943055
  3297   6 C     3472   1 H                                       1.0882877
  3297   6 C     3473   1 H                                       1.0870397
  3297   6 C     3474   1 H                                       1.0890382
  3295   6 C     3475   1 H                                       1.0917098
  3295   6 C     3476   1 H                                       1.0937767
  3293   6 C     3477   1 H                                       1.0923824
  3294   6 C     3478   1 H                                       1.0888755
  3294   6 C     3479   1 H                                       1.0883082
  3294   6 C     3480   1 H                                       1.0872449
  3292   6 C     3481   1 H                                       1.0933498
  3292   6 C     3482   1 H                                       1.0925522
  3290   6 C     3483   1 H                                       1.0941196
  3291   6 C     3484   1 H                                       1.0879723
  3291   6 C     3485   1 H                                       1.0868895
  3291   6 C     3486   1 H                                       1.0876091
  3289   6 C     3487   1 H                                       1.0900429
  3289   6 C     3488   1 H                                       1.0924387
  3287   6 C     3489   1 H                                       1.0938670
  3288   6 C     3490   1 H                                       1.0885663
  3288   6 C     3491   1 H                                       1.0877153
  3288   6 C     3492   1 H                                       1.0887223
  3286   6 C     3493   1 H                                       1.0939973
  3286   6 C     3494   1 H                                       1.0928672
  3284   6 C     3495   1 H                                       1.0940821
  3285   6 C     3496   1 H                                       1.0869389
  3285   6 C     3497   1 H                                       1.0880323
  3285   6 C     3498   1 H                                       1.0863316
  3283   6 C     3499   1 H                                       1.0938160
  3283   6 C     3500   1 H                                       1.0945633
  3281   6 C     3501   1 H                                       1.0940528
  3282   6 C     3502   1 H                                       1.0864272
  3282   6 C     3503   1 H                                       1.0871836
  3282   6 C     3504   1 H                                       1.0879671
  3280   6 C     3505   1 H                                       1.0920406
  3280   6 C     3506   1 H                                       1.0928350
  3278   6 C     3507   1 H                                       1.0929139
  3279   6 C     3508   1 H                                       1.0876252
  3279   6 C     3509   1 H                                       1.0881767
  3279   6 C     3510   1 H                                       1.0865957
  3277   6 C     3511   1 H                                       1.0923188
  3277   6 C     3512   1 H                                       1.0941339
  3275   6 C     3513   1 H                                       1.0926926
  3276   6 C     3514   1 H                                       1.0879343
  3276   6 C     3515   1 H                                       1.0887962
  3276   6 C     3516   1 H                                       1.0870368
  3274   6 C     3517   1 H                                       1.0908385
  3274   6 C     3518   1 H                                       1.0937932
  3272   6 C     3519   1 H                                       1.0938259
  3273   6 C     3520   1 H                                       1.0887334
  3273   6 C     3521   1 H                                       1.0872319
  3273   6 C     3522   1 H                                       1.0875122
  3271   6 C     3523   1 H                                       1.0895740
  3271   6 C     3524   1 H                                       1.0930442
  3269   6 C     3525   1 H                                       1.0924878
  3270   6 C     3526   1 H                                       1.0884105
  3270   6 C     3527   1 H                                       1.0874753
  3270   6 C     3528   1 H                                       1.0879978
  3268   6 C     3529   1 H                                       1.0939657
  3268   6 C     3530   1 H                                       1.0942761
  3266   6 C     3531   1 H                                       1.0939834
  3267   6 C     3532   1 H                                       1.0866486
  3267   6 C     3533   1 H                                       1.0887352
  3267   6 C     3534   1 H                                       1.0884768
  3353   6 C     3535   1 H                                       1.0896877
  3353   6 C     3536   1 H                                       1.0908202

 * 2 distinct bonds (by element types)

   Z      Z             #   av. dist./Å        max./Å        min./Å
   1 H    6 C        2366     1.0903194     1.0980877     1.0842888
   6 C    6 C        1107     1.5323790     1.5401806     1.5224969


optimized geometry written to: xtbopt.xyz


           -------------------------------------------------
          | TOTAL ENERGY            -3716.275238238095 Eh   |
          | GRADIENT NORM               0.000728814753 Eh/α |
          | HOMO-LUMO GAP              11.183150217840 eV   |
           -------------------------------------------------

------------------------------------------------------------------------
 * finished run on 2024/06/25 at 01:30:38.337     
------------------------------------------------------------------------
 total:
 * wall-time:     4 d,  2 h, 32 min, 40.955 sec
 *  cpu-time:    21 d,  1 h, 47 min, 33.388 sec
 * ratio c/w:     5.133 speedup
 SCF:
 * wall-time:     0 d,  0 h,  9 min, 16.133 sec
 *  cpu-time:     0 d,  0 h, 47 min, 35.216 sec
 * ratio c/w:     5.134 speedup
 ANC optimizer:
 * wall-time:     4 d,  2 h, 21 min, 56.745 sec
 *  cpu-time:    21 d,  0 h, 58 min, 13.288 sec
 * ratio c/w:     5.134 speedup

