3795
 energy: -5103.691207671893 gnorm: 0.000919990664 xtb: 6.6.1 (8d0f1dd)
C          120.96764984515856      117.38787073471046       97.79417382289063
C          120.09864294570016      117.77481536309602       98.96761735707474
C          122.27773531282160      118.18464914345331       97.79002084027601
C          123.15999849037755      117.85947100970292       98.99435209647747
H          122.82679871625652      117.94949003916172       96.87684805940805
H          122.04556763722974      119.25165688991797       97.77964294499976
C          124.47786780597816      118.63511350357788       98.93402169106564
H          122.63377397195131      118.10847186864956       99.91880320408289
H          123.38287074065158      116.79188784748713       99.00444640887807
C          125.35890808930183      118.33991490762398      100.13399468060912
H          125.01342473178126      118.36007488578473       98.02489872656245
H          124.27239408831132      119.70706459604348       98.91803151920013
N          126.04249713524830      117.19649379905280      100.06914576097445
O          119.72770251330374      119.03349057824919       98.92161749440025
O          119.77084704876762      117.00808764371365       99.85094284634270
H          119.23849045826006      119.34785739620250       99.74165598538555
H          120.41501659650426      117.61009521381339       96.88058620431812
H          121.17245262596803      116.31877733489226       97.84288394592902
C          126.98394106644535      116.80679427833161      101.10262267392704
H          125.92411539471050      116.57545914220525       99.27437869444616
C          127.46443817754917      115.37512505252880      100.92180728251523
H          127.83889088176437      117.49386748347192      101.07833685876906
H          126.50937362069365      116.92186958555038      102.08295713412110
C          128.36409565052571      114.97035977817609      102.08726805893062
H          126.60197844273182      114.70773997696020      100.87011979018529
H          128.01111100771902      115.29580855125593       99.98049984804436
C          128.97978464358872      113.58591800459369      101.90275951509196
H          129.16381098958931      115.70625410826406      102.19001774077771
H          127.77653882462219      114.99304892502730      103.00698218770746
C          129.78323932317272      113.17211733891872      103.13461117401803
H          128.18625179950399      112.85990630218301      101.72561438181049
H          129.63092789257701      113.59053072226970      101.02682596386222
C          130.35551445814025      111.76924015906305      102.99778857829915
H          130.60290336166079      113.87683818613056      103.28646821538615
H          129.14162940685716      113.21204636449134      104.01619558469920
N          131.11759852277277      111.39836201426651      104.17531835289685
H          129.55174513254545      111.03760846666925      102.86146167810016
H          131.01221958508879      111.71478228837999      102.12058612509524
C          131.60810372811062      110.17035214809076      104.34737371930531
H          131.29885590768870      112.11098609081202      104.87301552308205
O          125.43357171372256      119.10303003004755      101.09723498574996
C          132.43086779846945      109.97588999179057      105.60335554988804
C          131.81042428319313      108.89748006920864      106.49305211526034
H          133.43353656310165      109.66190706822709      105.30494377583865
H          132.50063789278079      110.91841048459790      106.14529796746513
C          132.62832317549831      108.68828095187209      107.76347182849059
H          130.79593007375897      109.20098533074751      106.76254220541063
H          131.74589070282815      107.96243529616375      105.93184130395019
C          132.00778105372882      107.62025158947731      108.66751817575955
H          133.64608336984429      108.39524527328714      107.50028594996387
H          132.67627428520669      109.63134532431594      108.31272358873426
C          130.63791901760433      108.07581992254984      109.12886737651597
H          131.92837521542722      106.66929710027873      108.14213412475316
H          132.64196139478088      107.48834252547141      109.54546700931246
N          129.62331253889928      107.30619101677698      108.73903614961543
C          128.24380611923300      107.56965909854313      109.08980597171799
H          129.81674869733806      106.44586232256900      108.23339116912129
O          131.40198812002018      109.25427007183784      103.54880554340077
C          127.49582369988784      106.26214446370541      109.31753235187360
H          128.24067486317722      108.19058992783324      109.99069053576360
H          127.76495817722039      108.14121859095945      108.28540258514961
C          126.07419579516943      106.48751393588523      109.82420603083482
H          127.46230285527379      105.70712254318025      108.37829040756070
H          128.04783304108747      105.65747556570231      110.03836546444786
C          125.28780446643682      105.17819391554428      109.80277258942640
H          126.11515294752368      106.88782566420332      110.83745145164713
H          125.57258725065101      107.22110437215001      109.19072063102698
C          123.90206478768889      105.29140520311466      110.43545596929914
H          125.18864038456957      104.85075071853782      108.76661328412617
H          125.85546011378210      104.41448794352191      110.33725093765831
C          123.98327137614903      105.33463155789447      111.95468575502331
N          122.66596217594665      105.24786243416042      112.54914811890255
H          124.59391165281325      104.49786787473548      112.31666085686456
H          124.45172003500070      106.25758867787232      112.30665142450147
C          122.44501498065057      105.58905572801461      113.81731879335493
H          121.91123488978269      104.90175492662360      111.96983259483353
O          130.47791252774275      109.09232177785385      109.80645264925558
C          121.03180662651887      105.35475765667744      114.30691367513462
C          121.01771117283681      104.39161610198681      115.49833756913907
H          120.58367319424411      106.30492204457758      114.60289484633135
H          120.43624282369412      104.94407007360500      113.49170469556249
C          119.58901201773433      104.02079335243575      115.87967697948427
H          121.56615748187546      103.48258456835539      115.23802266554139
H          121.52024611605876      104.85178235552689      116.35052509093536
C          119.51204666348990      102.99910196466958      117.01982227084633
H          119.04039712220376      104.92257038957555      116.16204681178178
H          119.08767830647456      103.58963331976553      115.00954666543413
C          118.07037632860322      102.52557358052871      117.12340314434992
H          120.14118498655441      102.13942912918760      116.77837593913188
H          119.85198233518788      103.43283915399699      117.95918355059403
N          117.41912438616396      102.89009055914762      118.23597241804630
C          116.01625889583498      102.61383392856465      118.45970633831317
H          117.92495959505631      103.26006457035683      119.03459353501924
H          123.39527940853284      106.18507447921795      110.06747910379970
H          123.29828609763834      104.42791003399479      110.15038566939764
O          123.34309890644894      106.03932617444879      114.53171479359507
O          117.53743887172081      101.91377521548745      116.20430887135183
C          115.31934584888064      103.80337843676766      119.11194788469471
H          115.56397502712697      102.38151609492029      117.49203033588928
H          115.90673549116713      101.73340430922858      119.10225076581088
C          115.16482055005025      104.97123749259721      118.14444110726213
H          114.33842334490666      103.46799572548964      119.44465607101527
H          115.89193841487771      104.10733527708507      119.99130753831551
C          114.53566468339741      106.21188694261883      118.78005121873073
H          116.14978017167439      105.23465774467799      117.75201785845704
H          114.55630537237644      104.63563136539379      117.30306674621959
C          113.09582800473137      105.99983035378570      119.26823690514225
H          115.15793575462358      106.53020285712056      119.61743398427072
H          114.54328381483342      107.00886338908803      118.03637668673954
C          113.00255018669240      105.83616519965496      120.78091542418051
H          112.46761445042496      106.84510482138154      118.98357585264986
H          112.67487408588620      105.10777508900132      118.80282111250379
N          111.61666344314204      105.70208606519623      121.18220335158715
H          113.54326344313641      104.94506429993092      121.10159746208787
H          113.44443501762244      106.70306867884516      121.28535347717556
C          111.19139030011505      104.84967061287919      122.11131598574208
H          110.95927887918951      106.27195954445951      120.65320792819011
C          109.69299173777758      104.78656379402879      122.32775301386791
C          109.00822099581633      103.79726577544740      121.37425177728527
H          109.53647358375468      104.44941405467596      123.35414123409178
H          109.24721793230833      105.77123014228918      122.19092149442197
C          108.62024799506776      104.42911482542623      120.03977527677161
H          109.65705534531601      102.93591817994590      121.21650283457400
H          108.09758304223718      103.43601433182390      121.85646289536683
C          107.85256930933060      103.44157666802238      119.15930063500453
H          107.98059235269143      105.28583076832275      120.25078326538693
H          109.50476345978794      104.78292106290242      119.50703363059321
C          107.16303210645110      104.10099167026340      117.97736746647313
H          108.51863535313075      102.66982452936567      118.77170452124263
H          107.08714390372214      102.95372997004097      119.76308607061480
N          106.17719505614917      104.94094131197427      118.31382250038770
C          105.36880107083348      105.65586772917015      117.35126027369456
H          105.98752966498769      105.14244817203196      119.29067979713351
O          111.95534703091181      104.14797334401267      122.78379849841228
C          103.94128338696343      105.81182523947540      117.86888128379006
H          105.79569979353420      106.64842497841138      117.16280229670917
H          105.40830946165551      105.09804391406239      116.41244215562062
C          103.26907169100134      104.46870152530165      118.14629514821733
H          103.98634165193539      106.38367323088391      118.79756757154841
H          103.35916544260752      106.38440629646618      117.14712495236219
C          102.95310500034620      103.66576880968840      116.88671117153928
H          103.92938453291171      103.88931321634635      118.79102310619720
H          102.33976466023242      104.63439240942593      118.69425346411828
C          102.53505472039012      102.23252565625883      117.22064444499678
H          102.14566541018718      104.16027575566201      116.34395575100662
H          103.82868771100232      103.63362430836450      116.23718678342571
C          103.71571365492306      101.35859622282513      117.62879212699025
H          101.81417704992890      102.24329675949572      118.03847775529729
H          102.05033458627796      101.77951471549083      116.35493127910159
N          104.60789189989818      101.14121460357096      116.50690290897400
H          104.29650235527937      101.83110547769256      118.42351123014642
H          103.36352032140184      100.39435526683961      118.01418109103311
O          107.46504195632208      103.86245748770529      116.81180472549534
C          105.90164681522964      100.83133907610083      116.61991350914603
H          104.19454937092065      101.18548489576199      115.58827201533292
C          106.63689724672560      100.61289478073498      115.31275554668916
C          106.52404369366518      101.77455589157550      114.31975432234891
H          107.68439256748242      100.45436163307338      115.57059292591640
H          106.25599927220840       99.69407646458031      114.85886557438185
C          107.43328547233972      101.54224654058488      113.11305493329084
H          105.49493905048850      101.88126610640030      113.96942270578995
H          106.81310871053932      102.69729166283159      114.82538862767139
C          107.23975817556368      102.58453904364906      112.01139074611029
H          108.47639556763590      101.57134321746707      113.43308270077972
H          107.23661958130737      100.54947772740218      112.69834590952553
C          108.30666691024221      102.45302526652661      110.94218974316938
H          106.25432590208683      102.49488058464134      111.55494770287176
H          107.32916714812920      103.58851240473371      112.43565305636362
N          107.85594038595120      102.51744247887088      109.68698813356599
O          106.46582940054755      100.69110124183638      117.70583206519188
C          108.71750628173395      102.45475830590316      108.51956691637015
H          106.86366671912096      102.64286189782663      109.52398578163103
C          107.89569711886431      102.11120881413848      107.28635369889741
H          109.21574626425188      103.42148335871391      108.38099380016766
H          109.48780043521853      101.69847216299299      108.69745624834908
C          108.70800807029124      102.06742118423210      105.99190673157513
H          107.41531437994504      101.14330153296630      107.44491411615166
H          107.11485077306108      102.86646429793375      107.18723368687655
C          107.81198556643042      101.63384714195371      104.83121542362957
H          109.12493610658404      103.05557537288792      105.79416286363495
H          109.53739296670338      101.36587978276566      106.09850519312054
C          108.50192989768243      101.55850526700233      103.46807201077107
H          107.41354166071686      100.64109394412189      105.05267883614306
H          106.95966975829926      102.30896048703767      104.75854526602217
C          109.05647409514155      102.88056972770870      102.94919400158194
H          109.32761747774229      100.84598096193132      103.51447270147339
H          107.77343452745102      101.18336160491739      102.74668138812849
N          108.05151640848710      103.92334505156249      102.89587393506351
H          109.87944701720323      103.23240452452912      103.58185280362557
H          109.46812206329652      102.72739922824704      101.94336770388712
C          108.32084315166000      105.12519817286233      102.38002136979730
H          107.09399760831639      103.68240701068591      103.14193017477642
O          109.50006035424420      102.30410399088302      111.20914695367910
C          107.19985252297970      106.13836218350856      102.51385461958847
C          106.21033008721955      106.08434216296556      101.34603762750629
H          106.65238604994471      105.93609191193589      103.43498402758642
H          107.64086226508263      107.13516959050577      102.58298492295670
C          105.03733006032785      107.02688823768979      101.60981922604003
H          106.70800255879270      106.36296087767306      100.41592162580889
H          105.83625451672587      105.06369774625662      101.23753702278341
C          104.04343863291984      107.09373819743362      100.44381528135595
H          104.50597692134801      106.68383667774455      102.50179209711189
H          105.41500208027340      108.03099626579339      101.81496128352299
C          102.77854221026834      107.76940316910532      100.94590776149158
H          104.46541898189004      107.65157870994813       99.60923047834595
H          103.79512222627422      106.08278139561581      100.11712641842773
N          102.75995464875200      109.09718314524635      100.78718706485790
C          101.69818319598355      109.93418939669078      101.30233408758312
H          103.47271379859603      109.53919179095878      100.21809064993765
O          109.40966147688786      105.39996730301063      101.87441428288054
C          101.24574576278661      111.00895467422914      100.31814050642994
H          100.86828245118984      109.26787694380290      101.55485353710613
H          102.04152727272928      110.41725092779711      102.22524884866777
C          102.33676550221661      112.04091625961802      100.02169493343179
H          100.92382573796991      110.53984715320686       99.38702459777446
H          100.38023198530895      111.50857405072243      100.75680256538658
C          101.76479668688455      113.32251195800794       99.40938647995847
H          102.86242102709973      112.29324891296952      100.94330068454046
H          103.06009167207299      111.60183046237070       99.33512328098413
C          101.16084549698637      114.25520567469842      100.46411526462995
H          102.55328695051253      113.85946446176676       98.87985229026370
H          101.00129892565096      113.05341813332413       98.67773621536341
C          102.21529535015804      115.16844515685364      101.09792363425905
H          100.38294272388949      114.87780678991788      100.01810943693027
H          100.69733708188967      113.66526318287242      101.25709547811346
N          101.70728490211037      115.78581328263510      102.30346598242438
H          103.11346228250650      114.59622781680956      101.34244440755675
H          102.48799081962656      115.96818931546450      100.40589759334739
C          101.36219799485683      117.07117897912624      102.41362302306902
H          101.45128088252240      115.15364270818942      103.05459292563972
O          101.88898534965367      107.14165911346073      101.51563131921645
C          100.70368771784241      117.41000287792943      103.73925397773935
C          101.73858328215469      117.71068530841167      104.82875659296228
H          100.05612701378857      118.27722811357778      103.59978444186426
H          100.09797370640779      116.55923027596693      104.05174133766094
C          102.41739327648889      119.06123280941641      104.63390857889537
H          101.22908453172832      117.70558609315688      105.79463361964559
H          102.49093906615963      116.92098427958410      104.83931476332390
C          103.32460187166090      119.43968472747169      105.81012032053019
H          102.98622801475210      119.05188688949929      103.70226958070700
H          101.64217029226359      119.82513194676321      104.54554411071034
C          104.58832507156576      118.60405722464560      105.89134517431462
H          103.59150443659992      120.49306318111815      105.73662447867969
H          102.77586424001899      119.29083022472109      106.74301472869355
N          105.66973000490016      119.04271493547691      105.24800549015292
O          101.57245450323440      117.91489837262627      101.54243583826015
C          105.78039643179656      120.24342118680147      104.45174174035471
H          106.54370384896960      118.55442805655159      105.45584574446151
C          107.18394174678784      120.36985739610955      103.86796949430303
H          105.03459675076046      120.21503538833556      103.65145344207933
H          105.57680565243338      121.13293357424273      105.06517145988859
C          107.38288156314479      121.69930027362388      103.13871070155074
H          107.89702875772169      120.29344787893012      104.68975135410905
H          107.37769915907805      119.54660075879069      103.17864054586565
C          106.66403584945505      121.73617012319603      101.79107479631118
H          107.02308805999792      122.51082454998921      103.77454899003496
H          108.45038777268742      121.85225239701644      102.96943481113080
C          106.84766896229181      123.05190736609177      101.03443312387338
H          107.04793262183729      120.92044061203816      101.17522718774468
H          105.59566001134631      121.56880300217803      101.93383839313697
C          106.07493435437695      124.22296984789845      101.63997886581350
H          107.90502073199718      123.31995793683342      101.00910087142074
H          106.50497444980793      122.91835894942849      100.00588231955412
N          104.65360705286382      123.95938803839901      101.67162145886570
H          106.38664767200152      124.42197945755622      102.66741547805110
H          106.26668772640160      125.12436110061506      101.04418624789906
C          103.88310858244556      124.17248036899967      102.74097257156744
H          104.24129996942325      123.54367066515923      100.84130849626769
O          104.62109486373271      117.55614670859022      106.53799239060821
C          102.45116664605021      123.70900128537853      102.56678814453288
C          102.38466465542319      122.18919369750007      102.77255592693284
H          101.81167498233981      124.21856936989543      103.28766669733834
H          102.12959506391179      123.96561508298763      101.55942855674206
C          101.16115787490986      121.53465618431763      102.13158007538476
H          103.28010931488433      121.73265846397844      102.34521684869205
H          102.38964135027990      121.97656116209062      103.84272846531304
C          101.12025336545440      121.71450212998157      100.60834966587575
H          101.19219297181428      120.46575811349565      102.34720968999960
H          100.24808098338532      121.94634331184184      102.56420118291668
C          102.48455394478609      121.46178596525301       99.99100177655731
H          100.39779715236872      121.01693881959928      100.18439286112714
H          100.81381074296904      122.72757718258035      100.34562171283811
N          102.84818850226523      120.17973686209415       99.93871898102699
C          104.08354119755010      119.72794250541681       99.33524008429781
H          102.25560731733333      119.46494092481110      100.34455115311310
O          104.30104156954016      124.67179484458589      103.78480167472273
C          104.81900282491547      118.71911653863573      100.21126332324543
H          103.85483892311984      119.26535127486831       98.36751644939339
H          104.69970266188335      120.61214025759709       99.15406657674241
C          106.01905058392356      118.13531366004416       99.46930661924583
H          105.14954457286511      119.19916798111191      101.13356032648612
H          104.12627769082465      117.91897332152725      100.48253545856825
C          106.74236754001232      117.07439539348715      100.29181474466087
H          105.67029563097317      117.68963192580243       98.53482965501756
H          106.71445320894286      118.93757038397125       99.21475862410412
C          107.82970469680029      116.37013690568058       99.48470105860363
H          107.18900676074249      117.54184227037742      101.16964194054344
H          106.02076807003350      116.32519156217195      100.62238225081794
C          108.39961249437553      115.17313819998492      100.23398678347097
H          107.39877116383788      116.01338807393829       98.54810999144664
H          108.62702893774919      117.07514316852662       99.24463763259615
N          109.41552943749191      115.56553308534002      101.19599802952119
H          107.58618874688331      114.64565816194822      100.74567959947650
H          108.86680366305163      114.46704559944460       99.53968520328995
C          110.32679224193633      114.69001289151124      101.59496276326460
H          109.42284990870606      116.53795902885335      101.48369335623963
O          103.19734583700881      122.38222985169043       99.58626614185107
C          111.43378882134370      115.11168837736813      102.53646562159643
C          111.74768857402171      116.60287156716180      102.60356845428461
H          111.16412110542421      114.75455142629131      103.53423062582503
H          112.31775169001028      114.54951448887032      102.22744509341477
C          110.89253771762691      117.31271908651939      103.65093803333221
H          112.79896931858954      116.73731416377885      102.86163148266471
H          111.59529184823216      117.06196832909657      101.62575522658713
C          110.96956725974029      118.82590385579829      103.49516582349779
H          109.84733913246249      117.01772600106138      103.55058561659753
H          111.22831768660552      117.02527422716878      104.64709602658583
C          110.36014548281523      119.26316287342917      102.17284142428508
H          110.38686636584572      119.30418760150992      104.28622989985445
H          111.99786757960291      119.18107880726599      103.55537459766285
N          110.94059023797958      120.34456549619331      101.64885042655824
O          110.30045614058841      113.51217668126118      101.19729679369617
C          110.49074521866358      121.02488061541617      100.45156657937872
H          111.78128014539105      120.70827851262906      102.08163366336905
C          111.21122373222519      122.36326513283149      100.34621064819173
H          110.69021869096940      120.41059466611073       99.56508340605586
H          109.40721830406208      121.16711951628602      100.51327787762261
C          110.64849379669900      123.26224198840328       99.25042675625758
H          111.13114197156200      122.87958819204984      101.30592166040503
H          112.27079687548836      122.17729663759143      100.15967927115338
C          111.46727752479626      124.54733188806627       99.12674479682921
H          110.65057133771037      122.72782758566007       98.29911191285747
H          109.61245121037555      123.50900912773578       99.48448586902076
C          110.79702916308543      125.61238662993262       98.25963283339937
H          111.63246274108165      124.96453563514017      100.12245527663951
H          112.44527525923785      124.30268879498132       98.70684842864462
C          109.65727026416083      126.33123258537036       98.98368157947289
H          111.52935987125646      126.36900287296523       97.97365995032338
H          110.41329486479538      125.16086380537179       97.34215374103901
N          109.19307870087647      127.46505704954716       98.19600580495117
H          108.84981211275041      125.61705456293564       99.21719887433159
H          110.02457709803002      126.72932303654778       99.93409669588578
H          108.71054759995683      127.12964516784805       97.36896853271111
H          108.52438678797546      127.99619332954734       98.75083902004053
O          109.41213133843982      118.67838856736040      101.65443574408442
C          127.36382746945395      116.83881640287433      127.46069615191614
C          126.88556008865423      117.23893161536135      126.08564694897842
C          126.19355507175989      116.55384905814246      128.41261830759129
C          125.47258983817312      115.25617522212893      128.05652658994450
H          126.58568123882381      116.47893746062961      129.42805810077132
H          125.49251205347637      117.38922007979426      128.39003450481474
C          124.25779431417993      114.99748065832235      128.96104244118385
H          125.14374756164376      115.29786333392546      127.01677836650741
H          126.16939264905704      114.42174707600473      128.15668023255998
C          123.17047664891663      115.99493775801967      128.62688090393149
H          123.88708451308473      113.98487416568696      128.80598376510218
H          124.54890635913000      115.12021070155616      130.00452312395831
N          122.25766856764471      115.55783224780902      127.75849681882690
O          126.56591604815671      118.51058121424860      126.00830765541896
O          126.81228084586699      116.47449279992017      125.14313525708567
H          126.38565459014507      118.83161810776309      125.07419004872443
H          127.95282649544819      117.66455151834748      127.85917102963221
H          127.98774649568057      115.94859263241726      127.37244648580972
C          121.27567887276585      116.40944000747551      127.12340166543315
H          122.31831959333832      114.60027931417116      127.42185422445611
C          121.28442450960345      116.22894841670323      125.60320324235977
H          120.27714704530764      116.19071726415928      127.51547986080588
H          121.52577799860080      117.43874882350261      127.38812416578796
C          122.70552733006501      116.14605075722896      125.04755128741193
H          120.74330666856518      115.31802805237334      125.34147254759053
H          120.75106206696962      117.07053857635783      125.16177639664987
C          122.75718706500913      116.18792242688036      123.51753865454306
H          123.30416212610847      116.95447614128332      125.46734101516184
H          123.14968997658278      115.20937958579489      125.38019394497415
C          122.86817259143996      117.60157057942254      122.94733998878058
H          123.62010545788553      115.61395019186931      123.17720107919335
H          121.86642894484389      115.69978443404842      123.12060143400271
C          124.15038104070335      118.28561546304581      123.41560865463340
H          122.88584565273077      117.54056738697471      121.85834722660152
H          122.00126944116592      118.19900494268964      123.23031030955703
N          124.64127505651653      119.23523604325401      122.43361226635872
H          123.98875421654999      118.80948691323420      124.36498021155671
H          124.93145777849470      117.53346736921770      123.57443442550037