3864
 energy: -5104.223323518578 gnorm: 0.000785678896 xtb: 6.6.1 (8d0f1dd)
C           46.21122385358752       31.51971593894873       42.63507204651479
C           47.54546865573932       31.85487241587780       42.43433772386523
C           48.07128076588926       32.92776786493427       43.14183448444692
C           47.29549847284187       33.63508383598150       44.04323645524408
C           45.97130951940281       33.28679418925842       44.24012744867085
C           45.42906015460957       32.23122765717315       43.52734715054256
C           48.42506799010488       31.06613967507471       41.49577282090332
C           48.55971842002990       29.62182181715810       41.98477519202606
C           47.88996261346169       31.10787541623711       40.05912191806320
C           47.93597917825745       32.52282858128352       39.47607371672815
C           49.33777733341099       33.04934853460404       39.28839790881254
C           49.63080415226842       34.35695070610132       39.65825418654186
C           50.88436143688973       34.89666810154022       39.43823632910792
C           51.87774273703167       34.12967157372974       38.85496911975996
C           51.59833172432009       32.82780130355161       38.47835320578898
C           50.33706284172395       32.29678255111417       38.68405746592087
C           47.18696208907849       32.59202665538319       38.12993669059535
C           45.68843222109488       32.89166474296054       38.29798988037811
C           44.91537660397250       32.51540230926729       37.06030261836852
C           45.29474796006450       32.97652223574087       35.80335654984074
C           44.55810316651915       32.65295031802935       34.67860293733204
C           43.42924507028524       31.85770791009748       34.78792868515480
C           43.04759650541553       31.38434965897805       36.03084423420898
C           43.78568154686698       31.71230695672929       37.15499005485919
C           45.48404275349893       34.37411237583235       38.64245250576218
C           44.00423115313698       34.78188991421828       38.82671539449488
C           43.87734745861096       35.58630993978086       40.09782407165778
C           43.76829322246176       34.89859728065403       41.30267835945470
C           43.71508804363746       35.57136993212077       42.50872915316580
C           43.75736079546910       36.95432545646842       42.53010311125789
C           43.85954040782221       37.65127089317819       41.33977825731417
C           43.93138027548858       36.97375493790338       40.13455825777299
C           43.49204058693854       35.48451690356773       37.56452756584009
C           42.03743638616487       35.97909861322814       37.64301620781183
C           41.16553634293535       34.91366874618264       38.25876096486738
C           40.84629075744852       33.74867608414308       37.57018538355717
C           40.07893496277458       32.76350481705813       38.16467994380799
C           39.62155699635193       32.91952277228072       39.46254057399548
C           39.93328730261389       34.07358789626306       40.15968358315143
C           40.69728060746915       35.05909597270587       39.55956122893360
C           41.53263141477557       36.37484903239661       36.24656258784538
C           42.21294566969318       37.63251689923326       35.66284295426301
C           42.53818002064197       37.41199354152009       34.20742023361402
C           41.53100537746998       37.18834391653352       33.27528824764784
C           41.83534288637137       36.97389712038407       31.94385014828547
C           43.15418203858432       36.97115719398557       31.52070738745750
C           44.16487559778842       37.18790905388703       32.44097700864310
C           43.85706910322004       37.40924824841535       33.77174783944401
C           41.33583440023463       38.87876372493761       35.84926373956900
C           41.92867979876092       40.10305816348263       35.14510378736102
C           43.32215968536824       40.44822470962391       35.61592952488817
C           44.31210914688941       40.76696052461899       34.69443994014278
C           45.55722731560861       41.20241916575640       35.11493338981287
C           45.83166901599162       41.33211012908242       36.46447511167361
C           44.86569034874445       40.98547504340716       37.39079654015858
C           43.62319477802077       40.54884452461342       36.96951729943642
C           41.07912353107636       41.37467711860734       35.32341540805035
C           39.58976542575665       41.26813997504959       34.95436992279187
C           39.33098681767314       40.41498502770758       33.73910096592698
C           38.37574876611190       39.40661583499543       33.79696620660499
C           38.08704174572362       38.63454764552436       32.68602272383026
C           38.75011365864187       38.86233783519774       31.49307532863290
C           39.70237428813657       39.86450501138832       31.42345099242920
C           39.99007418504404       40.63543026559743       32.53508820049372
C           39.00653667658309       42.67045843813926       34.69452581983231
C           38.81497885760984       43.51176240578403       35.97160646462444
C           37.49798292215588       43.13769479447110       36.60630655186620
C           36.29213645468769       43.56974644659262       36.06464592228794
C           35.08555265240097       43.17737369543718       36.61553275767719
C           35.06177712593574       42.34379710751991       37.72118647142962
C           36.25471789718737       41.91335435435908       38.27419839789775
C           37.45917408022648       42.30395058842855       37.71659699264271
C           38.90779629649145       45.01268205745072       35.65009293651499
C           40.36668457890689       45.47769423164905       35.44870131541703
C           40.41176095587534       46.55208430110272       34.39024614981935
C           41.09594382047627       46.35498369326925       33.19845307237073
C           41.14249179886080       47.34597514006579       32.23370650586224
C           40.49196976130710       48.54952998361933       32.44035604722322
C           39.78701151001708       48.75014497366164       33.61558324887120
C           39.74801263800036       47.76001003251307       34.58039276556447
C           41.01417442406520       45.97788892677688       36.75653955144882
C           42.49936909266553       45.59370180507872       36.92111203108656
C           43.26582200079923       45.63325086473821       35.62129517922585
C           43.65548116879655       44.44748426347690       35.00947222961661
C           44.36309340373099       44.45536877926132       33.82045850404402
C           44.71463897599986       45.65796920262579       33.23463076236270
C           44.35159681968064       46.84775632212234       33.84209827341978
C           43.62683615031683       46.83259961950478       35.01916106809546
C           43.19076755536633       46.51373127471820       37.94148181206388
C           42.85404841107801       46.23219368580891       39.41904677865982
C           42.29711774550451       47.44612322464877       40.12077399506337
C           42.89749143934108       48.69011729070756       39.96507189657230
C           42.42674716193382       49.79446493492446       40.64849416158209
C           41.36110398816401       49.67460303578400       41.52116221752450
C           40.76738828533936       48.43738603912303       41.69927699137803
C           41.22712378763229       47.33463610211590       40.99993657278571
C           44.10661359828326       45.80241324682711       40.20337324115447
C           44.74200649425232       44.48972900898794       39.70071799524766
C           46.12545658115821       44.74257719975463       39.15458742787745
C           46.39992013605038       44.57904511368398       37.80224665188238
C           47.66162150051264       44.84796905334183       37.30013608617804
C           48.66715101250077       45.27941040737777       38.14688040343586
C           48.41053178689099       45.43510973860089       39.49747203198910
C           47.14966128724285       45.16673771715057       39.99460837677603
C           44.82315811060202       43.43709109489574       40.81274168663900
C           43.46508392554698       42.91057985731360       41.29428842067150
C           43.65150509247219       42.12706285866662       42.56798209481691
C           44.49200205618184       41.02126961247298       42.60757660887921
C           44.60968166430550       40.26263115974006       43.75763957196386
C           43.89367276778117       40.60103008881442       44.89181116121123
C           43.08146338896684       41.72212504155490       44.87401095276420
C           42.96536416759528       42.47778192626572       43.72279378070974
C           42.78575400985466       42.02166194962768       40.24623858825558
C           41.41220653830343       41.52197527030098       40.71056632563830
C           40.42075830008149       42.64442884742355       40.87317413211645
C           40.03713686898873       43.42776429683123       39.79173025906950
C           39.04074266061849       44.37895287821001       39.92142277063982
C           38.42618359954358       44.57595276177627       41.14496162817864
C           38.83975445217543       43.84324938108097       42.24457866905944
C           39.82534830038938       42.88297261508696       42.10625895723120
C           40.88059862160360       40.47120349565911       39.72450862649237
C           39.50976806697287       39.89683071348183       40.11520884670870
C           39.52395490171489       39.43764146297969       41.54828117512888
C           38.63296925796757       39.99095241113606       42.45963479705290
C           38.67002248687217       39.63616226866390       43.79561422140469
C           39.59357001838916       38.70690066386614       44.24109968455507
C           40.47492636852060       38.13647551581689       43.33932695687638
C           40.44568292562895       38.50365525509432       42.00715002225645
C           39.13184188226786       38.79164957876373       39.11725795972621
C           37.70393645987976       38.24516518248937       39.27482223824350
C           37.24654482227111       37.66592945764525       37.95739879025929
C           36.23957837684161       38.28339410160219       37.22607916510221
C           35.81148701513663       37.75720789686060       36.01933008914464
C           36.38955384307672       36.60260081807833       35.52078182965531
C           37.40478433280123       35.98713368902495       36.23264239941607
C           37.82925841602938       36.51467043565179       37.43798651880417
C           37.61218149850877       37.19537296695255       40.38622490983870
C           36.18900682374106       36.64818903421676       40.54109171255604
C           35.22723208499337       37.73618472564174       40.94178399305954
C           34.12884056407825       38.02936895802457       40.14374540857013
C           33.25912147931277       39.05288039364345       40.47914958088583
C           33.47752136875647       39.80410566275578       41.62062140081959
C           34.56101432260633       39.51333781951008       42.43183453658595
C           35.42367032783210       38.48569190465965       42.09675102652415
C           36.17266817892864       35.48136763016165       41.53914763515021
C           34.96674394172619       34.55982728392924       41.32845794267384
H           49.42315543647027       31.52140585672788       41.50019016000602
H           48.47452349029034       30.42562366852009       39.43979839280981
H           46.85756125428441       30.75316572565672       40.04456707810141
H           47.43309689866870       33.18314204463356       40.18993578464728
H           47.63982576863570       33.36980116275568       37.51117078558364
H           47.31119998180954       31.64372552575074       37.60178924640178
H           45.30544892387773       32.29325573785938       39.13245554553291
H           46.02882074714584       34.58451516092079       39.56496055855479
H           45.93316667819540       34.98009879512243       37.85456528626685
H           43.41458559443828       33.86852038858930       38.96198960355346
H           43.57190396263712       34.77496431084336       36.73827341412932
H           41.99421822707862       36.86114304578719       38.28938542164448
H           41.70477116572546       35.53858680584855       35.56536133699252
H           40.45349664716030       36.53934147956666       36.29224707732767
H           43.15737023261031       37.80962589281062       36.18447933880267
H           40.34715640801740       38.68454798391602       35.43158475473713
H           41.21440814626136       39.06817691004014       36.91569524264337
H           41.97581678543371       39.87580254521610       34.07440540169186
H           41.15468576844597       41.69660322466586       36.36444683734619
H           41.54038693922909       42.15300594215003       34.70913870576783
H           39.04235950822379       40.82345750393643       35.79305711713926
H           39.61445721287048       43.27393942488667       36.67709610915092
H           38.34208340841710       45.21758204521547       34.73830297423864
H           38.44671247359627       45.58956389648596       36.45457805412853
H           40.94389912087046       44.62444344074208       35.08173694340845
H           40.92095414025130       47.06439472626911       36.80554816391423
H           40.46902430118430       45.57562177202538       37.61130351634518
H           42.53875981583523       44.55854588551910       37.28192577394037
H           44.26955945889953       46.42942999741743       37.79836091094047
H           42.91691663088611       47.54171612696034       37.70128695341366
H           42.11328946204016       45.42803826597277       39.48332376792011
H           44.83735969294703       46.61006120923822       40.13784295434407
H           43.83889750079391       45.70708222434273       41.25850036870315
H           44.13495439228664       44.08825227982497       38.88605120341700
H           45.42647418069928       42.60224059650849       40.44949400008498
H           45.34380653699689       43.87181743525270       41.66908053379918
H           42.80655926333149       43.76021264671562       41.50260385746621
H           42.67896472410139       42.57178585672371       39.31081849190146
H           43.41942593379951       41.15479342408283       40.05175884350211
H           41.53755915232427       41.03538886441175       41.68380355728205
H           40.79776666066761       40.91397850095110       38.72889608741414
H           41.60289473637197       39.65312731808651       39.67091055486664
H           38.76467612512823       40.69647630777817       40.03217787060984
H           39.21716298322822       39.21109811748462       38.11068112778396
H           39.83906138296764       37.96437274721298       39.19088347329907
H           37.03696186154924       39.07615038518093       39.52958083638821
H           38.27842827961918       36.36516405010947       40.14861137628778
H           37.94357597836724       37.62945631771795       41.32761059187509
H           45.77599374253254       30.68866035580878       42.09801866784503
H           44.39458276993069       31.95269868723090       43.67393296858559
H           45.37300025491042       33.83291516371500       44.95399899363661
H           47.72620790082972       34.45183979211441       44.60413777537355
H           49.10646305524851       33.19849476600037       42.99001530846311
H           48.86494586797378       34.96599727023177       40.11706495740788
H           51.08870283537104       35.92167164320232       39.71243571048488
H           52.86095727843006       34.54768781978736       38.69211129883498
H           52.36448905693514       32.22294365378839       38.01309016206470
H           50.13611439910274       31.28531018427207       38.36272250221200
H           46.17319813001924       33.59479963426600       35.69810212332475
H           44.86366027895131       33.02414754441650       33.71063220729540
H           42.85271838195688       31.60757841981637       33.90870391140688
H           42.17170969859735       30.75843844389366       36.12615814933440
H           43.47346845339920       31.33795354799275       38.12051462168731
H           43.73313311245792       33.81752642251680       41.29278833344112
H           43.64628097639599       35.01209911935675       43.43079239187434
H           43.70983910705959       37.48971278436979       43.46644755902194
H           43.88447382184094       38.73018194260095       41.35432240290316
H           44.03385517567729       37.54018331430799       39.22096838865842
H           44.14454589665884       36.32733742894672       37.32936532632531
H           41.20991598844365       33.59864720298454       36.56439109418643
H           39.84140648260031       31.86346450449969       37.61460075633220
H           39.03253111831746       32.14003369930513       39.92545627690546
H           39.58782281087640       34.20864614120607       41.17518809021490
H           40.94301280468360       35.94834090610417       40.12198146116202
H           40.49741553286105       37.18562743998484       33.58934182399707
H           41.03846185657005       36.80835442943121       31.23239123741538
H           43.39215223546771       36.79986795894340       30.47998557037990
H           45.19741738211840       37.18154045709137       32.11921580647363
H           44.65454209626452       37.58597482368594       34.48015937930641
H           44.09796232010547       40.68387501365635       33.63687085598073
H           46.31738560623872       41.45230307221250       34.39093476789413
H           46.78770007080263       41.71089674197047       36.78981004387786
H           45.08317343492860       41.06894812970968       38.44509402259867
H           42.87577390919428       40.29491985502314       37.70401354421764
H           37.84690827207802       39.21964451920356       34.72278762180321
H           37.34280620437860       37.85396448042304       32.75550446924989
H           38.52452816078085       38.26415171091197       30.62149652515609
H           40.22186515788746       40.04584933356947       30.49387524781895
H           40.73411440813130       41.41518128917713       32.45820913614611
H           39.66132709828386       43.19848106912043       33.99865025143200
H           38.03660438157467       42.56189528282982       34.20130006297099
H           36.29151476631205       44.21590151041801       35.19864289809029
H           34.15839475398085       43.52096734988724       36.17792099650764
H           34.11950233323282       42.02868361730026       38.14752926776198
H           36.23946323923973       41.27179815018528       39.14459090704135
H           38.38240048326668       41.95683367615793       38.15437081116880
H           41.61083166851862       45.42042592286837       33.02458631105985
H           41.69082707733825       47.17736395251533       31.31769913567072
H           40.52987983679550       49.32668614667229       31.69002134268952
H           39.26975900600229       49.68496310569952       33.78160119444752
H           39.19487743478223       47.93212642587586       35.49353146446798
H           43.40834035720255       43.49737124058594       35.46507923616097
H           44.63431219148786       43.51886875711061       33.35408969673166
H           45.26903693007095       45.66998239734389       32.30692091380953
H           44.62923084314524       47.79265625780693       33.39540842998573
H           43.34398365902506       47.76939138422453       35.47188205739548
H           43.74700304890803       48.80518054031844       39.30754485996513
H           42.89896126685528       50.75226877115104       40.49953709742766
H           41.00359401817371       50.53573769797138       42.06843079358189
H           39.94012013815676       48.33834531622900       42.38633978657552
H           40.74907031767906       46.37359409823758       41.14182842841984
H           45.62043412826161       44.24804344914177       37.12893555005258
H           47.85478282883861       44.72440242231052       36.24445167282587
H           49.64873908655905       45.50014400621709       37.75853984225565
H           49.19198684694374       45.76991426980307       40.16376050835652
H           46.95796158286345       45.29348500386638       41.04902602168795
H           45.06519166921347       40.74347972275852       41.73470877641642
H           45.26134842097498       39.40072206740999       43.75848142917271
H           43.97763244541549       40.00636786489707       45.78943404283088
H           42.54437423936203       42.01586792363476       45.76438399015356
H           42.32903852895670       43.35178329936347       43.71153210790898
H           40.50682289778414       43.28249537048966       38.82903891838449
H           38.72616473565457       44.95581915718272       39.06267262670456
H           37.61856667169987       45.28530594497668       41.24255322958359
H           38.37051572372616       44.00482077648699       43.20461036090162
H           40.12024658273114       42.29192212184138       42.96180181886079
H           37.90138917898772       40.71148993305803       42.12140426327014
H           37.98405811079368       40.10169072792314       44.48930990902616
H           39.62664313249891       38.43336084408488       45.28481110953443
H           41.19555359173231       37.40365655144731       43.66938500899894
H           41.15458952059599       38.05856272592358       41.32482820432507
H           35.77967202383458       39.18575764474392       37.60512556767686
H           35.02316516910548       38.25070425870282       35.46736285830811
H           36.04974817810857       36.18505520702833       34.58350896818008
H           37.86792885088588       35.08939224230046       35.84829294525568
H           38.61792850709043       36.01432032255281       37.97931267410429
H           36.27213122708989       38.27643069283366       42.73290199506549
H           34.73630021114827       40.10194924936972       43.32130901504993
H           32.81109051268844       40.61603136507961       41.87451960156604
H           32.41168991150498       39.26841256092185       39.84288978183368
H           33.96007301339055       37.45249784166786       39.24393631453265
H           49.26287423464015       29.07532634181467       41.35992372735049
H           48.92452511967727       29.60506477290912       43.00972206292116
H           47.60132966197857       29.10888478484744       41.95276036240856
H           35.87710910555301       36.26220180386341       39.56437331190792
H           37.09000614323635       34.90210615721526       41.42289420274685
H           36.16135655103337       35.87014094141541       42.55790821818694
C           35.03210360469284       33.33684351120358       42.25800710169631
C           34.86952874937760       34.09335443172849       39.89575896706324
C           33.65564008922448       34.16565296927255       39.22341231970039
C           33.54273915912552       33.74623091591525       37.90938817873730
C           34.64804653629986       33.24693708540634       37.24246856684469
C           35.86127897933524       33.16306679475058       37.90340622570489
C           35.96833929101170       33.57717029173057       39.21797220028299
H           32.78888488303981       34.56193853746914       39.73580138584207
H           32.59011680340425       33.81437633478294       37.40289575349556
H           34.56304049917292       32.92704026832207       36.21397205988237
H           36.73149961851394       32.77692810724907       37.39248151371597
H           36.92540283480219       33.50983309427936       39.71081290552871
C           34.68994088197550       33.66484360082005       43.71827940103740
H           34.32735625765690       32.58315990387378       41.89688702865028
H           36.03473288793082       32.90705847733001       42.21187711236019
C           33.25227008041144       34.07509155138399       43.85094965822525
C           32.25286012384390       33.10914548228124       43.87710576175756
C           30.91965503092139       33.46949619523590       43.94574364514398
C           30.56530250503732       34.80784732984253       43.98466165108007
C           31.55197642374667       35.77753776092241       43.96066198932543
C           32.88568002972908       35.41389823740180       43.89679677614406
H           32.52338964911058       32.06275465823826       43.84426254865125
H           30.15447310883589       32.70655804827208       43.96780636466696
H           29.52397915437674       35.09190750345294       44.03534405293787
H           31.28174872107351       36.82255252745939       43.99200722539392
H           33.64668834042664       36.18062543648476       43.88551170122824
H           34.05362795520874       35.11970476965763       41.55960516009121
H           34.86919919735705       32.77164266394685       44.32080061290878
H           35.34422638866184       34.45703223853999       44.08213533839619
C           49.25034960501562       67.48216387538677       48.70833694033900
C           50.03716992104844       66.69049397710447       49.53703439447708
C           51.05282427864688       67.30237841220303       50.26007397614615
C           51.28589359677998       68.66200272872275       50.15428091506610
C           50.50028632777769       69.43714967709408       49.31960280339004
C           49.47921252021712       68.84147137084452       48.59877038723005
C           49.79892207864385       65.20652243746663       49.65849191550948
C           48.42848234416394       64.93393368762212       50.27787425507283
C           49.93025650875222       64.51197516561555       48.29714174302340
C           51.35735118491113       64.62844730926356       47.74452272086512
C           52.31027093712908       63.83469733016598       48.59984821748875
C           53.31065399032536       64.47300338058776       49.32256694248335
C           54.15901821254025       63.75345698087511       50.14596078415678
C           54.02662240244086       62.37906972653514       50.25178622213782
C           53.03929242277803       61.73073626817501       49.52823476371636
C           52.18924454928251       62.45446483766583       48.71203106000100
C           51.42471007134536       64.19431508418218       46.27461440090656
C           52.80130330107623       64.48044311989146       45.66355228567477
C           53.17558078043992       65.93484345804468       45.81201746814266
C           52.35395449895185       66.95011009424836       45.33565569460424
C           52.71832792631490       68.27747936279226       45.46790445971648
C           53.91685057622686       68.61430827680191       46.07399075559825
C           54.74869287443986       67.61201548997934       46.54166988229257
C           54.37946381978576       66.28513779610090       46.41005143916161
C           52.87281234254983       64.09822125695315       44.17495084364610
C           53.08067040258733       62.59448411112073       43.91779289015626
C           51.76905921210408       61.85861020266284       43.81502397203865
C           50.89412721818488       62.10280529164255       42.76184932985378
C           49.69749219724383       61.41669745689252       42.66108165293745
C           49.35360335033975       60.47007219911428       43.61081570876030
C           50.21813344265289       60.21081886040622       44.66006168625656
C           51.41231760285786       60.90414703498984       44.75920324361286
C           53.91091190911386       62.38384935082237       42.63832740514081
C           55.39848905280469       62.70351375778535       42.86101957993415
C           56.03823725576007       63.25702060297541       41.61359023075510
C           56.74442791184914       64.45299699852002       41.65635105707057
C           57.36474967062451       64.95350641431472       40.52455062302307
C           57.27968200254296       64.26590792398453       39.32590130380589
C           56.56923821956199       63.07825676345650       39.26693187113675
C           55.95922675247407       62.57697045380201       40.40316974749599
C           56.17708312626213       61.46544666139204       43.33299323004552
C           57.52767045369963       61.87813559844997       43.92807493897010
C           57.35723458880242       62.64702613483807       45.21730359376212
C           58.05359015684982       63.83510504337309       45.40770528442377
C           57.92012153461256       64.56225148627838       46.57710880502395
C           57.07728760455989       64.11436220103177       47.57939637650610
C           56.38584611687838       62.92732590773649       47.40768838732005
C           56.53067692865858       62.19981782731662       46.24050862595388
C           58.47796256138476       60.69158224083422       44.16523263123869
C           58.96032856424898       59.98525915691678       42.88521045778830
C           59.78748597262852       58.77209469746375       43.24001731927877
C           59.39530466628520       57.50545906637323       42.82494277022153
C           60.15931517928951       56.38923233220508       43.11890551576619
C           61.33516894163108       56.52342060126882       43.83668629488305
C           61.73379396444236       57.77870446331928       44.26415984726801
C           60.96533570995800       58.89063212908930       43.97041411889938
C           59.75508520389900       60.92993925906752       41.97093439811630
C           60.07868533588593       60.34505947846063       40.58631877458885
C           61.03145326813269       61.26155205060086       39.85737333995257
C           60.70304255586509       62.59162614460481       39.61548427616590
C           61.56961359116035       63.42098187529434       38.92765837022529