3258
 energy: -3427.493398361031 gnorm: 0.000664650468 xtb: 6.6.1 (8d0f1dd)
C          110.35271904792559      107.89322587949637       97.28025182966931
C          109.95403221710136      107.28420263872623       98.61834792619190
C          109.90870850984049      108.32762889610132       99.73114225859881
C          109.55820748775795      107.72179994744062      101.08793627607209
C          109.64821024344459      108.74790492526664      102.21563806083900
C          109.33563730138546      108.17434008350392      103.59970689328425
C          107.86554881769764      107.82703227597963      103.81426581098398
C          107.58101359469579      107.34464200642147      105.23488138536833
C          106.09080004927418      107.08875321661826      105.44610918956596
C          105.78003605984661      106.36048192797020      106.75092864751468
C          104.29660348827093      106.01143098853019      106.84846850599428
C          103.96354439867055      105.18268314852692      108.08684622918800
C          102.57043781226095      104.55488623122486      108.02255890973233
C          101.40412647280783      105.52270483693241      108.22899742052077
C          101.24977768198526      105.97583410119107      109.67822478179666
C           99.94267517821039      106.72487975488676      109.93892998486210
C           99.85649027960234      107.18784458624287      111.39198284709590
C           98.48856869073840      107.73282769051306      111.79800809000631
C           98.50018074468412      108.16374608636902      113.26538370739686
C           97.11869065522055      108.42591714155240      113.86376292832887
C           96.38537212561585      109.63928674892479      113.29289635268795
C           97.02281224730049      110.97445076733241      113.67812155028726
C           96.13862152963355      112.17571366647437      113.33552635514525
C           95.99175920252502      112.39306972012285      111.83190385251054
C           94.94729958640771      113.44905628374612      111.47659982447348
C           94.77816830381137      113.54609441363134      109.96155610006922
C           93.54058943612817      114.33001610687114      109.53149755803688
C           93.46051966680554      114.52325765758891      108.01469319081970
C           93.35091666737524      113.21138966699132      107.23850870187101
C           93.19505237876298      113.39544083321020      105.72740002854212
C           94.39136519023162      114.09740319897176      105.08804221481923
C           94.40788397366138      113.99113319593275      103.56536571780130
C           95.53035165889416      114.83583996318164      102.96644248486545
C           95.63656123149234      114.68232951211949      101.45123293049379
C           96.64980978150263      115.64393873689973      100.82634228607577
C           96.12312870321411      117.07412944194094      100.71757592293490
C           97.16828846383589      118.01946029817977      100.13114164969910
C           96.62661684162767      119.41500385387276       99.81831943664397
C           96.10099155470530      120.19679548921097      101.02387816517945
C           97.14124274933238      120.40429280602120      102.12302255237589
C           96.65616398182546      121.40623863528396      103.16907316145755
C           97.63368039565405      121.60955798049480      104.32856776319576
C           97.74655109618806      120.37617265327661      105.22188044484891
C           98.57213821255741      120.59891696868229      106.48892055294577
C           97.88936557939786      121.51222066561932      107.50593373216837
C           98.56586196931828      121.45397929137540      108.87388414317967
C           98.00603363468902      122.50483805664453      109.82977240350270
C           98.76874578987548      122.60565933060147      111.15143468936043
C           98.58872531181669      121.38817499126098      112.05541063126888
C           99.17844077182875      121.58805874031815      113.45371252486390
C          100.70526563083413      121.56490151811256      113.48211390376429
C          101.26717629771611      121.82866618624865      114.87986602602697
C          102.77684771904359      121.59995635489483      114.92950382251233
C          103.38911118688306      121.90255565798937      116.29505543970711
C          104.84199953789623      121.43490713584666      116.41827009385884
C          105.80858405241592      122.18292289242788      115.49996066950686
C          107.27742873565950      121.82613722813761      115.74774587588206
C          107.66070150144193      120.43646041843289      115.24400774390911
C          109.10654984395602      120.06655162565926      115.57147513814883
C          109.48587974930538      118.70474298797632      114.99183752850797
C          110.85901687411543      118.22079136540778      115.45264936973878
C          111.25696098259552      116.91057612299878      114.77735232281422
C          112.61154958870328      116.38704305985659      115.24908779064729
C          112.98579614472835      115.08514684286617      114.54531423203451
C          114.30825262524046      114.49930238014512      115.03409249291865
C          114.62243854514261      113.17822659502824      114.33615517680106
C          115.88914240444008      112.50898461119910      114.86245555153248
C          116.14143333592173      111.16889365090603      114.17511529371707
C          117.39797096061287      110.47069529259480      114.68690647520080
C          117.64107947897864      109.13414229653706      113.99110715446616
C          118.87639650369883      108.41890251909935      114.53159098199542
C          119.16300776683040      107.11188863451052      113.79529371879870
C          120.40717764947104      106.41522044636140      114.33860609324596
C          120.74909522593650      105.12386841053623      113.59946810515018
C          122.05195774882381      104.52631807958625      114.12664303655257
C          122.38910935097984      103.15003434431802      113.55504589767177
C          122.73959876472573      103.15618890806432      112.06868564400582
C          123.26948124942501      101.79316263925233      111.62517485359022
C          123.49160563990546      101.67395964766148      110.11665721253068
C          122.18942690282977      101.55784507919243      109.32811162374631
C          122.43979523914318      101.37733684206454      107.83438618921429
C          121.15509503374329      101.25120857032685      107.01546549808666
C          120.34551096545667      102.54421432919291      106.95952380698682
C          119.13262053677236      102.42715681956101      106.03660646359083
C          118.08710708980941      103.51024339457479      106.29165173099950
C          118.49990963759898      104.91296907932383      105.85318968289778
C          117.52445759170023      105.95236480030697      106.39918182699394
C          117.77455413607372      107.35856339694064      105.86537016739233
C          116.86110097414731      108.38111596016935      106.53595846432432
C          117.00840559719083      109.77940219776906      105.94438691392396
C          116.12258175234354      110.79983450920076      106.65447513128753
C          116.25442856161320      112.19501826624595      106.05066851489548
C          115.42534115934426      113.24231466010143      106.79140489686114
C          115.58372065945686      114.62088521865644      106.15519864770420
C          114.80574323777201      115.73480596034689      106.85658560697776
C          115.36748376817356      116.10583295193689      108.22717821788383
C          114.68792801467657      117.34246445825322      108.81387802886512
C          115.16541619778543      117.62736305971323      110.23523951204540
C          114.44446382932176      118.80172092073995      110.89102222374075
C          114.79536185800913      118.92990338658177      112.37268707492940
C          113.96188218788960      119.99950668588598      113.07165354164158
C          114.36187872722688      120.20447384536729      114.53177388384098
C          113.50063787780363      121.27136142301771      115.20171177217105
C          113.79874862959194      121.44774836087784      116.68764076079367
C          112.83002610504526      122.41844061618998      117.36639867604687
C          112.93831931300484      123.84927057551317      116.84199604655092
C          111.97623079984183      124.79605851046269      117.55645745296468
C          112.09022525566205      126.24441916774394      117.07603308726496
C          111.63474744944870      126.43112302036799      115.62983835445488
C          111.52611315232618      127.89848191150926      115.21036137874506
C          112.84184348747839      128.68033766799334      115.23299755309284
C          113.91442566011585      128.07267354381364      114.33299238061358
C          115.14546440907382      128.96547253644948      114.18651409300175
C          116.23091480800215      128.26477481086735      113.37226592189684
C          117.46869162602633      129.12762470380480      113.13889103306015
C          118.62348805782668      128.33648738357451      112.51908878785892
C          118.34923494445691      127.90066522260091      111.08085347815666
C          119.46876584120790      127.04789814031305      110.48115824755520
C          119.49956430528685      125.62827871051795      111.04353543878334
C          120.53875201190013      124.75755382863602      110.34818439018893
H          119.71817415953440      125.65806793879084      112.11237050402107
H          118.51236413882860      125.17873822858596      110.91980134868177
H          119.32135551732158      126.98720369324667      109.39920126965690
H          120.43328516038673      127.53236083498656      110.65313673131882
H          117.42275999237019      127.32803928203052      111.04191200116790
H          118.21154184220245      128.79429873135030      110.46679006168311
H          119.52583937222953      128.95362275210263      112.53322574352576
H          118.81504720405454      127.45860877650453      113.13899821830353
H          117.21339186623877      129.97071417366328      112.49263375640199
H          117.80009026758745      129.53584595216248      114.09750200149507
H          116.53363739830012      127.35552427243854      113.89727588201009
H          115.80520505176513      127.96991673054224      112.41211529863385
H          114.86378176950768      129.90019206361819      113.69569567240569
H          115.53461868208656      129.21690020826290      115.17660040664128
H          114.22933909875506      127.11206000884899      114.74534826253142
H          113.48991678906677      127.89049738238494      113.34225345606838
H          112.63665349494985      129.70142074290609      114.89994434293092
H          113.21780254399312      128.74279861412631      116.25607268265767
H          111.11923527751364      127.93769307612185      114.19566181535691
H          110.81273614836624      128.40393232336416      115.86746880498038
H          112.31803985061389      125.91455993148206      114.95583206130539
H          110.65026489804949      125.97037579796103      115.51390595942377
H          111.47357081715468      126.87620917836450      117.72132135236834
H          113.12596504058273      126.57262572727468      117.18436887968228
H          110.95127979479963      124.44751693731276      117.40499709168884
H          112.17831768906186      124.76458319129692      118.63079571883158
H          113.96296193227471      124.20660918424545      116.97574876206835
H          112.71445279074079      123.86006336986804      115.77593091684879
H          111.80786664820168      122.06065325146972      117.21584755081356
H          113.02415612118729      122.41840647060774      118.44253951153644
H          113.72733143362940      120.47638669335586      117.18398858856895
H          114.82389296475560      121.80504138919990      116.81606002660681
H          113.66481764941919      122.22073084109397      114.69124446391274
H          112.44533271678759      121.01132284994520      115.08355976523607
H          114.25769997935309      119.26186243776446      115.07459635627492
H          115.41348121920907      120.49705320770934      114.58657786511334
H          114.06448297379764      120.94399289506056      112.53344532397833
H          112.90841858683305      119.71075836134379      113.02960064937450
H          114.62501080718626      117.96944792523087      112.86631998639120
H          115.85745810901282      119.16736924391635      112.47679020651864
H          114.70414847714957      119.72764726076564      110.37256779742947
H          113.36603693055851      118.66176680300964      110.78988741715507
H          114.99980729936459      116.73301468112126      110.84340879647671
H          116.23947833631196      117.82745073203876      110.22119517527773
H          114.89034807778351      118.20928179546698      108.18042381540489
H          113.60680270447941      117.18737832447232      108.82294032253567
H          115.23068597965261      115.26812910292654      108.91357551874005
H          116.44226087742157      116.29035716284596      108.14422666470490
H          114.82791493301491      116.62242582397772      106.21775873645605
H          113.76102301170390      115.43302479247423      106.96659604302781
H          116.64400957049398      114.88311541596543      106.13588318860177
H          115.24747040049319      114.56287321823154      105.11536876926274
H          114.37225912318014      112.95158206724886      106.77102434721107
H          115.74445191089889      113.27740487747998      107.83418087068631
H          117.30655277982618      112.49571759717681      106.06397061938668
H          115.94020433515445      112.16274736982871      105.00345630765028
H          115.08070961292336      110.47698756645637      106.59155438738479
H          116.39778930979807      110.83645408192889      107.71058186019209
H          118.05347001203042      110.09559427070569      106.01632597274414
H          116.74771706164357      109.75040424498866      104.88330512390056
H          115.82294068052015      108.05641690103924      106.43020770829864
H          117.09123917698257      108.41755017247476      107.60384100762342
H          118.81844977546010      107.63459645865399      106.03917161574577
H          117.60515597834623      107.37130844726873      104.78626412961854
H          116.50418178099348      105.65224015276274      106.14814645420248
H          117.60345272666322      105.96873293407452      107.49004405282290
H          119.50423806881007      105.14026130006471      106.21560629632430
H          118.52114588125798      104.96314224154901      104.76233150263630
H          117.16488604619397      103.24099973641667      105.77306982806456
H          117.86362497259292      103.53059849880825      107.36164887344424
H          119.45318495753243      102.46343807733834      104.99337434768258
H          118.66377062269848      101.45400832164569      106.20208103808470
H          119.99920119019873      102.79393420520081      107.96457890509733
H          120.99322605285641      103.35633983902092      106.62249671697579
H          121.41638027519974      100.95447742759340      105.99605155985020
H          120.53566062861776      100.45322538180280      107.43508020908835
H          123.02300504019281      102.22151137156170      107.45984471047448
H          123.03860143827522      100.47606330252644      107.68721385297928
H          121.62533344588319      100.69915959194778      109.69621096670646
H          121.58691389147261      102.45093171055599      109.49158389413560
H          124.05651587369611      102.54095182775126      109.76605348045175
H          124.10098864867508      100.78791864125397      109.92110961372991
H          124.21537818285933      101.60348412581341      112.13978021999839
H          122.56830550982428      101.01837327541358      111.94561292482172
H          121.85212419934874      103.41314483451251      111.48926567619344
H          123.50059993611477      103.91769953999560      111.87628659376607
H          123.24297449237122      102.74887410230379      114.10937363021453
H          121.54472317823051      102.47741797973718      113.72014876994633
H          122.87407681150412      105.21564808019281      113.91442683169292
H          121.97404457973184      104.43681446173730      115.21431384213980
H          119.93859835724879      104.40203830281663      113.72556255141981
H          120.84445872411590      105.33323051325080      112.53192532933758
H          121.25787806560919      107.09624372730174      114.26153876338414
H          120.26219724931144      106.19214706452227      115.39872079756492
H          118.30085228928843      106.44693186260766      113.88470860661982
H          119.30261439926763      107.32165043524779      112.73165401631169
H          119.74373927000453      109.08032640417423      114.44282173889817
H          118.73314285300684      108.20950046566973      115.59576610851830
H          116.76698675879253      108.49308959767951      114.12341908808874
H          117.76372277664564      109.30319325078247      112.91888524098064
H          118.26360953754904      111.12068803838616      114.52790069717226
H          117.30637905337773      110.30518996434670      115.76335864874237
H          115.27969018116792      110.51738060765662      114.33699733814579
H          116.23103366173642      111.32911174038890      113.09858310536414
H          116.74666531846330      113.16949227955114      114.70439805941821
H          115.79453084191306      112.35287855263545      115.94072076362215
H          113.78122905614680      112.49419866253038      114.47395508662144
H          114.72793657021366      113.35522150610322      113.26373813921933
H          115.11589746190914      115.21100162494291      114.84904298066631
H          114.25612640324134      114.33860078715456      116.11442956611262
H          112.19214336767193      114.35177079486594      114.71153130017332
H          113.04763699791512      115.26445406522856      113.46940442634813
H          113.37948501352892      117.13979517602948      115.05259839059683
H          112.58424942580380      116.22327588005339      116.32941530100821
H          110.49314045390084      116.15496522415542      114.97981982175716
H          111.29467671548242      117.06420821262111      113.69632314052690
H          111.60749113780187      118.98160355254231      115.22527642438129
H          110.85192446843156      118.08494233285467      116.53677535352959
H          108.73161796239818      117.96844468285057      115.28003903571805
H          109.47880418620673      118.77182011740557      113.90185449158972
H          109.77791237096082      120.83202676775240      115.17251832714987
H          109.23878862015468      120.04980161414102      116.65604924357058
H          107.00116171074309      119.69090663442836      115.69051785378888
H          107.51523555224338      120.39703015442100      114.16228058196334
H          107.90856751555624      122.56624275178815      115.24699025655180
H          107.49047762061194      121.89287521837888      116.81728704383855
H          105.56482721931384      121.97027068364167      114.45743901934964
H          105.67770179653965      123.25669331622356      115.66059164600591
H          105.16366785474771      121.57428971051077      117.45405422231184
H          104.88406262480940      120.36513441852854      116.20328169389649
H          103.33122315644695      122.97617367364596      116.49257294123632
H          102.79627582159752      121.39545559421508      117.06234068365694
H          102.97834138366831      120.55545273384539      114.67954364688926
H          103.25377113524419      122.22734499086938      114.17404020660980
H          101.04180827207165      122.85647371464350      115.17669556081685
H          100.77918158775361      121.16499023837898      115.59757771930200
H          101.05188600350156      120.58761944686124      113.13657782815692
H          101.09841577719526      122.31509480362502      112.79367977296521
H           98.81977567835186      122.53657404749374      113.85889337418342
H           98.80955012877197      120.79412555599889      114.10992657494535
H           97.51934780716493      121.18183388165224      112.15487547765325
H           99.05064279095281      120.51572853209068      111.59037971692311
H           99.82861666388398      122.75327915426303      110.93515668306819
H           98.41463378709446      123.49081690751306      111.68441509853642
H           98.04805251102381      123.47995910912886      109.33560531493640
H           96.95290289033068      122.28831174501491      110.03045198439968
H           98.43727171573808      120.45638589678803      109.29835824542037
H           99.63806319303742      121.61893742868149      108.74800211362880
H           97.90664774857468      122.54291955929853      107.14397593484070
H           96.84192111013637      121.21995521090930      107.61312120653734
H           98.74857552806972      119.62699704584503      106.95627620693574
H           99.54637189990356      121.01542775057405      106.22288542523701
H           96.74068021859783      120.05691685620228      105.50803481106428
H           98.20163348771567      119.56380651507583      104.65170473989120
H           98.61876670548975      121.86898070623303      103.93307101646887
H           97.28502329210342      122.45406117143692      104.92652779118099
H           96.48338574623840      122.36818077586913      102.67737238368835
H           95.69478614392338      121.07108223775361      103.56859650475317
H           97.35413603484115      119.44968149347122      102.60351585674140
H           98.07023517088824      120.77033152715202      101.67947152054371
H           95.76361333932830      121.17461992389809      100.66783441945159
H           95.22938406134048      119.68969165955502      101.44317619627135
H           97.42373706367847      119.99669685466573       99.34991705086833
H           95.81753755250985      119.32170634661178       99.08854651057496
H           98.01025547704320      118.09649814931571      100.82098157934301
H           97.55146618028346      117.58946450221306       99.20175358875539
H           95.23382719113884      117.07974630154635      100.08158672141052
H           95.82720551124451      117.42928930897932      101.70506402303880
H           97.56673130027369      115.63871111022823      101.42077327728197
H           96.90720377510341      115.29040088259543       99.82464778691754
H           95.93022242645546      113.65439774731225      101.22460093137956
H           94.65622577893922      114.85013673397653      100.99782572865418
H           95.35397747817252      115.88273594425553      103.22065797128469
H           96.48096112812199      114.54374688407492      103.41962716382157
H           94.53874319639019      112.94687223339517      103.27097100160090
H           93.44820655177172      114.32797716585819      103.16443780298857
H           94.37396936178173      115.15453060480878      105.35727638627145
H           95.31455977186572      113.66568262202355      105.48061341711849
H           93.07920449156239      112.40739826446023      105.27308180710938
H           92.28411245471642      113.96124802824264      105.51555291082521
H           94.24452965642892      112.61022185218064      107.41277967817987
H           92.48985717632512      112.65120121255021      107.61303272769642
H           92.59171456786295      115.14573468444610      107.78273838109065
H           94.35130761767402      115.06263495426667      107.69263893843454
H           92.64251051469768      113.81211337863071      109.87983206973040
H           93.55709357351840      115.31402705974637      110.00802740714113
H           95.66780029545359      114.01053652619721      109.53161227454542
H           94.70913328172367      112.53173520992331      109.56460516593093
H           93.99374128063438      113.17258891632028      111.93286082510083
H           95.23726954436511      114.42011090629420      111.88551489230260
H           96.95800679401968      112.68146991659258      111.40989671104056
H           95.69479090530072      111.45374225098560      111.36212024186685
H           95.14868302662710      112.02915613926049      113.77666483522856
H           96.56478275148422      113.07603607453625      113.78691488541060
H           97.20981876900611      110.97493370360330      114.75538784713740
H           97.98605812710031      111.08551935127961      113.17620193352107
H           96.33539873674515      109.54689489467985      112.20709550198018
H           95.35851348577424      109.62526996227841      113.67135402957237
H           96.49953892626883      107.53916055935392      113.70908868021766
H           97.22580984079627      108.56047116748248      114.94400607799689
H           98.96553298492225      107.36332194687708      113.84783033754344
H           99.12431516753635      109.05093893216396      113.37760317070648
H           98.22539570965584      108.57691922143151      111.15696593512381
H           97.73385624445017      106.95589992880761      111.65314576554432
H          100.09683060842200      106.34202194567644      112.04201511851244
H          100.61062409965594      107.95901720540520      111.56569463760623
H           99.86996617833805      107.58643611743044      109.27039863102056
H           99.09891521188952      106.06580974366507      109.71828706062287
H          101.27961297467772      105.09375281254493      110.32311891290385
H          102.08900310224514      106.61659715749956      109.95677945177817
H          101.51971528927308      106.39097459543103      107.57733667920381
H          100.48655236619450      105.00876369279975      107.92935527664544
H          102.45619746809716      104.07422026475389      107.04727664034304
H          102.50040445761236      103.77099029894362      108.78025277893217
H          104.69515061375925      104.37457197542803      108.16758418961955
H          104.05706837678743      105.79613110137497      108.98499615002989
H          103.71160746968329      106.93145950501450      106.84074176253328
H          104.01119690522697      105.44213103894757      105.95959294097950
H          106.36747129263976      105.43917182173540      106.79201353184608
H          106.07312938366761      106.97785291111376      107.60338885779298
H          105.55273240170176      108.04021747626477      105.42076304196800
H          105.71820196157175      106.48304181438895      104.61756274706747
H          108.13994655637084      106.42420366530979      105.42121634053910
H          107.93145802283534      108.09106573308047      105.95046676377565
H          107.25397787947952      108.71073627863433      103.61872179638949
H          107.56186976418356      107.05010305881662      103.10896764280457
H          109.94336204950135      107.28194077182422      103.76838334573996
H          109.62230484799078      108.91442425446506      104.35214575281974
H          110.66370974827153      109.15328884835739      102.23308439189036
H          108.97000899628425      109.57840286169976      102.00685999379255
H          108.54996295679184      107.30586694578747      101.04016250074152
H          110.24784311010532      106.90147234811126      101.29917030460381
H          110.88392553234412      108.81449289146559       99.79479808784976
H          109.17634271995800      109.09731242089367       99.47564822345095
H          108.97492641351185      106.81064985202215       98.52262208606236
H          110.67395003560604      106.50582099895834       98.88532804627069
H          109.64217440858934      108.66393935511384       96.98467626257515
H          111.33996261401013      108.34708155590356       97.34611343670832
H          110.37608632373757      107.13143997109769       96.50324962449257
H          121.53447193294492      125.18051963108653      110.46540694674955
H          120.54057330349859      123.75490846499774      110.77056629313756
H          120.32570748155749      124.68222635789473      109.28321295157723
C          111.47218506666609      107.18895940145836       92.91319777809639
C          111.04750306767124      107.80149771759193       91.58383853951112
C          109.53030854320311      107.93822834843265       91.44456867211876
C          108.93386835205605      109.01051229794274       92.35331255130711
C          107.41589035479410      109.10237992014542       92.21239166308808
C          106.81713729972749      110.11446373759857       93.18564658946242
C          105.28913516702791      110.12054955565361       93.17254952511986
C          104.72343448747306      110.96871037973324       94.31066247574438
C          103.22606486407639      110.75125670423554       94.52007174897911
C          102.64081430041985      111.59675889514163       95.65480217575346
C          103.23685109389443      111.25236120410766       97.01774701480005
C          102.61361675780559      112.02126419833351       98.18213898841582
C          101.22938201526127      111.52469868289424       98.59313979160156
C          100.79490487240783      112.12425224187326       99.92978641315479
C           99.47995096200617      111.53319101377294      100.43115516637974
C           99.19412763774919      111.90886907324511      101.88297567214396
C           97.98419757955662      111.16438335494567      102.44175032042251
C           97.80444568637162      111.39080433851177      103.94001037426922
C           96.66005928923039      110.55882880296478      104.51387909896688
C           96.62136462463894      110.59616146034573      106.03946768713617
C           95.52047219369206      109.70416800020602      106.60850248677987