3258
 energy: -3427.492512976044 gnorm: 0.000704018663 xtb: 6.6.1 (8d0f1dd)
C           92.91935565581596      100.80260269468459      120.31916542014331
C           93.92480816459452      101.52471098686817      121.20861154177416
C           94.60254971411624      102.68073525862597      120.47760955926189
C           95.65325506939355      103.38137733390690      121.33607498194530
C           96.33408390048727      104.51817445468772      120.57745004007258
C           97.50468441866875      105.14171022248924      121.33633653079086
C           97.08755989129648      105.89463277807420      122.59908943779836
C           98.15953718367209      106.86817453635683      123.09296526673897
C           99.45365630155560      106.19134355572328      123.54247671098614
C          100.47309145524919      107.22230180104584      124.02481120505355
C          101.75813286238433      106.61521660696931      124.59120661992645
C          102.55476773623974      105.82049584756392      123.55817263423700
C          103.97963895638706      105.52458830073338      124.02462694862864
C          104.79707687687399      104.74945772231706      122.98893625468291
C          104.40058407439651      103.27953353742650      122.87955096634620
C          105.09656422520115      102.58588249650892      121.71166339914666
C          104.66609291062194      101.12783441481807      121.57742481966504
C          105.19846997592336      100.47454869360567      120.30401184800816
C          104.81638918721342       98.99703360599055      120.20204301673404
C          103.35820845247869       98.74963853113114      119.80866907136019
C          103.10514970685533       98.88850163025243      118.30887081516666
C          101.63852869686586       98.64351819422566      117.96499481971877
C          101.36722471776214       98.68333382225198      116.46335859612570
C           99.87506877754564       98.62298169663983      116.15101411661951
C           99.57515232273934       98.71831648750484      114.65739907014020
C           98.07099710341748       98.73164606992225      114.39603574889419
C           97.68922283333762       98.97975836060108      112.93665109889392
C           97.92420187543078      100.41973406959582      112.48369118712793
C           97.33884372408028      100.67497005090115      111.09824956598030
C           97.60022460562310      102.08467325473248      110.56616546588833
C           97.04769507900643      103.19406498433227      111.46244409461714
C           96.95495636862340      104.53203544841016      110.72819053421279
C           96.66860525071802      105.68792360440315      111.68530380504646
C           96.26894461005341      106.98800120687079      110.98728913143854
C           97.33104704610456      107.56078231365299      110.05076854780449
C           96.88879964628354      108.91716918693638      109.50330023985127
C           97.83934132402139      109.53559809925599      108.47621461597915
C           97.83147042086524      108.80710591826517      107.13366311176550
C           98.67861453736424      109.50270485340218      106.06895289310553
C           98.63026237191917      108.75420942918058      104.73748406523389
C           99.60887007885084      109.30652794298611      103.70308422650072
C           99.55564137020809      108.51247914390780      102.39810705844546
C          100.74240348831204      108.75933137509459      101.46673686439514
C          100.76942551689535      110.13058947573957      100.79420081356777
C          102.03693266782464      110.28589286353491       99.95411294093822
C          102.13610846819631      111.61896697110564       99.21604252422794
C          103.47177828426862      111.75303405238630       98.48667648269024
C          103.60607746510743      113.07000272101925       97.72657894190685
C          104.98961228525245      113.22928614251425       97.10001049517611
C          105.12733677032418      114.52917498875341       96.31222250377935
C          106.54552726870364      114.74980658685941       95.79078434339525
C          106.67630294085744      116.04446380744814       94.98798549386908
C          108.12581145636814      116.50304956394828       94.81759989651006
C          108.96719432966256      115.60073490449182       93.91725064948069
C          110.41046601449685      116.09516603748520       93.83215065601210
C          111.26645916012552      115.25662236591248       92.88560585068277
C          112.73928257937366      115.65770863899098       92.93698713961598
C          113.59458565050467      114.87381486470215       91.94053285879411
C          115.08256540861301      114.87010934864288       92.30337340793687
C          115.39090357029053      113.85809898206516       93.40421637761133
C          116.84731891034973      113.87214727914949       93.85935052863401
C          117.07714353290935      112.84779695866274       94.96757446926571
C          118.50605380036441      112.84314677713807       95.50131116946496
C          118.66939647549910      111.85226174688621       96.65219434252145
C          120.09000828243460      111.83320361628820       97.20704019963834
C          120.23509624480964      110.95320879921947       98.44732611526635
C          121.66432933522559      110.98768711069080       98.97999108054501
C          121.90305858754573      110.07927643213448      100.18376550483491
C          123.35628793956084      110.17290909891760      100.64517426357781
C          123.72228931938432      109.18072889522702      101.74556420769491
C          125.17980402366391      109.34395057973467      102.17594379972391
C          125.61254187219924      108.28104955598000      103.18269887743560
C          127.07123025536001      108.40987345625869      103.63112537845171
C          127.42715277785992      109.70947740419315      104.36003427714581
C          126.61891046080372      109.92048174354579      105.63748627461621
C          126.93646959312575      111.22979085421434      106.35775126219355
C          128.29165374237138      111.25531987155057      107.06036000374401
C          128.44614057124326      112.48114907096108      107.96256907404084
C          128.51957546070699      113.79590196675282      107.18937679938873
C          128.50695339082668      115.01018412565361      108.11472065831634
C          128.56594037975000      116.31481840670529      107.32330592469503
C          128.49550646358978      117.56876847909189      108.19628396296875
C          127.17541656886129      117.75379757535995      108.94647457166010
C          125.96380717502959      117.87831130127070      108.02409438425805
C          124.70996405669113      118.37081822153009      108.74905784505880
C          124.18435863901352      117.43686949453141      109.83978666816509
C          123.62891262669859      116.11989356372659      109.30500433987305
C          123.15509041250785      115.21034297454931      110.43740769013256
C          122.35212930955399      114.00505845057670      109.94984206143997
C          123.13598330908839      113.08208115932477      109.02119429666836
C          122.33546410774639      111.83621949351134      108.64864524864794
C          123.02308591489233      111.02080547111753      107.55791154920652
C          122.25762204739678      109.75241677464693      107.18944369916377
C          122.94305766427456      109.00980440206898      106.04675587186192
C          122.20040328333720      107.76130082468788      105.57355546983668
C          120.92116399509443      108.06738170394885      104.80049699904927
C          120.33418287661554      106.80123430127647      104.18362195939125
C          118.96338624525202      107.01342818505535      103.54522832735090
C          118.99160855807004      107.85409113344210      102.27215388059211
C          117.60728091565275      107.91501632981047      101.63534868490434
C          117.57220100569631      108.75096001264521      100.36049176492047
C          116.18650264526336      108.72782261109217       99.72341378368969
C          116.08201784024803      109.62511965042754       98.49480253500046
C          114.68291881267393      109.57289404163816       97.88950198102829
C          114.48183198104607      110.56053804038690       96.74369342797507
C          113.08507371553146      110.42440655540953       96.14444579538443
C          112.80982595279228      111.42868146295255       95.02812276233590
C          111.56118911396364      111.08415539307587       94.21569614346657
C          110.27977593334248      111.06045627212814       95.04285855157518
C          109.06095045385607      110.70043773625677       94.19666504367787
C          107.76792070379372      110.59770400707707       95.00676038475054
C          107.77949176608398      109.43565347478962       95.99458412983546
C          106.45256335984273      109.25472410538485       96.72774966206822
C          106.62174497297079      108.32345129930354       97.92378295875477
C          105.32414727616171      108.05441761236935       98.67872937357033
C          105.59613166817105      107.21255364881264       99.92194000100008
C          104.35035717690573      106.84695712273582      100.72448192313433
C          103.34427295542882      105.99140598724993       99.95491795392714
C          102.35308769423861      105.30452068339875      100.89249219998354
C          101.19826854660369      104.65909051568923      100.13947621371507
H          102.87943693534703      104.54233890927881      101.47209515845280
H          101.95396742848443      106.03721528116864      101.59664110009794
H          102.79389179200736      106.61563686841710       99.24796612294455
H          103.87546865462339      105.22954406100656       99.37776619440874
H          104.67826965115415      106.29339064352463      101.60765569742773
H          103.85520321699477      107.75753071763798      101.06927137997901
H          106.10497259672358      106.29383620873929       99.62370051799242
H          106.27735227603897      107.76599174939624      100.57413792429915
H          104.86231114393864      109.00035488442632       98.97008344479600
H          104.62602874962488      107.53366453147277       98.01991485206548
H          107.03294811389495      107.37195319331148       97.57909795423942
H          107.34460862612264      108.76679063494689       98.61297892333938
H          106.09138206424402      110.22501021425592       97.07579042672016
H          105.70144219975852      108.85333596899189       96.04369333303363
H          108.02424371590971      108.51428246154686       95.46093003637304
H          108.56002948914330      109.60567826172894       96.73698072894760
H          107.60410672888813      111.53124851384970       95.55071875855883
H          106.93023064772437      110.47088106769419       94.31604430103928
H          108.93108543354555      111.45693022086148       93.41958391379232
H          109.24457871475209      109.74610066779405       93.69473763432646
H          110.38866373024791      110.32741288965880       95.84061824432713
H          110.12726967688279      112.03915662989512       95.50252162849259
H          111.45093560744210      111.81391742518137       93.40886012862993
H          111.69909730375807      110.10573281167331       93.75042125247435
H          112.70623105531095      112.42933815953184       95.45334532775730
H          113.66802155131410      111.44781175331805       94.35166355587479
H          112.96832842837692      109.41201200318530       95.74983350693097
H          112.35106168589887      110.55281338363676       96.94210883049276
H          114.62520468576791      111.58006434845363       97.11147943698803
H          115.23283438324741      110.38271299296206       95.97090511687330
H          114.49029453732126      108.55954249321232       97.52543828235113
H          113.94899309479847      109.78344210679278       98.67236452483058
H          116.32067851730784      110.65144293780133       98.77961375678255
H          116.81862368606998      109.31576317230515       97.74955601052909
H          115.93727971571882      107.70073089819329       99.44255962425592
H          115.44925122862655      109.05229972572410      100.46264718665918
H          117.84963383668858      109.78189088598458      100.59262469647497
H          118.30774468743959      108.36667582051953       99.64944450660045
H          117.27634545469401      106.89838421170563      101.40623082774336
H          116.90133181653893      108.33345890529718      102.35695473641655
H          119.32992755098176      108.86650247913248      102.49728320900657
H          119.70048496421160      107.42059275970360      101.56212914973540
H          118.53510953105938      106.03710855055704      103.30298901425252
H          118.29714503502102      107.49242453071908      104.26780623525879
H          121.02468224483218      106.41096401864830      103.43158721631420
H          120.24434958011396      106.04322068849983      104.96544445443551
H          120.18661905728825      108.51355875745996      105.47220230860735
H          121.14094346221962      108.79071555312744      104.01274019323483
H          122.86731304415180      107.18591770855629      104.92376756794935
H          121.95931578824441      107.13390344730789      106.43536413126053
H          123.06252057773635      109.69272688511960      105.20074956320742
H          123.94307576178321      108.71704400208439      106.37798162065127
H          122.19556155467747      109.09755456039920      108.06263735444604
H          121.24294834350285      110.01824404953068      106.89220721054750
H          123.13475898800590      111.64123302908504      106.66537332205475
H          124.02683802260576      110.74889099868167      107.89370058038044
H          122.19827351414038      111.21375558772421      109.53664175939403
H          121.34567395154870      112.14230976717495      108.29951238373390
H          123.39360259631844      113.62099002613554      108.10678614029526
H          124.06813951472893      112.78475640425522      109.50696516179148
H          122.01743910428326      113.43141437775222      110.81891527965800
H          121.46087595612384      114.35961447342042      109.42706572838830
H          124.02152144675665      114.86613947970338      111.00870461926722
H          122.52443341760778      115.79287126171531      111.11481812567054
H          122.79174950492418      116.33021387485405      108.63383787265768
H          124.39772369726680      115.60682502577632      108.72651019201629
H          124.97650236288065      117.23031180884081      110.56201144700870
H          123.38779449483341      117.95800187611981      110.37565074487385
H          124.93271117649815      119.34092883986435      109.20139138553763
H          123.91775531830304      118.52918887294634      108.01231875496480
H          126.20044418509583      118.59100153156895      107.22876477223940
H          125.75654066586165      116.91837061980264      107.55054481755590
H          127.03409724862065      116.91940622328021      109.63338684998361
H          127.25433406588822      118.66275085721057      109.54880576929051
H          129.30944368486786      117.53595177174225      108.92590651672191
H          128.66230269053884      118.44225647424818      107.55966159145831
H          129.50228494021610      116.33942383623443      106.75856501767619
H          127.75150877048887      116.33234750117418      106.59667177480387
H          127.59467329933629      114.98210435928664      108.71278423853519
H          129.35539656598687      114.96148390428581      108.80206984919393
H          129.42562955626860      113.80832255417241      106.57782431715688
H          127.66533594696190      113.87051918313085      106.51447078632475
H          127.59854465018213      112.52036175280644      108.65023911684749
H          129.35283604602009      112.37352089347235      108.56433364679017
H          128.38837957276243      110.35523369654224      107.67374702786633
H          129.09799532325019      111.24290924159375      106.32410618284045
H          126.88461180124749      112.04409857139471      105.63461493912402
H          126.16096214417460      111.40580341075272      107.10753670010391
H          125.56110396472610      109.94017698993994      105.37725407618517
H          126.78304728105633      109.07865959427895      106.31541721033152
H          128.49181406625604      109.67815885143031      104.60352321912161
H          127.27420415912253      110.56020040745983      103.69247886458311
H          127.29991799662770      107.56861935994442      104.29140749831797
H          127.71663058397914      108.31968148324161      102.75281606741531
H          124.95581079495983      108.31676571803035      104.05175357743134
H          125.48832880186158      107.29511981810793      102.72543133725736
H          125.82403312104134      109.28399321180557      101.29424064117778
H          125.30514096522637      110.33808805121778      102.60917236406407
H          123.06944413887194      109.32738461701227      102.60885258835887
H          123.56067598993747      108.16157820428651      101.38491613036777
H          124.00854836115549      109.99577686482189       99.78590214311919
H          123.55289564965810      111.18770959564959      100.99979100410788
H          121.23513146534785      110.36103393918810      101.00106155050884
H          121.67160887184777      109.04659431445897       99.91236274547416
H          122.34298553875962      110.68941982403345       98.17785933191068
H          121.91733704144116      112.01496538125026       99.25617512805631
H          119.54657251350274      111.29772353017972       99.22154592255720
H          119.96229119323561      109.92638314494093       98.19621289750101
H          120.77463253281378      111.47704800499049       96.43257023156218
H          120.38935163884899      112.85529432502040       97.45595208648145
H          117.97303084645277      112.12143988821644       97.44963214872671
H          118.39834433390598      110.85051516456917       96.31216928160173
H          119.19738686316919      112.58986806325028       94.69372799180657
H          118.76495380971090      113.84647893060365       95.85039059605853
H          116.39147262332926      113.05925102920679       95.79150248863019
H          116.83270370974968      111.85183921987698       94.58882881513726
H          117.50020426074262      113.65035970622753       93.01198582892775
H          117.10692300011922      114.86829893078833       94.22611803564457
H          114.75378917465711      114.05232762115418       94.26883125763284
H          115.14612420357960      112.85831369322729       93.03622659509602
H          115.67059735092859      114.61669077614383       91.41787265985613
H          115.38365119004204      115.87116634356701       92.62246387968527
H          113.24584476221042      113.84009864563264       91.90417807398968
H          113.45893837934054      115.29838835438922       90.94323075317124
H          112.83554118945197      116.72802336186582       92.73770013855935
H          113.10995361381242      115.48422649933910       93.94826446840312
H          111.17842572108991      114.20343735692181       93.16424600456520
H          110.89224426347060      115.36134444966174       91.86440239141881
H          110.41756675641420      117.13579792087585       93.49695141475284
H          110.85281332482012      116.07090488894892       94.83131861294092
H          108.96191638307194      114.58137931817612       94.30821037569159
H          108.53010447346792      115.57775264773731       92.91599627635033
H          108.12723005599182      117.51246040647291       94.39671212836599
H          108.59669642797955      116.55959645060203       95.80244143669927
H          106.21427128100845      115.92293569638706       94.00515690829299
H          106.12909883153273      116.83489178135144       95.50979218244183
H          107.22761805934044      114.79570015122358       96.64134896522066
H          106.83781275510682      113.89822997973229       95.17288335260328
H          104.42931295042003      114.51133298950083       95.47287763574205
H          104.85254258193613      115.36950617653366       96.95622219850256
H          105.74230110036599      113.21168207105420       97.89100844307541
H          105.18583626319051      112.38477407563541       96.43432683261270
H          102.84653480854786      113.11516104060892       96.94298623441559
H          103.42569066818812      113.90188752195000       98.41142647273456
H          104.28190854060311      111.68147190270405       99.21762614695706
H          103.58287869954248      110.92186048113680       97.78523877860695
H          101.31914337564756      111.70119075682683       98.49489335590999
H          102.03187589774176      112.44011961563639       99.92955893470487
H          102.90469120561940      110.18432299126673      100.61122447540951
H          102.08365517450399      109.47264422364879       99.22431497345309
H           99.88781333419772      110.24920372433421      100.15844890535965
H          100.73689990827678      110.91419203012299      101.55296982559990
H          101.66687304123336      108.63074328258766      102.03675177570238
H          100.73155315935203      107.99610257739816      100.68427322579390
H           99.54338390668305      107.44705709399214      102.64679395867400
H           98.62497168781022      108.73210347747876      101.87391774711584
H           99.38387852492217      110.35748343595547      103.51070255834088
H          100.62008644403907      109.25289357878680      104.11418515606337
H           98.87111879635208      107.70389562690977      104.91635693128465
H           97.61466022955538      108.79352619171195      104.33704536998169
H           98.32260119472757      110.52724608684835      105.92841702834511
H           99.71579984920584      109.56071413975336      106.41092437186433
H           98.20891326341928      107.79112011993900      107.27028983811881
H           96.80201334577725      108.73319567561570      106.77349940175463
H           97.54116758595831      110.57493165975350      108.31001154606493
H           98.85222996222952      109.54870569391308      108.88205531643592
H           95.90330586829036      108.80596981798790      109.04582812437999
H           96.78259555195757      109.60975565833409      110.34358060771537
H           98.27175458790335      107.67486205535475      110.59334622868253
H           97.49803583429602      106.86574114484296      109.22764369641536
H           95.35502452918361      106.81328690782868      110.41538839607327
H           96.03836653077698      107.73479744087916      111.75390932112562
H           95.85207405575548      105.39716246032459      112.35357124592520
H           97.55154949248745      105.86495717677370      112.30414329784413
H           97.89132241224922      104.71733577537869      110.20054909645083
H           96.16056167092374      104.47536941157253      109.97970614625042
H           96.05304654788841      102.91440544937259      111.82099599067448
H           97.69234853826575      103.31029333298211      112.33618864859037
H           98.67515821342714      102.23149382886709      110.43859259976833
H           97.13958236863419      102.16426788461199      109.57772927650194
H           97.76345277407974       99.95268187375302      110.39582195022491
H           96.26113530220044      100.49817523285121      111.13412945695111
H           97.45493036558292      101.09606591878202      113.20095055303331
H           98.99309090687949      100.63760466985246      112.46501282098221
H           98.24555645343857       98.29670292423003      112.29176982337827
H           96.62613821177577       98.75233022144809      112.81501080419493
H           97.65247094150676       97.77348083302046      114.71592282611583
H           97.61052729487569       99.50725873929329      115.01373569550614
H          100.02518744838187       99.63168029961935      114.26576415308617
H          100.02891555259308       97.87364925711434      114.13467789622763
H           99.45590929026675       97.69540957671923      116.54953152413071
H           99.37625678305882       99.45296632500778      116.65839065009845
H          101.78107404977588       99.60565030774040      116.05062163902781
H          101.87538181258373       97.84663333113215      115.97830455851084
H          101.32900898828638       97.67325191466458      118.36204560731883
H          101.03190071907156       99.40574989319735      118.46068028221710
H          103.39145904039898       99.88749443632499      117.97266979811769
H          103.72739640075542       98.16917622054062      117.76970517861548
H          103.07880592026855       97.73759838774390      120.11105548724223
H          102.70624121088738       99.43901357562629      120.34886753363111
H          105.45861061134174       98.50885995784404      119.46395134262471
H          105.01058085052071       98.52475891797411      121.16865251594703
H          104.82133168898538      101.01188040254463      119.43140600977523
H          106.28725355526016      100.56174865664580      120.29559992710224
H          105.01811943362247      100.56511036575840      122.44650929700681
H          103.57463524730386      101.07878403142743      121.58463328008638
H          104.85644303437131      103.11989563287196      120.79051667165585
H          106.17884989865520      102.63571396336226      121.84843636837172
H          104.64855400151205      102.76759908481000      123.81307183147005
H          103.32117185324161      103.20140656387784      122.73809809051887
H          104.67805236921144      105.22569785948620      122.01244765159066
H          105.85678735114888      104.80970084299115      123.25141683302266
H          104.48063298918150      106.47464543750044      124.23012690030676
H          103.94954361257935      104.95985668759576      124.96009266413060
H          102.03668719777146      104.88386383872070      123.35038565801493
H          102.59917930525263      106.39686605374845      122.63119694332806
H          102.38267242750560      107.43030947612220      124.96737592087321
H          101.51529420557178      105.97147561638687      125.44039681191687
H          100.72939446938230      107.88106484454890      123.19131449632037
H          100.00973543167265      107.83920064504673      124.80000004286258
H           99.23489169628702      105.48823270781186      124.35026707644535
H           99.87427639878814      105.62882272156219      122.70945323762518
H           98.38978472407099      107.57758004023579      122.29399722270509
H           97.75226377327832      107.44087649012981      123.93096571610069
H           96.18012782938840      106.46647241203071      122.38587754221062
H           96.85098262363339      105.18446374133033      123.39415851872278
H           98.21611181089381      104.35736155036506      121.59493513055106
H           98.01116239575909      105.84216431276089      120.66745668187947
H           96.70730295064259      104.12928521123938      119.62648578399305
H           95.59622791147243      105.29108078004788      120.34563581890507
H           95.17792442566414      103.77113307524189      122.23844714831901
H           96.40682450595918      102.65368992237582      121.64636355369289
H           95.07764086382579      102.29764757199466      119.57014719413846
H           93.84558179173393      103.40605231038789      120.16747040491643
H           93.41665138673680      101.90723848941607      122.09717281911904
H           94.68531572800494      100.81548077245577      121.54342659386984
H           92.44608799753756       99.98584607784622      120.85937843695066
H           92.14288381757903      101.48771783105954      119.98468719253707
H           93.41315668611286      100.39147951850742      119.44130238870667
H          100.52665497383900      104.15064632996939      100.82797901188172
H          100.62918561373445      105.41488522946128       99.60220449263642
H          101.56853321759601      103.93250864233984       99.41926046459895
C          101.33300593908773      112.62146984577876      104.91340186227029
C          102.58961674856093      111.87642822050672      104.48455782848309
C          103.10377505326709      112.31383390734703      103.11312855146103
C          103.81111036386383      113.66521758563576      103.13277837234688
C          104.28402387911851      114.08438757782361      101.74228291728798
C          105.22929729771484      115.28104260552035      101.80136293718152
C          105.69924675640402      115.72389158512600      100.41811978571188
C          106.80048450167811      116.78520083557756      100.46504296308811
C          108.12902757670689      116.24822862175601      100.99647467907589
C          109.27421120516439      117.24368697718742      100.82803212802968
C          110.60536996827929      116.64578290513778      101.27690887906233
C          111.78919373863714      117.57069743639993      101.00796914333493
C          113.12060101949785      116.91395998106812      101.36294660896246
C          114.31992440846099      117.78799695368158      101.00211951972229
C          115.63701562510519      117.07744595803591      101.30836724299813
C          116.89283323133697      117.89938029712387      100.99295180301175
C          117.49608863196292      118.62876862696113      102.19319038879495
C          116.61218665543454      119.74104588152221      102.74555589631331
C          117.30100167024241      120.50690538523031      103.87080866068358
C          116.50897654226983      121.72793560223769      104.33426390462181
C          115.22336362729182      121.38463965616531      105.08366874896105