3258
 energy: -3427.484833553865 gnorm: 0.000954006795 xtb: 6.6.1 (8d0f1dd)
C           92.92035586533605      100.80342235922438      120.31835317077774
C           93.92561073224981      101.52487137577403      121.20825238971467
C           94.60309013331852      102.68097024864471      120.47716294419226
C           95.65328545287882      103.38174248150980      121.33625575856506
C           96.33368609754106      104.51863026362820      120.57723120186998
C           97.50461285490559      105.14194442197159      121.33630420138208
C           97.08756555581581      105.89489641948794      122.59914965845884
C           98.15973059149779      106.86824233221111      123.09278454807604
C           99.45394101159377      106.19097931644919      123.54179563089872
C          100.47316983772522      107.22218514206492      124.02436515556548
C          101.75801696481317      106.61518814730692      124.59108653947639
C          102.55454738722480      105.82007675615031      123.55809789035692
C          103.97953028798109      105.52459174506663      124.02502599539791
C          104.79722867917911      104.74948530398821      122.98925729559581
C          104.40014927551658      103.27942403385794      122.88040865737480
C          105.09637127114927      102.58575144499638      121.71234231623541
C          104.66520646382408      101.12761715573303      121.57816398663989
C          105.19788236910132      100.47462575002866      120.30443993964946
C          104.81558326536936       98.99680785352139      120.20283869137464
C          103.35731651157768       98.74947237178938      119.80941001452430
C          103.10476859329702       98.88868960027069      118.30931801419077
C          101.63779377370925       98.64326862245618      117.96607572533966
C          101.36682128272192       98.68314023296496      116.46409509005653
C           99.87436064806879       98.62271112846634      116.15177906796312
C           99.57520179138355       98.71813080195108      114.65770327402254
C           98.07072539292641       98.73128357490951      114.39635575058659
C           97.68909165304430       98.97937665199099      112.93681415178006
C           97.92428820542582      100.41974167751236      112.48399428489084
C           97.33873729026813      100.67469300467860      111.09822945453188
C           97.60110096469637      102.08442049385908      110.56600108785435
C           97.04880486422351      103.19391241070029      111.46286937771087
C           96.95529406848505      104.53173185477692      110.72784418436407
C           96.66974644057650      105.68777620130967      111.68551645938922
C           96.26899631602193      106.98753260508425      110.98706512318493
C           97.33118532054493      107.56032443053779      110.05012457861794
C           96.88825192064731      108.91700274018019      109.50292865213777
C           97.83933022465816      109.53569882083130      108.47612966153108
C           97.83149567056346      108.80667037779017      107.13348529506379
C           98.67880893849804      109.50270005822345      106.06873335427328
C           98.62981790597878      108.75354402027233      104.73728672355841
C           99.60854683968140      109.30658171750061      103.70293297436764
C           99.55523624858478      108.51225072493170      102.39780478144077
C          100.74285919120311      108.75925339855259      101.46710580518963
C          100.76934612508109      110.13091486593009      100.79467376613405
C          102.03714873250934      110.28575612756619       99.95436311941823
C          102.13583377846716      111.61911304374993       99.21613602560984
C          103.47174261327052      111.75262626734114       98.48646035488915
C          103.60565137858657      113.06996580551697       97.72630895996868
C          104.98948159997494      113.22898518982967       97.09963625010656
C          105.12681554068081      114.52920360556182       96.31184437974694
C          106.54532180583760      114.74929858473010       95.79044281470729
C          106.67603516459354      116.04412366500246       94.98760842181603
C          108.12575556210633      116.50221611168783       94.81810993364360
C          108.96705264917682      115.59979245024573       93.91752951514859
C          110.41033823595087      116.09473273303709       93.83250046843378
C          111.26610714394138      115.25578149286851       92.88585638709704
C          112.73899622552584      115.65711909460997       92.93734897290626
C          113.59410544831907      114.87280638773464       91.94081716841455
C          115.08211601378173      114.86956860406620       92.30353234965922
C          115.39058956967617      113.85750071052965       93.40448652172141
C          116.84732650276574      113.87225005198981       93.85929314395669
C          117.07702706477332      112.84780718719684       94.96771573021697
C          118.50622635890991      112.84385185766966       95.50136554820847
C          118.66927335282797      111.85244464857929       96.65217947183176
C          120.09012840951607      111.83409194978694       97.20719221777043
C          120.23496887252207      110.95362078916408       98.44752850916976
C          121.66448048811409      110.98877539948664       98.98029466929266
C          121.90287193730200      110.07987669749556      100.18412766806698
C          123.35638942123381      110.17395896909134      100.64539945050056
C          123.72211394103780      109.18125842395897      101.74574898843083
C          125.17991074469757      109.34468775060097      102.17582874912806
C          125.61271284795184      108.28141388135515      103.18241432076006
C          127.07138297073399      108.41159578766070      103.63066928312205
C          127.42703027923092      109.71102215914688      104.35977606781374
C          126.61932505875629      109.92037307975069      105.63796538815362
C          126.93689949617450      111.22988182345593      106.35854030464340
C          128.29264986187098      111.25556714636467      107.06020443974303
C          128.44644842970462      112.48138128790795      107.96256762079527
C          128.51925579322469      113.79611347973869      107.18909746347448
C          128.50625936537975      115.00999621355380      108.11510346008130
C          128.56511875237737      116.31433186746497      107.32312037272138
C          128.49528786810976      117.56806497247636      108.19611206207234
C          127.17565094328148      117.75314092127628      108.94708419653195
C          125.96445325041512      117.87710268129086      108.02387782104711
C          124.71038422188587      118.37044149346644      108.74782725155380
C          124.18456945544166      117.43685484086167      109.83904974483674
C          123.62963910115646      116.11960028554370      109.30358345508191
C          123.15583538569619      115.21040956102058      110.43658958161447
C          122.35236351579243      114.00501466196509      109.94914623429189
C          123.13702685749797      113.08211256438025      109.02068621884722
C          122.33541958936107      111.83649297783126      108.64826806498310
C          123.02330340325278      111.02095049812715      107.55733654877665
C          122.25734148347327      109.75226412708646      107.18939760708477
C          122.94307310592990      109.00970384987697      106.04632316753916
C          122.20057199014485      107.76070744932854      105.57362074167939
C          120.92101404354561      108.06699865523100      104.80051932794238
C          120.33457689920137      106.80035334694236      104.18328663768926
C          118.96342102386443      107.01289510198249      103.54511260999341
C          118.99206701820948      107.85395023026679      102.27188153007023
C          117.60706147275855      107.91407548491730      101.63559112884086
C          117.57189204207344      108.75021999364050      100.36055745017464
C          116.18557417204387      108.72653093236949       99.72406274552232
C          116.08180625979435      109.62463033580661       98.49558054604557
C          114.68252014041904      109.57185255027716       97.88998649829836
C          114.48191878847256      110.55997213408081       96.74408261439569
C          113.08483390306023      110.42351179441657       96.14485291994212
C          112.80989854554012      111.42830914480807       95.02848229968559
C          111.56164181700808      111.08297639444757       94.21549806330215
C          110.27999313244568      111.05954322590682       95.04283599850515
C          109.06146419084619      110.69915362851673       94.19585326230352
C          107.76817708277319      110.59739262240974       95.00599373421663
C          107.77966859488507      109.43514030790323       95.99405847760214
C          106.45215829672422      109.25486454930342       96.72702388934077
C          106.62150498135294      108.32316734801726       97.92312098661772
C          105.32336519103197      108.05448567366541       98.67794115030208
C          105.59598410458712      107.21230991201212       99.92116518000684
C          104.35000121646348      106.84688585220815      100.72413838194028
C          103.34411250478352      105.99104993796452       99.95411175358872
C          102.35290271003370      105.30406470186664      100.89212955138547
C          101.19801166519132      104.65868267031938      100.13868381766513
H          102.87997605312279      104.54226788884878      101.47154928548177
H          101.95453782299705      106.03703510611261      101.59627469038729
H          102.79403549751189      106.61551785189299       99.24790673115174
H          103.87592996905980      105.22954943854030       99.37795279906800
H          104.67888461454108      106.29372214951093      101.60715986005222
H          103.85538884417140      107.75748066956012      101.06890088051418
H          106.10417742066498      106.29355579951209       99.62270186510439
H          106.27727836929174      107.76528128187965      100.57350048175390
H          104.86218799497583      109.00020946699691       98.96986621116982
H          104.62592099135453      107.53354058028538       98.01953068774708
H          107.03195299700653      107.37175001979055       97.57825470060725
H          107.34438570885222      108.76597708148918       98.61255188752818
H          106.09134823611973      110.22491211793501       97.07548840122696
H          105.70158841888617      108.85314830265590       96.04341655895821
H          108.02343434938155      108.51395837651518       95.46053309571337
H          108.55999364284671      109.60469731648477       96.73675952993079
H          107.60473959652839      111.53068621803948       95.55019481405552
H          106.93066566299065      110.46991396326237       94.31596133524806
H          108.93195303980632      111.45571295642245       93.41939593562840
H          109.24534959442251      109.74470258303049       93.69517306073161
H          110.38866954675123      110.32684311341589       95.84091416080499
H          110.12743034128059      112.03827279416922       95.50208138500014
H          111.45121054353335      111.81278145267613       93.40942789442131
H          111.69971296125412      110.10453397804744       93.75130497562319
H          112.70571405385959      112.42843334108176       95.45414657004203
H          113.66820679602064      111.44703778659589       94.35288273982239
H          112.96867943037402      109.41156112783990       95.75001133470492
H          112.35096280057984      110.55161900974350       96.94262453878623
H          114.62504531495470      111.57922958058833       97.11197451569987
H          115.23245365398795      110.38150661032456       95.97166646655447
H          114.49131000603766      108.55889810153460       97.52549760889087
H          113.94825109783895      109.78183010158544       98.67258808519453
H          116.32032170118184      110.65072978323130       98.78075836083639
H          116.81796300879323      109.31483599831715       97.75085807102762
H          115.93709425367786      107.69998024452059       99.44235776435825
H          115.44814499552339      109.05031372546181      100.46340935399975
H          117.84916390594448      109.78099725788084      100.59271279449239
H          118.30658428248444      108.36517779334868       99.64992155101312
H          117.27726733098079      106.89771011119269      101.40613573909022
H          116.90125562943501      108.33213823217797      102.35747957442429
H          119.32997139315965      108.86626207286210      102.49726855291092
H          119.70031543196278      107.42009687185758      101.56233641346437
H          118.53568772669578      106.03701455254644      103.30231078128021
H          118.29712271257634      107.49185383140478      104.26766400626890
H          121.02471957264942      106.41211487413665      103.43083922023438
H          120.24504514130632      106.04223800537019      104.96469535568025
H          120.18628917295104      108.51342325783686      105.47200329495050
H          121.14088132757482      108.78991947136872      104.01286177543136
H          122.86681595167980      107.18643179024592      104.92321824180365
H          121.95950681188744      107.13379880582031      106.43549966343352
H          123.06135232462915      109.69271966292263      105.20079480486650
H          123.94237238320385      108.71736005269068      106.37822298698991
H          122.19575849131041      109.09789871453553      108.06275150850769
H          121.24240774554906      110.01800884522726      106.89272193153158
H          123.13446142736839      111.64114436781445      106.66507051432899
H          124.02594638513359      110.74861655544706      107.89409486278913
H          122.19827715130901      111.21415792808266      109.53610642173507
H          121.34564651402596      112.14314743005878      108.29946481954227
H          123.39426705378219      113.62099080827780      108.10673560461476
H          124.06782092522702      112.78427639102820      109.50746669700952
H          122.01754872389078      113.43147262839838      110.81808422908267
H          121.46130095494618      114.35940147589812      109.42601887171098
H          124.02166810499655      114.86551368468790      111.00746417891979
H          122.52485599784090      115.79251497195662      111.11399915542809
H          122.79255744593104      116.32889464773005      108.63227249933044
H          124.39894495272166      115.60647427965294      108.72671067788943
H          124.97620135919175      117.22921836197995      110.56106434404614
H          123.38754192537657      117.95708783084642      110.37514815198699
H          124.93286682724374      119.33979394005965      109.20105902922482
H          123.91787321841782      118.52846906295912      108.01158564693881
H          126.20105168148747      118.59041891352996      107.22987348900064
H          125.75662348350464      116.91765014277388      107.54978358786194
H          127.03409134939466      116.91926826165242      109.63459575378532
H          127.25366495906474      118.66273452880095      109.54811939286068
H          129.30864677163405      117.53485221314924      108.92577826000674
H          128.66076116153994      118.44151539677196      107.55983687121268
H          129.50150364037975      116.33856582092790      106.75952744462903
H          127.75094805493792      116.33174710405346      106.59619068883831
H          127.59390338386834      114.98133009952451      108.71328838224373
H          129.35458467627754      114.96161926105475      108.80200780170067
H          129.42519582970078      113.80882909706746      106.57851074661309
H          127.66491765768332      113.87086435718162      106.51426590566540
H          127.59891625433052      112.52027715331066      108.65052836816756
H          129.35321506437475      112.37429241541280      108.56337927045786
H          128.38978761799785      110.35549756615512      107.67295097419061
H          129.09729159248090      111.24483681176356      106.32300392442151
H          126.88424210054225      112.04399735255490      105.63548602431696
H          126.16123240630533      111.40591419847135      107.10847730348893
H          125.56101301828322      109.93975667355942      105.37893361879087
H          126.78452251411333      109.07852533996170      106.31513648809718
H          128.49090097097081      109.67933242420567      104.60387672786065
H          127.27344592438538      110.56223178198741      103.69338350002209
H          127.29989111718324      107.57045500297426      104.29056369071299
H          127.71562430446085      108.32253771610556      102.75210903469856
H          124.95538194216586      108.31615088606382      104.05123055698650
H          125.48911848001661      107.29602965046561      102.72446766624499
H          125.82318649940792      109.28414003995640      101.29420888274907
H          125.30466134856704      110.33864362519799      102.60920864231883
H          123.06888452510739      109.32807394310107      102.60883086640715
H          123.55995809999848      108.16258481373721      101.38490571926100
H          124.00796144530342      109.99660929759716       99.78630793726984
H          123.55196162901225      111.18859624080184      101.00041275396896
H          121.23481710552154      110.36167831612485      101.00137277822053
H          121.67153503910492      109.04745752600398       99.91259333612373
H          122.34268035838014      110.69028471103206       98.17847116597110
H          121.91669479784382      112.01576134376160       99.25705365645663
H          119.54618577274047      111.29725030220435       99.22191727747781
H          119.96298976579271      109.92689608779578       98.19603041905893
H          120.77421626003766      111.47734814636908       96.43328181718948
H          120.38885605839161      112.85589099964120       97.45637254656920
H          117.97243769353582      112.12083396570124       97.44954844432201
H          118.39900492631430      110.85071543605295       96.31202267693006
H          119.19720670468766      112.59025724256436       94.69421540430295
H          118.76450745960059      113.84673805121341       95.85113135850662
H          116.39133190044979      113.05870835003208       95.79183613363833
H          116.83312862801894      111.85178473358904       94.58922080776641
H          117.49971527407499      113.64942872340349       93.01243795522957
H          117.10671139974907      114.86796494141738       94.22627802878610
H          114.75355082673973      114.05115002170652       94.26935581716411
H          115.14641130914306      112.85751927189355       93.03683386023025
H          115.67000003386873      114.61556868909359       91.41859818908806
H          115.38263695094946      115.87016796205647       92.62323175479752
H          113.24542789918227      113.83907975466134       91.90438540887259
H          113.45875463683230      115.29775882018261       90.94419262780399
H          112.83446860210275      116.72675588557476       92.73707033561307
H          113.10980354133793      115.48449163415637       93.94873431159891
H          111.17772620117846      114.20243684165506       93.16415748650019
H          110.89224004019746      115.36122052508803       91.86504818397449
H          110.41665973073709      117.13438708699752       93.49628999361714
H          110.85271994156005      116.07126190977728       94.83164698441543
H          108.96166876291272      114.58003093994039       94.30779781862601
H          108.53005596524193      115.57776859982195       92.91660075735962
H          108.12709953028013      117.51072250309349       94.39661933385980
H          108.59585073520378      116.55889957812296       95.80332621921900
H          106.21443792830242      115.92208172189760       94.00510678905700
H          106.12904031144173      116.83358346912280       95.51030890387742
H          107.22706277953793      114.79525885337821       96.64129253836967
H          106.83725540040618      113.89717397766672       95.17321052188220
H          104.42899789060897      114.51001223562726       95.47290082786239
H          104.85259765871719      115.36890669846058       96.95615447329530
H          105.74210151592312      113.21082623236478       97.89070973768402
H          105.18518821085848      112.38447014863409       96.43393438486086
H          102.84667822526279      113.11431833912617       96.94281496119389
H          103.42563571400603      113.90127019119173       98.41138721051155
H          104.28194747721646      111.68096391511706       99.21727080997189
H          103.58230585637314      110.92145040731235       97.78521311838750
H          101.31949146469951      111.70034703510213       98.49494905726631
H          102.03208702264956      112.43998403978304       99.92950864295253
H          102.90493952307332      110.18418276595085      100.61135821867940
H          102.08348731183077      109.47286361030376       99.22460149051366
H           99.88836020180932      110.24868009470401      100.15876922604683
H          100.73706828682396      110.91416323061728      101.55339766216832
H          101.66710882780886      108.63110544188595      102.03758409250359
H          100.73221306781866      107.99641724270568      100.68471675000117
H           99.54293148070444      107.44697309225884      102.64606110287400
H           98.62547696616213      108.73284264441409      101.87329023326588
H           99.38255588424482      110.35686720216708      103.51038890344236
H          100.61970875664178      109.25320130023869      104.11400835278529
H           98.87114296972027      107.70351439619677      104.91624730711249
H           97.61468939027702      108.79337558422702      104.33704560567512
H           98.32218782676573      110.52640918638302      105.92805829628280
H           99.71608134586923      109.56060341882464      106.41009723984430
H           98.20889412166520      107.79081431772066      107.27010219539808
H           96.80249439311052      108.73365455708031      106.77332767255287
H           97.54067268480934      110.57421784190802      108.30929950173355
H           98.85202612739667      109.54902665650872      108.88218875722178
H           95.90358189335882      108.80533937322406      109.04498915051023
H           96.78280142679513      109.60887295728358      110.34319240251594
H           98.27181052632193      107.67457125815011      110.59262652420962
H           97.49828738652616      106.86531261088250      109.22715774516614
H           95.35594792534296      106.81143574782483      110.41511217645699
H           96.03923527060549      107.73409843598975      111.75330216995674
H           95.85375582721574      105.39657275095261      112.35337627315778
H           97.55318697665894      105.86447563697112      112.30354376339898
H           97.89102168153816      104.71658333407335      110.19885021443686
H           96.16002445053007      104.47484459234848      109.98097486587234
H           96.05481236429166      102.91419237243831      111.82183643002260
H           97.69442760757805      103.31054567658528      112.33565489156766
H           98.67619572174506      102.23064876549769      110.43829850415432
H           97.14061680346701      102.16443968636972      109.57782463188059
H           97.76350113688996       99.95276963929300      110.39598573546454
H           96.26134750446198      100.49918140861021      111.13452714147124
H           97.45487283465589      101.09617526671465      113.20079599584271
H           98.99312165567838      100.63814178752413      112.46499794204834
H           98.24552075907889       98.29685845620854      112.29193863145370
H           96.62626392834306       98.75328871241682      112.81563279450170
H           97.65347538749576       97.77296720154725      114.71514862995271
H           97.61057758768217       99.50682335610296      115.01390174922916
H          100.02576916088083       99.63134072287819      114.26592655714131
H          100.02903076506807       97.87354788758266      114.13555063011813
H           99.45622094805071       97.69510428117356      116.54925885266383
H           99.37588314375223       99.45282372539647      116.65872481786602
H          101.78116120784375       99.60531407240418      116.05115917204776
H          101.87474327286836       97.84655360097547      115.97917108864624
H          101.32948947850332       97.67304061188318      118.36218862588130
H          101.03161219575640       99.40560589477661      118.46132628420767
H          103.39140294793282       99.88753570307915      117.97262189084823
H          103.72686461738684       98.16956636838876      117.77003415189172
H          103.07909956113706       97.73733914802098      120.11035559770588
H          102.70552034474733       99.43866012785037      120.34918302160983
H          105.45797538229083       98.50911536989349      119.46472670333793
H          105.00919880662461       98.52556376241152      121.16946228038110
H          104.82134944029580      101.01176324184514      119.43132500798841
H          106.28663695551370      100.56210012021890      120.29561188684831
H          105.01793522683192      100.56514326528347      122.44629248535874
H          103.57422088566115      101.07894073150136      121.58450318189298
H          104.85770663444238      103.11993534135843      120.79072585987028
H          106.17856859225652      102.63512958397149      121.84922454947434
H          104.64916956255146      102.76780327393807      123.81299944009723
H          103.32114029476045      103.20163705564623      122.73843931810909
H          104.67878710272926      105.22514980416248      122.01220690640724
H          105.85692240956209      104.80934864563272      123.25130895697698
H          104.48102786311262      106.47419523534758      124.23017372499694
H          103.94925972724732      104.95903830523449      124.95929597381337
H          102.03703230727216      104.88312647410601      123.35112918444356
H          102.59890713919383      106.39555635011986      122.63044932290576
H          102.38291062074561      107.42996563650316      124.96653150883192
H          101.51530903346219      105.97093267561613      125.43918396516069
H          100.72958803713995      107.88186106127355      123.19154626911126
H          100.00959855951821      107.83760978872735      124.79982480411633
H           99.23525614460222      105.48854516459261      124.34963868393397
H           99.87456976086818      105.62814430595694      122.70883451806147
H           98.38951067346082      107.57827812378443      122.29426908339966
H           97.75307222562948      107.43951224100771      123.93138269174972
H           96.18066439979064      106.46665757444342      122.38547506916197
H           96.85168263910758      105.18423587071878      123.39340532565457
H           98.21551769487151      104.35712809819776      121.59490592802734
H           98.01188435045690      105.84164697336603      120.66703297040223
H           96.70727600754294      104.13026596984248      119.62599285399391
H           95.59607182922744      105.29139332921143      120.34559156849828
H           95.17761113085602      103.77228500924845      122.23750756753563
H           96.40711380462730      102.65468242134770      121.64710275372438
H           95.07858148246702      102.29834915494136      119.56959408364773
H           93.84635050305796      103.40616630840699      120.16725232665480
H           93.41716829395641      101.90800094307330      122.09593635957411
H           94.68595972277588      100.81575055179890      121.54338170176443
H           92.44621023919917       99.98743873184134      120.85884137870524
H           92.14466456021454      101.48920900627589      119.98354390922017
H           93.41345768954068      100.39120038465846      119.44058464675155
H          100.52712293080249      104.15043031166553      100.82782550833606
H          100.62929343087812      105.41497399259001       99.60230120068798
H          101.56911076945281      103.93252968995080       99.41892462681083
C          101.33248696946082      112.62208297496537      104.91253315441838
C          102.58974249112691      111.87679670162490      104.48489663736702
C          103.10379369486179      112.31403331420955      103.11296162855378
C          103.81124149613765      113.66575632705751      103.13305513215387
C          104.28417344377074      114.08454158103768      101.74207963713748
C          105.22994236323993      115.28121712150998      101.80155013804668
C          105.69948416773043      115.72363104878724      100.41767577843321
C          106.80085356037465      116.78486409599279      100.46427262339321
C          108.12936181006719      116.24769865727104      100.99620499661870
C          109.27402618860393      117.24405198222384      100.82707861687179
C          110.60524127425566      116.64601514193292      101.27644691424425
C          111.78894342661094      117.57153457983809      101.00740486427546
C          113.12028613280992      116.91419884467410      101.36276118029321
C          114.31951603108024      117.78887570546183      101.00195876434465
C          115.63656779922412      117.07777382016991      101.30847756376741
C          116.89230064405983      117.90037864617474      100.99315679221222
C          117.49550244950855      118.62930923225812      102.19387540771018
C          116.61117818957020      119.74190378799541      102.74560769882763
C          117.30058768817754      120.50780428369148      103.87086306514888
C          116.50827448268817      121.72898468051768      104.33393962135274
C          115.22276096500839      121.38539298458241      105.08389157378178