3795
 energy: -5103.660717129726 gnorm: 0.000876619150 xtb: 6.6.1 (8d0f1dd)
C          116.68132474987158      124.31827533660021      111.53130709470568
C          116.49763112601705      122.82569896045381      111.67107839125357
C          115.90466221050902      125.06235067564856      112.62261559598576
C          116.58266347990862      124.96247250860984      113.98576924881340
H          115.79929084421346      126.11353859451189      112.35112962752227
H          114.90023735988029      124.63678423889208      112.68509011361593
C          115.75282546272402      125.68581103540397      115.04697053682287
H          116.69642192041290      123.91255284820555      114.26606940483688
H          117.57967444921718      125.40493226987566      113.94067957842144
C          116.32776395918145      125.46807126223545      116.43290627882813
H          115.74045054558653      126.75145607918199      114.81692127670922
H          114.73469732748634      125.30087652528758      115.02532640006541
N          115.72435522669576      124.49073046582006      117.11324698620874
O          117.58262244260501      122.19672874544425      112.08263936266722
O          115.45755964865330      122.25481796941928      111.42779121567065
H          117.47699924995554      121.20911936012160      112.04540972410129
H          116.28631125782523      124.60157182235261      110.55487994010238
H          117.74111953052740      124.56514716969586      111.57741891588384
C          116.11697204947872      124.07578782915753      118.44330438763106
H          114.92003680489397      124.02203955493776      116.70751792088477
C          115.35662302128858      122.82200319096894      118.85055956228040
H          117.19392326217303      123.88426044610235      118.44630059225517
H          115.92901395406270      124.89225268099568      119.14926408973793
C          115.80901413694063      122.26862600352143      120.20142821925084
H          114.28891110812560      123.04628375130218      118.87523352691139
H          115.51673954648997      122.06540829789154      118.08184974318675
C          115.32951314937387      120.82703009318818      120.42797062236760
H          116.89735545350315      122.31251174623338      120.25543085955695
H          115.43146010925591      122.91234857891234      120.99443848035109
C          114.78605535624753      120.58976362522499      121.83704497066121
H          114.55230683671968      120.57415393024201      119.70491253801184
H          116.15977259233492      120.14388277224542      120.25161724219338
C          113.42170487149801      121.23567181219985      122.02671703742659
H          114.68798774291244      119.51811235270156      122.00914473264106
H          115.48567270149482      120.98823425080077      122.57106730767420
N          112.99608781614415      121.18802110522144      123.41272011871544
H          113.44582935788117      122.28509026064522      121.71520442036346
H          112.67969625415230      120.72150041300686      121.40422414807124
C          111.91068283080776      121.84412674451161      123.83289927697513
H          113.55239716679301      120.63113460948985      124.05653399715142
O          117.26917920435909      126.12217493101818      116.87952944791580
C          111.59057681010613      121.66667358716788      125.30497657142426
C          110.54119878719446      122.65834605993011      125.80367938265132
H          111.21519131232506      120.64832870555810      125.43301631845736
H          112.51033585394165      121.75845528213110      125.88443567494804
C          111.07797566269234      124.08338642562087      125.91432384169428
H          109.68722409168180      122.65232598038236      125.12418227175287
H          110.20092018586463      122.33456277846020      126.78673818626535
C          110.04129506619560      125.04022444869081      126.51907819802874
H          111.96613756305931      124.08517037220126      126.55161811176914
H          111.36934766466015      124.44568438286679      124.92713844910658
C          108.90031464735246      125.33430643606401      125.55883233924853
H          109.62572723235851      124.60000066770456      127.42656442623232
H          110.52823493414979      125.98100631369641      126.77756763692072
N          109.16535017983182      126.33006897901610      124.70700468562028
C          108.23939647978658      126.84723160773717      123.72340201523996
H          110.06409160514879      126.79853243471533      124.75385580635975
O          111.21865040252152      122.52051635566663      123.07581938153929
C          108.18675586892033      128.37546814244618      123.77214084865832
H          108.54389781257375      126.51539040281587      122.72494277154978
H          107.25788874118155      126.42392862950966      123.94850133426051
C          107.35293680610111      128.97497850681836      122.62843489710382
H          107.76563691569943      128.67098048633000      124.73421901157850
H          109.20672820973694      128.75879031543511      123.73184275999733
C          108.18364576648746      129.60765351604539      121.50729376182942
H          106.71574553154012      128.19760389777491      122.20473899468033
H          106.69797923561489      129.74899757530304      123.02964168700082
C          109.09374148315469      128.60710745694738      120.80136703262065
H          107.50011975579200      130.04440725464750      120.77622547354819
H          108.78726170468589      130.41955658435054      121.91688446000471
C          109.77072643083538      129.19182895402577      119.56316679756914
N          110.62805077771336      128.18726190723913      118.96472118704715
H          109.01488546675338      129.51321486018063      118.83756491922158
H          110.38586645068233      130.06158700533800      119.81132489195889
C          111.80748277289489      128.42629402497511      118.39755400983802
H          110.32329012239467      127.22010256433357      119.08119478464120
O          107.83630578570052      124.71827366143815      125.56935039089903
C          112.54960084892080      127.18156489314816      117.94228321709834
C          112.16887302477042      126.76484464724516      116.51756781935639
H          113.62384744369812      127.37412590393832      117.98156454522487
H          112.30983972440717      126.36042956874320      118.61830739563963
C          112.70142249002821      127.72027834739833      115.45205040231372
H          112.57825907979323      125.76806800860710      116.33515040432167
H          111.08132528174109      126.69911497105699      116.43655544677364
C          112.44574570671280      127.15950566178981      114.05256139705152
H          112.21759997323153      128.69475719915815      115.54870322095141
H          113.77529190168201      127.85924755883011      115.59215316721665
C          113.03707563788551      128.03511505509934      112.96126139279568
H          112.90969865646406      126.17429137450466      113.97603828452149
H          111.37230375792743      127.06438369505199      113.90056336093136
N          112.13921645710842      128.78254341270380      112.31122994021617
C          112.49565981864033      129.60659179675321      111.17325768637191
H          111.19856292735450      128.84801837139949      112.68176765066953
H          109.86375239638389      128.26324102309397      121.49123905655448
H          108.50944500384509      127.74053370279032      120.48926675181124
O          112.27753389328292      129.56112276083283      118.27210579922871
O          114.23159129149433      128.03063723359600      112.67485668435506
C          111.30632508140499      130.40087739818003      110.64362382535397
H          113.29575093275378      130.29639089907388      111.46871268609232
H          112.90625958590705      128.95375906097945      110.39404298753887
C          110.08301801892189      129.55821135235010      110.27291391783517
H          110.99909805863258      131.11641439637819      111.40912770625989
H          111.64113948052456      130.96536107972130      109.77309390270821
C          110.31340632346826      128.48411664761062      109.20897400393919
H          109.69952856800873      129.08073574776509      111.17575385218476
H          109.30462248784126      130.23790721514791      109.91879678974422
C          110.61844408112603      129.05117066442276      107.82378041832524
H          111.11821348268626      127.81551246755673      109.51757958191423
H          109.40085156924575      127.89017639117995      109.13533126728815
C          110.54660832611786      127.98262917130160      106.73305620308714
H          109.89038261108789      129.82741688947365      107.58410428193990
H          111.61314073715840      129.49928208329391      107.80995991536405
N          111.64466400200435      127.04691660379807      106.82663955199330
H          109.61976864065960      127.40873589890512      106.80666076174515
H          110.56876770250342      128.46386112147474      105.74756053781370
C          111.53353673661135      125.72101210521902      106.74138712167738
H          112.56904286767417      127.43848971005373      106.96721975823708
C          112.87313427444764      125.00652817761552      106.76361348017252
C          113.45935453705502      124.94768762857767      105.34628438157303
H          113.55515949165591      125.55986587411735      107.40794691062762
H          112.74232088790799      123.99790964201577      107.15462138322859
C          114.95569472090972      124.64262745780309      105.36871872980203
H          112.94189237699788      124.17970610034909      104.76772004388293
H          113.29626620723604      125.90518172507724      104.84682590654137
C          115.51731613697784      124.35989917823332      103.97095516136332
H          115.48662795543055      125.48618705168559      105.81082373699445
H          115.14018937676802      123.76531541651029      105.99026311791238
C          115.44935464324941      125.58773796296985      103.09060277220030
H          116.55718651455916      124.04593928047795      104.05448404994368
H          114.94903789015638      123.55141571656189      103.51115762117291
N          116.44665203223674      126.44241867532207      103.25599998749338
C          116.62494447994547      127.67511245463557      102.51973945675772
H          117.21622893335852      126.19458803239267      103.87797266950645
O          110.46082143164747      125.12962595481886      106.62501954622600
C          117.23273939828185      128.74115664504737      103.42524966178540
H          117.29532223633407      127.49008091013060      101.67101832038226
H          115.65770268480011      127.99203457135606      102.12195976508158
C          116.23664577923090      129.32168819499870      104.42796554216326
H          118.06516351695427      128.28439790471637      103.96273805939647
H          117.62896620053034      129.54555200069760      102.80398127866465
C          116.94960963535299      130.23594267853966      105.42633670687430
H          115.47439397613770      129.88766279499384      103.88793239101012
H          115.73813919429220      128.50637510695381      104.95583874780591
C          116.01262551831668      131.18791233954948      106.17088086287194
H          117.50176837506062      129.62165219048654      106.14015301019802
H          117.67806573713422      130.84115394459093      104.88266687946918
C          114.95924670754465      130.48535748704603      107.02546611936984
H          116.61026537180570      131.84025591021839      106.81099890998185
H          115.49183087241894      131.81712134913411      105.44799432100385
N          115.55633560340036      129.65285393607132      108.04680578829657
H          114.31925180403773      131.23742821981008      107.50050770478228
H          114.33395458958540      129.83565828411730      106.41125987055548
O          114.51541242903261      125.77369113280778      102.29362727285042
C          115.22926978212963      128.37034390228604      108.24520317176690
H          116.27354889633183      130.07083845352281      108.61824111277120
C          116.00800270202218      127.67336304051065      109.34206533223045
C          117.44792598554760      127.36483936582536      108.91306152457277
H          116.00331788946035      128.29040413783252      110.24154056325168
H          115.49123398038100      126.74099275457635      109.57506773599033
C          117.48022592920590      126.49007261909777      107.66112734707006
H          117.99533098107564      128.29012115173597      108.72338030083344
H          117.95206689524653      126.84752259507766      109.73139712134888
C          118.88104760297281      125.96474560386091      107.34378250598007
H          116.81131097806896      125.63732285267945      107.80398189852122
H          117.11076810439104      127.06173156491019      106.80592935580151
C          118.88238764478439      125.23821239141552      106.01087007303738
H          119.58834343984682      126.79522007936339      107.27734152363143
H          119.21425584892984      125.29150974010315      108.13166938968142
N          119.10391312211475      123.93039262619703      106.08598971327189
O          114.36107652516868      127.80324606253879      107.58961251248989
C          119.25469267607880      123.04601297367842      104.94966203528737
H          119.23219652041391      123.51175666812075      107.00821919903083
C          120.12740675142349      121.84808259844439      105.31481360732288
H          118.27616643859771      122.67695155526177      104.61526433488727
H          119.68428961570534      123.61553114182408      104.12090165366888
C          121.56143946288344      122.20779006571527      105.70347071118977
H          119.66119987485366      121.33736887959947      106.15979147906062
H          120.12976413926295      121.16047557093225      104.46794950924908
C          122.40332730567532      122.67930330970074      104.52052295775259
H          121.53741741465581      122.98959994568608      106.46525081644317
H          122.02053366510775      121.32291338876530      106.14568986947172
C          123.83175276739038      123.04966447224344      104.91829583238693
H          122.42824886359172      121.90228518192994      103.75406769815631
H          121.93749476803458      123.56033386554174      104.07573257366688
C          124.70396571414584      121.83901685305995      105.26095860881236
H          124.29733256566874      123.58353561255615      104.08900122187394
H          123.80214584925160      123.72023426903534      105.77808880610563
N          126.03901079508628      122.24235901531399      105.64140036612800
H          124.26674386465754      121.27742105395926      106.09056988555773
H          124.78831350092611      121.18382806613279      104.39090648456678
C          127.11813391741697      122.11472200647843      104.87307365859229
H          126.12923032095235      122.79734021669825      106.48959975149567
O          118.67930610657226      125.83144277697360      104.94575946676530
C          128.38910406974517      122.63359811078698      105.51300508722788
C          128.85492199101319      121.69490543489799      106.62824913562461
H          129.16571334789336      122.72586700166002      104.75447371460228
H          128.18491539002375      123.61095263023032      105.94956465209785
C          129.97313884004333      122.31575095259851      107.46002400051108
H          128.00575115399869      121.48522316362495      107.28077323438613
H          129.20769694099889      120.75562334546086      106.19451327813840
C          130.44635861398143      121.34939662024601      108.55014942922716
H          130.81547585306194      122.57529438344849      106.81686455761007
H          129.60843312032168      123.23512185475722      107.92070471583891
C          131.55636854659826      121.97452282639055      109.36676349952918
H          129.61624055546201      121.13323615121340      109.22522171376571
H          130.80531161190061      120.42482009444012      108.09869836857249
N          132.78740286641718      121.57951807965682      109.04473522542727
C          133.95675289197629      122.01709061398394      109.78326873437635
H          132.90422277442153      120.83946535075613      108.36421413765513
O          127.10175737008821      121.60001580073968      103.75052141628849
C          135.23376128489352      121.36111297003730      109.27025370502663
H          134.04244556061514      123.10576833714386      109.69110229086297
H          133.80346685120711      121.78992337197074      110.84453230112190
C          135.20907774254366      119.83123116704459      109.28693331986881
H          135.41072647546372      121.70033450295874      108.24787788704720
H          136.06019358321714      121.71888476385909      109.88613037298707
C          135.08046954945499      119.22234553505410      110.68275345881257
H          134.39324598770418      119.47240837321409      108.65974148837068
H          136.13909850732688      119.47397416628610      108.83846275831557
C          134.88940370513455      117.70569909381763      110.61145388963939
H          135.98354737499528      119.44734132741742      111.25321540189664
H          134.23565537016341      119.65768770424960      111.21755841954804
C          133.45687745674979      117.30860246574825      110.26121740684704
H          135.56392879544734      117.28926230022289      109.86140315357514
H          135.13600519851775      117.25695143030090      111.57209806960090
N          132.59675821118648      117.36860472963046      111.42477064210669
H          133.06992836522028      117.96541146033981      109.47469813393214
H          133.42514967264682      116.27770147389293      109.89687548593230
C          131.66791438810165      116.44931333382122      111.70644753497788
H          132.69502306904400      118.16509973096184      112.04275439745656
O          131.32843344121147      122.80635014679059      110.24654802094713
C          130.93346991692195      116.69007615793130      113.00949054322031
C          130.41003664059448      115.41337101801518      113.66541001957739
H          131.58502317296231      117.23268075011002      113.69093551912430
H          130.08475263233436      117.34840533523909      112.80766020701300
C          131.47898729966246      114.34754495978844      113.89536630567949
H          129.94108121660204      115.69337917417654      114.61034575940361
H          129.64000120263037      114.97676674020981      113.02596104935564
C          132.61002677838508      114.75264840583374      114.83640028563704
H          130.99725640751117      113.45892427376506      114.30583730092656
H          131.91225436412367      114.06543805668707      112.93433878927895
C          133.62895277357404      113.63014047610781      114.95942512886181
H          133.13658323675995      115.62569960757421      114.44300483662195
H          132.22892567245941      115.01363765757583      115.82511265542881
N          134.46156164818677      113.73941882788188      115.99760348739804
O          131.43196072515653      115.49601929678175      110.96576309221030
C          135.53975431673680      112.80361213019680      116.25066222882245
H          134.37858020621576      114.54267960166331      116.61834834190218
C          135.76905057270298      112.54602591215256      117.73840420971879
H          135.29631683710076      111.87617078554014      115.72497396295775
H          136.46746512128078      113.20262066682129      115.81921381986405
C          134.81622578043553      111.51765101797956      118.34954739893038
H          136.78696595245913      112.17207384122923      117.85818395080611
H          135.70175437281424      113.49328473788249      118.27398733098072
C          133.34207507869391      111.91504669384449      118.30186704276662
H          134.93807294590582      110.57143705841656      117.81792838378902
H          135.10667682043700      111.35211189349640      119.38904596047098
C          133.04286599163080      113.16856669206277      119.11727757968863
H          133.04355999988451      112.08003875445225      117.26660751937416
H          132.74312866690036      111.08825068453990      118.69085041913345
C          131.56563686878033      113.53694988000665      119.05792807797945
H          133.33408453195645      113.00405193694877      120.15639083731466
H          133.61171711638150      114.01211171176220      118.72601293929415
N          131.38002276097544      114.81661841589107      119.70804866890666
H          131.24560829219331      113.59958822160624      118.01262248682025
H          130.95751513713634      112.77499848033237      119.55862166712029
C          130.27777047473018      115.56334196488756      119.78077209516145
H          132.21285583871554      115.22061518675915      120.11578205231642
O          133.68618485950390      112.70437704074128      114.15051398466591
C          129.02671382791371      115.06416031913933      119.10581074850192
C          128.90015969264542      115.76843546943226      117.75000467402046
H          129.03303479884136      113.98323807643301      118.98790128454601
H          128.17910200256270      115.33665553212887      119.73503162457013
C          127.64039007653263      115.38077453593593      116.97867892360743
H          128.89817624951354      116.84873903042883      117.91391941504975
H          129.77390117517820      115.53891435997875      117.13545220871700
C          126.37684215915675      115.63606829989338      117.79761896800348
H          127.61404968771502      115.98598361347429      116.07064993978575
H          127.69495264319742      114.33336895343460      116.68380832286617
C          125.08913481080549      115.64502846273180      116.99101062115855
H          126.27572402267131      114.87418926487680      118.57349183395372
H          126.44894986151706      116.61169263789172      118.28383645845278
N          124.89425589477364      114.59280639303357      116.19633101091328
C          123.76191268092789      114.47213530268286      115.30516361928836
H          125.62951326443023      113.90114446474506      116.06954088216486
O          130.30689464149737      116.65120748958395      120.35895913922887
C          124.20051006170986      114.17186658699944      113.87417756669193
H          123.10313449570812      113.66816951580753      115.65382511715676
H          123.20165128980771      115.40700325943924      115.35129090096325
C          125.18507691880571      115.19702968367156      113.31418471325297
H          124.67187636337454      113.18748260516602      113.85346418287597
H          123.30163283737241      114.14841013927762      113.25744409749440
C          124.61021304208994      116.61139258130441      113.31563788525223
H          126.10462595591103      115.16209184006968      113.90103564027704
H          125.42889507024944      114.91033035517064      112.29032376792726
C          125.41884429670992      117.60369295703592      112.48310067600784
H          123.59540199295957      116.57261574991135      112.91435924493450
H          124.55118262528710      116.98463278695867      114.33844118621033
C          126.78969987365451      117.92313481171769      113.06623529610650
H          125.54193987316684      117.22529981320119      111.46854717001828
H          124.86028518341521      118.54033869965726      112.42801438910533
N          126.64251791756499      118.72355546511156      114.26167613889147
H          127.34383372622723      117.01776903168398      113.32784129406407
H          127.38503588368818      118.47917440084572      112.32967559535577
C          127.54293388672937      118.74989893273563      115.24733233293360
H          125.79918307552808      119.28984952122595      114.32027408094648
O          124.27048576507813      116.55346466843879      117.12515902770436
C          127.14989447471068      119.63480656735800      116.42123082130485
C          128.37747745218255      120.24217117156390      117.09265235991715
H          126.48297237470912      120.42069270685847      116.06699418179453
H          126.58648989852377      119.01936213423531      117.12825319601980
C          128.01820548561227      121.28591867533845      118.14488291625884
H          128.97157454544740      119.44597540077119      117.54586408201747
H          128.99742922581055      120.70408748401891      116.32187709522982
C          129.26007975445256      122.04174465139846      118.63258493632080
H          127.30767846822660      122.00523363918288      117.73245353861699
H          127.53592262078222      120.80413501442419      118.99566325625104
C          129.78065736109153      122.93031325911578      117.52128189777940
H          128.99346693103837      122.65764297395792      119.49054651478001
H          130.03825293403560      121.33341009551964      118.91915757091000
N          129.09987997429781      124.06667859287262      117.37233537071643
O          128.59323719152894      118.11624272894613      115.21206551386302
C          129.36686896400712      125.03140853462392      116.32983527559712
H          128.32877132952819      124.25562341623473      118.00673489999686
C          129.71285324536808      126.40740938807214      116.90127139542477
H          130.19870759622279      124.63657871735647      115.74318649009074
H          128.48338930526677      125.11398444811840      115.68793781250078
C          129.63459304061939      127.51578626839020      115.85107150869719
H          129.00433135465101      126.62982165299081      117.70146245735707
H          130.71194999790873      126.37963945692127      117.33821435042898
C          130.65762766524028      127.36258148493192      114.72687840081515
H          128.63290917545780      127.52230125805961      115.41517174256981
H          129.78842700459495      128.47467447556048      116.34707595940421
C          130.47794006942891      128.39852092533539      113.61776783572519
H          131.66664014874868      127.44298488307233      115.13630372753330
H          130.55755144505162      126.37293214193683      114.27842456132561
C          130.79417064736134      129.83551970723161      114.04945866478893
H          131.13848816974945      128.14462567711732      112.78377842215016
H          129.44979994723846      128.35463980293585      113.24489880076671
N          130.81414478372332      130.79250290813312      112.95081840598112
H          130.05437451721838      130.18878989437732      114.77207951309101
H          131.77885073289258      129.86461443232196      114.52482351278108
H          131.49213411649373      130.48493657412911      112.25988074725866
H          129.90942281975219      130.78707373005537      112.49040654443010
O          130.72633999288686      122.60809143664441      116.80011997535114
C          130.42163739596725      110.61167379310068      123.63161728286667
C          129.34880533270348      110.91376847583662      122.60454252211080
C          129.81908824355060      109.85943524925834      124.81982832715231
C          128.73769657819346      110.69537692242191      125.49937891171295
H          129.38737174481878      108.92396030258952      124.45792369724180
H          130.60648070108667      109.62221491067945      125.53579781320802
C          128.10719690792513      109.95817731243066      126.68358550158911
H          129.17311531792387      111.63309584175937      125.84974503421070
H          127.96098029905664      110.92971406926718      124.76462523453257
C          126.94214025435755      110.75785346570683      127.22804960386074
H          127.74303584460098      108.98291448480570      126.35721997933516
H          128.85495768787939      109.81788254405896      127.46415162252829
N          127.29002703572287      111.83598637380405      127.93096333616020
O          129.29657903522985      112.19113415845518      122.29024542331324
O          128.61087281628525      110.07220802954690      122.13693150533869
H          128.56184172747822      112.39220425408207      121.62493033196797
H          130.86843182260964      111.55210001535683      123.95123869570382
H          131.18264906028446      109.99429885316795      123.15195308124800
C          126.35301202831543      112.83748890659390      128.39288410320401
H          128.26587644756751      112.11985417561698      127.93711568818719
C          126.37536773034734      114.08158969970499      127.50260875501493
H          125.35826097265247      112.39098908171582      128.38260464548071
H          126.61497008170859      113.10627615414624      129.41914247712577
C          125.93785250219103      113.75767304360080      126.07701460418319
H          125.70008737702955      114.82875003698931      127.92165213616425
H          127.38542142504929      114.49374663556236      127.48622207692085
C          125.98399044810988      114.99051310255632      125.18052081377839
H          126.58308155694833      112.97517140387808      125.67256515665424
H          124.91622369799146      113.37283700561252      126.10493191760155
C          125.44184999444280      114.74603557797664      123.77335005998920
H          125.37366682871651      115.76321661882578      125.64755609971554
H          127.00913911348491      115.35864804264354      125.11833529794482
C          126.33213063885187      113.86468682180312      122.90396993584517
H          124.45718998981749      114.28338407012345      123.83922063109407
H          125.31267089514188      115.70432684164327      123.27145703492174
N          125.60360353581709      113.43965187163624      121.72300846462322
H          127.23471132246942      114.40272440422017      122.59409962610935
H          126.65656641110198      112.97402037411716      123.45643935425072