3795
 energy: -5103.054953885732 gnorm: 0.000894040496 xtb: 6.6.1 (8d0f1dd)
C          116.72681451822940      124.34232147007265      111.52306752348778
C          116.56331503953918      122.84878846432659      111.66385828845186
C          115.93525356867582      125.07997871954396      112.60995189461360
C          116.62989498553738      125.02261478555970      113.96741188863557
H          115.79664009851517      126.12306242334387      112.32377257288677
H          114.94501318704769      124.62508213744547      112.68589118327766
C          115.79466204216773      125.75634540591150      115.01874336766615
H          116.76746250211319      123.98172733470527      114.26829854921951
H          117.61606547787876      125.48399396424749      113.89894735321882
C          116.35368311601560      125.54082833314112      116.41067455715930
H          115.79033088189183      126.81929659565384      114.78021188526448
H          114.77547792078106      125.37487399690465      114.98899074353626
N          115.74071783131555      124.55743129503227      117.07897998917936
O          117.65559862868248      122.23544297106291      112.08893862914701
O          115.53673124427748      122.26103362690550      111.41161691540101
H          117.55585487314171      121.25118246322265      112.06220914388447
H          116.33043583371455      124.61491955460302      110.54411626907689
H          117.78260876906492      124.60560537361975      111.57293315912106
C          116.12102910619505      124.13821094720456      118.41023845810098
H          114.92764177549449      124.10441790360989      116.67368017261239
C          115.36925370119991      122.87178481099070      118.79532610748981
H          117.19743974120544      123.95234399304896      118.42333123563805
H          115.91530579954261      124.94384924108591      119.12339739723021
C          115.81248493717467      122.30373389651589      120.14339766844004
H          114.29845733525906      123.08143368581442      118.81088039858862
H          115.54808407082777      122.12605940161890      118.02108094496039
C          115.37465464947091      120.84290969068240      120.32921449709839
H          116.89724312721656      122.37789964533653      120.22193295069006
H          115.39752456286520      122.91546656692795      120.94399219807480
C          114.81758214373359      120.55681659849708      121.72401359172886
H          114.61527116503693      120.57907236212138      119.59124928693228
H          116.22721547384823      120.18704976564537      120.15323469374405
C          113.43657953934982      121.16695106775906      121.90929353901370
H          114.74195510006828      119.47905341909083      121.87145345474437
H          115.49582935772240      120.95279104287270      122.47906644255960
N          113.00231564732943      121.10754950063045      123.29193094370052
H          113.43706892707775      122.21848665640678      121.60452988448647
H          112.71069035561395      120.63926566341495      121.27826601978509
C          111.93589720331057      121.79490092814542      123.71350253322736
H          113.53849430404543      120.52762198908509      123.93260048241760
O          117.28617892031112      126.18958991154902      116.87224048926515
C          111.60011420022509      121.61401642060675      125.18190681645575
C          110.53236133800199      122.59395153119701      125.66501315155473
H          111.23847801701756      120.59019140665296      125.30974521116460
H          112.51317906519218      121.71823226234902      125.77106782249859
C          111.05094666787789      124.02500913639427      125.78486744451661
H          109.68977713459728      122.57969674994712      124.97205775874835
H          110.18002400795741      122.26347572705338      126.64204864684322
C          109.99432095969358      124.96705040074268      126.37754446013393
H          111.93270432722396      124.03639677034958      126.43183412333474
H          111.34847712526657      124.38972155393745      124.80064792525562
C          108.86663728216715      125.25921891285022      125.39886387413819
H          109.56540336310243      124.51424204081583      127.27277352507079
H          110.46716218342465      125.90983801372352      126.65646531116316
N          109.13123326959389      126.28776023427868      124.58263504348142
C          108.21317570570167      126.81752414416688      123.60062402959061
H          110.01961159803952      126.77087484678191      124.65547170533938
O          111.27634989814568      122.50394218637580      122.96145315258910
C          108.16420298217486      128.34523079760930      123.66899886211387
H          108.52034762230778      126.49858332813170      122.59827248166027
H          107.22881315131001      126.39462676652030      123.81542216399620
C          107.33631619943286      128.96356746668562      122.53122838195658
H          107.74065099649066      128.62892842327003      124.63414960923603
H          109.18582536661326      128.72534192464357      123.63842264584741
C          108.17124076147532      129.60634766646058      121.41889419259145
H          106.69593909360434      128.19374565544004      122.09611541255181
H          106.68108356440079      129.73407897459126      122.94079600444235
C          109.09399909426307      128.61612077152151      120.71589524633433
H          107.48801314699924      130.04103803835540      120.68559223562448
H          108.76345577200908      130.42302846432179      121.83739881238208
C          109.75076127256902      129.19680780979797      119.46393788220914
N          110.59358455227100      128.19602305623317      118.84393389075935
H          108.97910371457178      129.52044042505898      118.75613112722755
H          110.37485069250710      130.06279134338712      119.70198281446137
C          111.83452187454198      128.42481231336865      118.40628977696957
H          110.26354824109265      127.23684582100807      118.91550617087233
O          107.82178017348015      124.62201644052813      125.36617021820469
C          112.56723902874248      127.18995821741035      117.91625838864327
C          112.19371079244623      126.80029310381443      116.48027515290535
H          113.64203276309641      127.37424527835731      117.96662977749450
H          112.31972070286987      126.35527237180854      118.57429894246698
C          112.75367275908580      127.75827265548207      115.42937694790162
H          112.58945374577402      125.79913957748214      116.29311678204415
H          111.10654769633544      126.75152668196081      116.38726056607899
C          112.52299704951106      127.19309873701168      114.02607321871955
H          112.26990929441315      128.73278885721467      115.51579102160618
H          113.82413860631857      127.89034626338675      115.59238008818754
C          113.12635067760523      128.05055319071954      112.92637721623542
H          112.98653300294283      126.20697574877713      113.96285020810687
H          111.45173668155006      127.09537260337645      113.85925796548051
N          112.22668759322140      128.78216669200239      112.25504405203758
C          112.59156711066949      129.56202109039364      111.09185290139004
H          111.28366529718531      128.85679992617278      112.62009010069536
H          109.87336858916673      128.29101545897626      121.40446786997938
H          108.52169096302231      127.73598566449031      120.41947771273614
O          112.34573536030123      129.54249460091097      118.41894530289724
O          114.31729720069679      128.04192596717343      112.64102356733979
C          111.41859099689106      130.37024424681036      110.54590908223908
H          113.41174980109737      130.24214357517192      111.35726937250939
H          112.97918681107558      128.87981626625958      110.32516103027973
C          110.17116996027001      129.54803260549340      110.21027785749730
H          111.13474722993321      131.11626797802597      111.29127427166092
H          111.76052628777880      130.90244450438840      109.65622675762113
C          110.36008070326423      128.44677588253239      109.16583311504436
H          109.79253265634085      129.09933836532875      111.12917041628234
H          109.40232082398924      130.23771154872227      109.85331161442208
C          110.60754508944919      128.97232650357498      107.75289100505071
H          111.17736988711950      127.78658287878673      109.45902698897585
H          109.44549918563338      127.85207116003200      109.14354491590851
C          110.53227655622084      127.86333190231380      106.70267802882697
H          109.85236909873814      129.72197168559032      107.50998115031169
H          111.58857093982901      129.44790894031226      107.69369268619123
N          111.65624661878545      126.96053935221752      106.79987285043782
H          109.62332423804953      127.26969415056188      106.82402989684783
H          110.51321994507913      128.30868516048818      105.70064829778212
C          111.57129490688961      125.62935522000267      106.78682601643349
H          112.57492198556579      127.37658100685020      106.89993086011866
C          112.92682320751662      124.94651479540451      106.79775786882021
C          113.49830844263909      124.88016823962708      105.37445573907837
H          113.60404748308717      125.52510422910071      107.42511190017710
H          112.82425702853966      123.94183925169283      107.20754413971972
C          115.00405641775728      124.62328122040171      105.38490046510826
H          112.99887570858151      124.08614892507009      104.81565479495124
H          113.30035256604540      125.82398381882082      104.86223580293661
C          115.56269106957188      124.36931148747456      103.98056554609478
H          115.50877734770708      125.48247108583207      105.82678756014434
H          115.22259324882299      123.74988800708314      106.00088594900311
C          115.45631326737751      125.61220122963780      103.12711847208153
H          116.60964466930957      124.07996012579387      104.05266533817114
H          115.01041122759996      123.55397521844357      103.51407907455308
N          116.43029886203055      126.49024730259399      103.30755049771214
C          116.56406067408251      127.74643730098319      102.60300152171909
H          117.20981216370230      126.24836441631460      103.92233574747715
O          110.50947932615972      125.01413774970386      106.74052528920694
C          117.15970835938481      128.80123950943704      103.53055779198159
H          117.22775758209646      127.60440085535953      101.74132520820744
H          115.58449591690440      128.05155588023550      102.22652286692596
C          116.16365703995243      129.34407844339057      104.55523568865006
H          118.00071414679522      128.34608422872330      104.05508095144599
H          117.54013308846328      129.62803479727862      102.92830965182425
C          116.88153909388042      130.22042854443333      105.58461810884241
H          115.40073630339130      129.93158532047062      104.03920423914310
H          115.66609865652939      128.51209525210621      105.05599923829814
C          115.95721086598616      131.17022394739703      106.34786013481016
H          117.41746180812238      129.58117747309601      106.28882395850771
H          117.62547915038380      130.82949064375421      105.06547948077413
C          114.88826659227229      130.46634436977675      107.18294509645678
H          116.56237044586541      131.80007387705456      107.00585214313928
H          115.45000503762780      131.82658074667401      105.63850599699833
N          115.45636226019987      129.60521887334889      108.19396870409341
H          114.24995188158134      131.21900081105983      107.66215320390062
H          114.26489833944943      129.83328207565967      106.54919836390013
O          114.51098532506121      125.78864055233664      102.34397959458083
C          115.15117311080253      128.30072009798269      108.30369740076198
H          116.12752796712968      130.00740036808958      108.82820239825871
C          115.88676649307907      127.56366272481650      109.39994429980177
C          117.34585454051087      127.29050957653523      109.00878283090471
H          115.83664806391397      128.13764476389679      110.32613418416622
H          115.37265454678494      126.61561535571319      109.56452592366274
C          117.42188308717733      126.45376444909002      107.73303060529041
H          117.88133909174540      128.23152214894185      108.86237006208901
H          117.83496923666326      126.75924993202256      109.82642796514671
C          118.83387020616138      125.95760324471483      107.41575934298622
H          116.76415924483568      125.58731072324541      107.83986777320038
H          117.05727890036431      127.04469307995392      106.88932755789914
C          118.83624951639331      125.27561344350113      106.05869939401180
H          119.53095445979991      126.79828710232650      107.37602112557099
H          119.17167277390976      125.26405437940656      108.18418172577357
N          119.06570610347083      123.96730110435387      106.08500715725017
O          114.34143207542452      127.76122973439050      107.56440942435675
C          119.20938573691032      123.12974803434217      104.91192376076380
H          119.23309044757640      123.51679393078557      106.98572937665294
C          120.08350070786756      121.91951514788124      105.22492951741235
H          118.23286590328770      122.76443399994874      104.57145655538122
H          119.63420415288957      123.73011461799709      104.10345861798504
C          121.52239226544485      122.26405483554097      105.60707723987723
H          119.62895756674563      121.37922109313031      106.05781770861887
H          120.07424334812531      121.26046773778876      104.35653542120282
C          122.35627445600842      122.73721552310514      104.41936743788050
H          121.51148128538134      123.03895218179767      106.37560410368400
H          121.97815224027366      121.37226483517748      106.04101473882574
C          123.78661179547174      123.10647018868177      104.80858556974698
H          122.37756149839213      121.96144431379277      103.65127998818154
H          121.88837705649166      123.61851297474459      103.97981166250833
C          124.65317108798440      121.89722570715048      105.16954060970448
H          124.25517631506989      123.62626099292163      103.97244601832946
H          123.76248546451087      123.78648721003393      105.66113798538271
N          125.97730013650610      122.30599043529601      105.57926633710358
H          124.20019475023453      121.33726848123965      105.99260918811807
H          124.75520473453132      121.23730679657527      104.30485049260623
C          127.07781691830452      122.16715253761386      104.84531664432608
H          126.04363230275561      122.85856816948693      106.43488797087821
O          118.61488427787278      125.90335902591572      105.02022773847546
C          128.32850334916299      122.69443139865611      105.51859232499814
C          128.78183127453710      121.72791420616603      106.61437337919597
H          129.11846036157462      122.81584794987947      104.77739607431666
H          128.10356755199720      123.65638750951823      105.97833515182437
C          129.87872370139164      122.32731586701976      107.48820524883654
H          127.91964004611550      121.49257800850877      107.24127758869147
H          129.14525172649789      120.80292279491076      106.15700903460201
C          130.39689273103787      121.30137165698990      108.49818050240046
H          130.70635592804902      122.67115628669514      106.86535045947780
H          129.48049014458462      123.19220240074436      108.01989758854310
C          131.43447470525481      121.92207949711327      109.41223815818725
H          129.56850427737871      120.96594358816230      109.12758740684052
H          130.82576486299024      120.44175727825007      107.98324099471651
N          132.66167254848568      121.41259085276117      109.30227809814420
C          133.75180403488568      121.82926864799049      110.16100219996795
H          132.81783442156777      120.62287319392429      108.68940150806517
O          127.09803475324928      121.63276217832208      103.73282816781251
C          135.10298710079243      121.35439785900400      109.63628694784285
H          133.74329472301463      122.92265115942006      110.21137435233048
H          133.57520114018249      121.44713004481255      111.17376973435306
C          135.22059187032917      119.83460074319608      109.49885603316636
H          135.27575159812721      121.81234910561609      108.65997577966495
H          135.87399454306924      121.71921177930318      110.31806971973562
C          135.10385251311590      119.07512666531952      110.82178713159335
H          134.45806862651662      119.47554165276152      108.80865660015466
H          136.18950156112996      119.60596104563867      109.04718272595842
C          134.82918813046538      117.58747928772645      110.59109097182854
H          136.03273355955380      119.19258318364017      111.38492606320523
H          134.30005564001402      119.48560767055022      111.43205746808259
C          133.37242060498906      117.31203836836764      110.22370347671419
H          135.47073471846295      117.21647462066726      109.78919644756314
H          135.06047025856881      117.02430077876338      111.49350261184719
N          132.50813941912600      117.38533814321940      111.38217135797530
H          133.04059391113455      118.02544522166286      109.46245137742500
H          133.27492361328018      116.30046052253523      109.81917818333775
C          131.54471217415298      116.49263511600570      111.63505861696872
H          132.61409669997960      118.17809986659438      112.00706214064971
O          131.15092381893845      122.83180727402896      110.18514470653479
C          130.78955129519193      116.74431554090455      112.92139270318933
C          130.25558631231780      115.47189917242579      113.57882682833336
H          131.42823711002001      117.29109530739672      113.61073636541337
H          129.94243485854483      117.39775099520593      112.70014088916284
C          131.31782067305423      114.39844557466976      113.80497553744729
H          129.79242902298117      115.75847329686721      114.52360424103134
H          129.48102262928657      115.03970908803734      112.94104294396415
C          132.44552928622647      114.79190583474906      114.75625072515933
H          130.83074288003195      113.50866148686372      114.20600799330472
H          131.75602711753783      114.12107506307105      112.84527581399884
C          133.44710713372388      113.65704077858213      114.88552011977221
H          132.98426754638905      115.65866118871064      114.36562778147135
H          132.05835424384887      115.05592376951411      115.74158204226418
N          134.27503845779327      113.74961771377752      115.93373120431296
O          131.30234099543358      115.55213330492413      110.88056539231508
C          135.32433326608077      112.78350025404713      116.18318405697366
H          134.21811680737420      114.55605393498639      116.55287404821502
C          135.56985303479445      112.54236854489614      117.67123238144907
H          135.04137997430070      111.85675378716118      115.67589245149918
H          136.26094636826804      113.13955118842144      115.73104228977368
C          134.59760306044623      111.55139465294637      118.31256063667136
H          136.57980083329014      112.14294027395368      117.78441217936846
H          135.53637112104570      113.49948101561921      118.19315838632674
C          133.13608121952399      111.99338922581762      118.28462961388915
H          134.68260991815802      110.59504321274856      117.79142409997031
H          134.90243990651868      111.38901322827149      119.34928671060369
C          132.88326158212101      113.26078792532849      119.09350547181661
H          132.82966687077882      112.16219776491195      117.25280861600113
H          132.51923257747282      111.18658732358608      118.68775328207060
C          131.41302533791199      113.66009225384018      119.05958442390929
H          133.19265723272144      113.10178542581998      120.12938371034831
H          133.46471396590110      114.08629193614019      118.68273829784975
N          131.27060960581875      114.96073045950460      119.67577713772934
H          131.06980713043239      113.69817304221428      118.02031414602308
H          130.80268583462899      112.92556208484049      119.59744948948993
C          130.17707413162267      115.72346601122726      119.77461174999947
H          132.12072732462892      115.36430945193599      120.04546542022705
O          133.49942898511102      112.73249289536727      114.08117526571334
C          128.90581282985477      115.22729529969598      119.14169735075649
C          128.78817873607585      115.83679680127644      117.73783135199176
H          128.87607417228566      114.14081982704749      119.09925919926604
H          128.07245152849205      115.57126819746988      119.75419848905494
C          127.53715361181887      115.38439998367778      116.98553105397146
H          128.77812727725586      116.92452578569869      117.82505170140151
H          129.66656250614480      115.56905501443417      117.14662700828826
C          126.26702796987257      115.67070322842865      117.78393192811710
H          127.50835892295977      115.93267626227262      116.04303699205718
H          127.61199805032996      114.32187058500280      116.75497508363351
C          124.96867097618929      115.60212491253534      116.99830549738321
H          126.18286333782586      114.96181056135096      118.61094608328166
H          126.32051420501689      116.67736975009164      118.20361998498714
N          124.83766798307119      114.56241464178696      116.16806265929762
C          123.69612584623516      114.41080059907939      115.29563115227826
H          125.60295881334702      113.91127617003403      116.01679340754781
O          130.24537759957499      116.81478300956978      120.33809181345664
C          124.12214982066061      114.10898458431265      113.86095480461948
H          123.05117072892139      113.59876700397163      115.65521331581185
H          123.12104469074727      115.33678777639906      115.34213910602286
C          125.11428464931751      115.12630684082451      113.29802981123764
H          124.58540643124169      113.11994802239951      113.83264771620496
H          123.22029205264325      114.09201533619709      113.24786147952835
C          124.55847198353487      116.54801877762229      113.31603363478628
H          126.03978446499401      115.07163719710138      113.87247637076243
H          125.34329827810345      114.84226070481120      112.26896402493335
C          125.37043153050314      117.53465647985638      112.47927073747384
H          123.53926514709909      116.52316866308470      112.92540985146510
H          124.51975932042572      116.91382972913756      114.34116430010930
C          126.75192382679947      117.83851767626119      113.04804470345137
H          125.47627435391618      117.16104467691865      111.45970847016078
H          124.82156375751184      118.47756663579021      112.43408820472402
N          126.62569907832207      118.64983517237114      114.23597361724306
H          127.29511439913114      116.92673678214510      113.30964519311978
H          127.34620516923030      118.37663539235000      112.29502023822060
C          127.54714582956944      118.68012449496307      115.20659138563059
H          125.79461179735681      119.23786190846467      114.29181999329423
O          124.08596252643356      116.43429519181284      117.16922188990458
C          127.17543008931520      119.58564375833691      116.37110681026418
C          128.41653747025805      120.16383300869113      117.04393220418450
H          126.53395374586957      120.38846876793345      116.00859664071437
H          126.59226244301776      118.99401365033727      117.08149366101574
C          128.07508974387238      121.22444119055180      118.08528456229740
H          128.98514460648258      119.35677531941984      117.50890537961841
H          129.05319242618501      120.60412535143082      116.27521317330691
C          129.33233549717775      121.95556514319560      118.57309841200575
H          127.38495214132163      121.95725956544446      117.66340417449878
H          127.57758151003731      120.76341183031072      118.93805374350832
C          129.84220531512037      122.86110892601020      117.47221874184677
H          129.08525947990270      122.55767675966007      119.44693787713130
H          130.10761885167091      121.23386338913416      118.83421021428052
N          129.15936455504283      124.00231021409826      117.35904493637968
O          128.58530314421606      118.03573073726302      115.16399088254580
C          129.41907181677101      124.98550856872680      116.33493575381317
H          128.40513399314949      124.18560459897175      118.01690819453162
C          129.82770640689233      126.33549067324256      116.92921825958244
H          130.22017841879065      124.58466217016338      115.71060830277673
H          128.51801484210213      125.11246796533517      115.72525389777768
C          129.68558544355795      127.48324765848061      115.92953013027820
H          129.19083825659078      126.53755564385494      117.79338716811105
H          130.85816593385059      126.27875519703781      117.28434022979683
C          130.55162541550757      127.30759603976639      114.68366506446522
H          128.63903328936354      127.56312550665879      115.62471178389869
H          129.95626407444286      128.41501988193446      116.42890232074693
C          130.38040372009587      128.43957868153959      113.67246548178875
H          131.60124151864079      127.24245801062121      114.97829491416385
H          130.28456820729079      126.37216473090967      114.18924148481638
C          130.94080067945748      129.78817502381250      114.14156127964229
H          130.90360428651110      128.16812033729326      112.75260947826362
H          129.31947805838141      128.55339766927955      113.42999802456126
N          131.03620886443727      130.78193401037328      113.08441623351264
H          130.31714510231856      130.21247019022840      114.93390549389328
H          131.94842905412051      129.64379838741382      114.54213332932144
H          131.61945430222571      130.41374264013305      112.33796751160361
H          130.11597735666709      130.94023567247530      112.68420142066071
O          130.76743208419515      122.55029342578221      116.72493311418054
C          130.36645850702180      110.70807900542080      123.56686366346442
C          129.28241376921838      111.01945951431875      122.54750753849034
C          129.78170392599867      109.93092348627906      124.74582067854902
C          128.70071494935752      110.74854116895067      125.44805455593338
H          129.35058065866312      109.00112328081696      124.36999120074570
H          130.57520132702396      109.68180897986660      125.45244751317475
C          128.06530148516038      109.98303996372472      126.61205385442823
H          129.13558118221559      111.67598428677186      125.82489503565336
H          127.92438082074568      110.99829482881466      124.72025674590718
C          126.89207018203712      110.76463111335097      127.16234505856117
H          127.70739993592235      109.01239835415223      126.26479644693771
H          128.80569390182620      109.82964588264805      127.39835653444474
N          127.22804488627565      111.84973503177554      127.86298396254315
O          129.34738529812978      112.26183766354011      122.11203637626163
O          128.45126715908216      110.21946436286315      122.19496239212327
H          128.59563000301637      112.46656185524984      121.46784831693734
H          130.81511590305485      111.64501272586639      123.89634176616570
H          131.13139440481891      110.10820926893902      123.06953437521014
C          126.27693738223810      112.83651755545391      128.32332719795232
H          128.20009264957858      112.14938659186727      127.86881611543143
C          126.28860743733485      114.08531337869960      127.43884264247373
H          125.28773131668888      112.37778919543379      128.30635070401695
H          126.52762464696004      113.10407277642057      129.35450572349825
C          125.87537691899956      113.76068901952834      126.00608216704514
H          125.59688158559479      114.82092477817062      127.85250085373781
H          127.29201143108227      114.51466369976551      127.43966151533964
C          125.91856418552975      114.99851664062145      125.11612571609285
H          126.53667367064592      112.98820275225050      125.60995026884569
H          124.85880878837001      113.36189714286347      126.01970958728478
C          125.39887709514758      114.75774911235763      123.69992773364548
H          125.29481636360873      115.76137130363480      125.58184964183857
H          126.94046825908710      115.37861902357811      125.07285456278322
C          126.30112067524210      113.88110795241805      122.83693947650758
H          124.41345828618184      114.29484606497846      123.74999715574826
H          125.27573451672036      115.71945771616549      123.20389847232374
N          125.58092714446626      113.44750079099693      121.65550887497149
H          127.19960592356766      114.42622987931406      122.52831988739608
H          126.62998615472240      112.99558643526187      123.39529469944571