3864
 energy: -5104.226494517497 gnorm: 0.000959641423 xtb: 6.6.1 (8d0f1dd)
C           50.02773690648745       70.32485980785768       39.56054446220602
C           50.26686109875297       71.66205913811750       39.85373652488185
C           50.10726665895952       72.60031604589420       38.84166535051845
C           49.72393376927086       72.21520485545057       37.56810167590323
C           49.49308246548028       70.87924483460809       37.28912238908453
C           49.64643675168060       69.93547591675855       38.29022075795097
C           50.68084727290680       72.09582799145186       41.23614411837013
C           49.52869418920435       71.88654735107649       42.22187492621557
C           51.93558184294430       71.34718093927307       41.70148081487505
C           53.11641909508090       71.52965376577470       40.73770001884103
C           53.47622052798324       72.98625495386409       40.60407518255558
C           53.37389571136706       73.63295381379366       39.37938493827823
C           53.69946780588298       74.97243715274095       39.25338807888479
C           54.13600175811274       75.68755385666455       40.35498797635119
C           54.24951080205977       75.05186157638208       41.58047754740042
C           53.92381568098855       73.71353609711407       41.70189630108738
C           54.33047927475136       70.69702397977076       41.19917868571034
C           54.70281812397074       69.58164469640118       40.21242019488761
C           53.55012183820076       68.64425669259973       39.95836778545266
C           53.04994727549838       68.47393676954520       38.67277655484489
C           52.02551912848152       67.57848811510571       38.41868462175280
C           51.46814325323199       66.85262503432293       39.45671688221686
C           51.93983586380678       67.03165412904598       40.74617059468935
C           52.97511930128033       67.91494811017398       40.99264002665308
C           55.92261313028415       68.82179556609209       40.75366205104736
C           56.42888175400118       67.72319691585179       39.81030540989016
C           56.79988097900650       68.30265365330190       38.46760961321571
C           57.84419300414606       69.21220899188198       38.34151271028664
C           58.17702859517717       69.74257699495712       37.10834068977916
C           57.47034726563448       69.37144868050898       35.97634895808636
C           56.43139493213189       68.46488068885196       36.08860486541437
C           56.10243338665630       67.93574694201402       37.32414051773795
C           57.63638953753828       66.99629006403379       40.42854850572287
C           57.25946404502516       65.92603441057499       41.46993730881599
C           58.41686989525538       65.69674913203519       42.40999564601584
C           58.28207507953933       65.93812923623135       43.77107028112240
C           59.33616917069688       65.72401561316811       44.64181308688753
C           60.54957764596429       65.26359816755404       44.16156721337266
C           60.69966144281468       65.02459841097210       42.80583448141287
C           59.64381197969742       65.24126204292652       41.93958694569626
C           56.85281829505434       64.61514049390823       40.78598649867054
C           56.51628911303983       63.49188175655780       41.77724519353873
C           55.27946273869686       63.80120358609610       42.58236842662940
C           55.35672857274537       63.90881668372196       43.96585837578974
C           54.22192096145528       64.12644932855922       44.72833556842019
C           52.98378864011553       64.22955402493004       44.11635286666528
C           52.89557452695168       64.13708721900056       42.73805440864329
C           54.03393417561865       63.93593402437617       41.97910480803846
C           56.35412632605809       62.17370415142354       41.00367474112618
C           55.86646930357306       61.01699643318029       41.88238659890848
C           56.77799388270988       60.78186382664317       43.06047647358259
C           58.13512040561248       60.53921545152850       42.88222477594717
C           58.96198876484981       60.30962260501732       43.96613707724420
C           58.44648026874625       60.31353169928819       45.25098819636359
C           57.09618750734558       60.55040852464778       45.44085935805153
C           56.27056709223332       60.77778402036541       44.35368438556629
C           55.73646291556943       59.70558254588687       41.09022393798183
C           54.90773503372423       59.80606089993501       39.79892685277130
C           53.63695925602748       60.59351391453340       39.98968306607163
C           53.32472213068353       61.64483127436355       39.13769750742517
C           52.16298765110700       62.37975354477227       39.29397455317100
C           51.29513858150159       62.07931698221975       40.32752590924506
C           51.59643241008386       61.04338711487090       41.19542251020241
C           52.75057293055563       60.30283850899214       41.02038455486688
C           54.60625070195428       58.38886054232591       39.28068650036241
C           54.25727195977039       58.34894909012424       37.78752586633045
C           53.65686957309259       57.02066946241219       37.38171813439607
C           52.73409577818382       56.97659539276285       36.34198976628794
C           52.19874310411411       55.78007523621061       35.90432292253624
C           52.56031294026562       54.59660355152023       36.52165640131149
C           53.47209029967455       54.62098089937323       37.56152803650011
C           54.02292831855050       55.82060732483963       37.97961808621500
C           55.50357147417099       58.64038691663345       36.91328865673320
C           55.47867612274882       60.00841740284955       36.20910039706585
C           56.87176626800992       60.40086347892282       35.78682704915783
C           57.53312113237702       61.43072869146022       36.44508207149959
C           58.80979254972659       61.81092730628059       36.07316412546313
C           59.45025111533428       61.16151840715101       35.03266421299605
C           58.80454931692493       60.12820288519871       34.37460951929617
C           57.52842217287512       59.74890137285033       34.74956160885666
C           54.51401013065075       59.99477549999936       35.02152115379238
C           54.38912827657787       61.36128829202878       34.33223583009950
C           53.89425033234694       61.20054063112961       32.91716912485869
C           54.50856001486961       61.87164318068670       31.86782716433779
C           54.02692902007605       61.76396776106508       30.57423893893441
C           52.92319917267655       60.97268523400403       30.30584525199304
C           52.31539067214939       60.27938925028761       31.33857976563952
C           52.79816712635677       60.39454530218978       32.62947683197518
C           53.43322466381366       62.27843509206961       35.11411751401835
C           53.53397305685883       63.74161600116361       34.66608184383247
C           54.88933549734077       64.30451063281991       35.02614447887017
C           55.73270741665232       64.79732435731279       34.03874959704459
C           56.98967543926972       65.28607824860995       34.34990300613107
C           57.42531423583678       65.29414390782914       35.66245206064019
C           56.58947583609260       64.82260598774688       36.65910358777958
C           55.33468299024727       64.33639205090253       36.34277930673204
C           52.43003161868258       64.63149567333917       35.26561058087739
C           50.98900175937995       64.14158136836903       35.02963749324951
C           50.02864968843817       65.16356539217875       35.58781441187234
C           49.38625193168038       64.92817722529945       36.79749944896751
C           48.50451847991373       65.85303571869667       37.32954007465396
C           48.23576203594600       67.02719651391344       36.64770968715671
C           48.87854084122140       67.27958351327403       35.44757614209010
C           49.77367252359861       66.36104340492020       34.92946206418515
C           50.71569431971320       63.83437987239936       33.55185755151400
C           49.26681628124851       63.40068294198326       33.28255665810906
C           48.80927334163037       62.33884741856291       34.24966997088011
C           49.50200748084848       61.13972082731139       34.37126115169052
C           49.06191103005540       60.14878679019651       35.23028237524878
C           47.90368261417757       60.32741701526088       35.96738752955701
C           47.21372018797448       61.52278372127552       35.86561308930541
C           47.66916650889529       62.52131800109015       35.02123324770290
C           49.14824561245539       62.87672733438720       31.84210707106647
C           47.69294986446503       62.57974761850583       31.45899381880659
C           46.93179059058901       63.85241439931515       31.18375404916410
C           47.30002798408765       64.71101287985869       30.15429586345746
C           46.58443269511243       65.86828857883047       29.90581878551479
C           45.48254929704046       66.18680213264281       30.68210192919495
C           45.10235014831645       65.33713632182719       31.70594641032108
C           45.82275161583801       64.18178500244481       31.95232874146758
C           47.58818456154418       61.63734429173736       30.24795846172654
C           47.92879965879323       60.16550216949189       30.54882556352606
C           47.76975202086210       59.35832634714347       29.28540474077438
C           48.87116792846858       58.77044645197583       28.67817323242958
C           48.73213802864721       58.01936485579035       27.52417715145400
C           47.48250534376506       57.84606042386976       26.95623280819659
C           46.37593887943180       58.43060382092845       27.54997709635022
C           46.51949549079607       59.17987404375932       28.70316410578828
C           47.05096563371868       59.61636691197882       31.68507758729264
C           46.97261256337777       58.08475256685548       31.76033058718072
C           48.30650834202201       57.39633734630193       31.61494523475418
C           49.41539454295642       57.80050150889335       32.34888439970153
C           50.61241189499384       57.11185136529117       32.26092297968088
C           50.72157166771312       56.00122901064201       31.44141986327322
C           49.62543466129334       55.58956364326827       30.70296306857164
C           48.43228144071903       56.28531550925718       30.79006912361971
C           46.37098137811946       57.63551225137579       33.10507196408890
C           44.96986358333900       58.18426523077033       33.41087025229555
C           44.68801202483009       58.01473135990666       34.88369304993351
C           44.50921536443860       59.13379535364633       35.68658506630407
C           44.29282169496068       59.00810813887041       37.04752200961983
C           44.25355737930847       57.75324528115852       37.62785402754861
C           44.43488838308974       56.63009030685948       36.84008183706999
C           44.64666112795764       56.75977584273680       35.47971053038093
C           43.90166071627157       57.50938907127342       32.54367387335126
C           42.56744428266337       58.26787719349427       32.58495066390121
H           50.91524754186088       73.16643020446685       41.20377109175868
H           52.21455840535953       71.70633277131157       42.69387028301337
H           51.72023746427575       70.28114241070509       41.78521628287125
H           52.79842559115872       71.16805615888948       39.75389866571692
H           55.19887293971690       71.34993219623429       41.31267018844537
H           54.12493763839314       70.25924033431306       42.17679897037926
H           54.98298132751801       70.04789182523287       39.26007907428704
H           56.72517235485130       69.54136990775579       40.93017653909847
H           55.66229863248935       68.37483428004845       41.71369357431166
H           55.61863943252113       67.00352051493157       39.65692476517787
H           58.28670685022121       67.73473152993962       40.90319285235604
H           56.40632349917977       66.28284413391123       42.05608672098439
H           55.98914934142807       64.80303246281707       40.14528600325831
H           57.67494628199760       64.27537098380746       40.15139921066218
H           57.35642110520969       63.38178399677296       42.47269192520946
H           55.62824451415032       62.33213231717433       40.20673764827239
H           57.30983938814290       61.91341961940001       40.54383937698092
H           54.87533254187144       61.28689439659365       42.26400839373660
H           56.73550868022241       59.35072286817861       40.82276849541087
H           55.28915220881650       58.95831410925443       41.74977553046033
H           55.52538641853514       60.31395681093420       39.05391090646695
H           53.50388988289578       59.12194345835551       37.60095987046740
H           56.39241051839743       58.59489381914080       37.54499146909989
H           55.60677079893747       57.86879290636896       36.14781101999941
H           55.13409056411799       60.75708662113438       36.92624253983544
H           54.85177360602363       59.25528225156381       34.29343701994501
H           53.53187475570741       59.68490620682712       35.37865715951281
H           55.37963564216225       61.82956257042292       34.30252718292758
H           52.41626193557342       61.91385818646636       34.97247029474550
H           53.65853728864096       62.21495980933204       36.17697500072715
H           53.43936490696197       63.77222664548358       33.57581662688623
H           52.58264736295627       64.72517823657383       36.34386018843035
H           52.53901121578879       65.63276614570819       34.83920216183275
H           50.84327698087981       63.21846990793443       35.59954576883585
H           50.94003558176002       64.71016333104605       32.93988377917969
H           51.38195110298933       63.03508574782157       33.22532755035986
H           48.61140403073717       64.27298437429629       33.38962075408620
H           49.56850412638217       63.61501878833115       31.15651712806674
H           49.74348786929320       61.96745809495432       31.74747704410769
H           47.21009258018420       62.09226985534748       32.30923324948601
H           46.56306268737094       61.68514324920024       29.87155157183637
H           48.24632008769007       61.99209372856076       29.45093930871040
H           48.97747487519870       60.10145733015271       30.85355705447069
H           47.42863944032632       59.99356659158803       32.63689410613045
H           46.03889928889667       60.00332663329079       31.55016731723858
H           46.33083816738151       57.73080796634736       30.94747263859767
H           46.33226596354859       56.54481893695461       33.11742169488120
H           47.04286212400553       57.95343749712881       33.90624241690894
H           50.14972035757798       69.57340698865127       40.32624341867558
H           49.47385712486957       68.89115220549945       38.07761687105042
H           49.19520712768286       70.57476155518971       36.29635716749976
H           49.60520857360787       72.96013596292499       36.79363002022140
H           50.28801167737363       73.64547320791020       39.05348805296610
H           53.03111134222067       73.07989170332812       38.51567126974663
H           53.61202363657405       75.45960687302156       38.29254573355058
H           54.38903567418806       76.73342506229952       40.25932885581035
H           54.59383941161740       75.60378657610435       42.44350462458620
H           54.02089250734740       73.22415816361118       42.66016610857071
H           53.47481328446796       69.04506461138723       37.85810911287455
H           51.66021176222544       67.44639453780358       37.40937839510092
H           50.66692332334994       66.15585804629410       39.25769045606513
H           51.50377982477112       66.47830326519171       41.56526472086969
H           53.33621680032063       68.03508836211907       42.00349700642997
H           58.40640723700265       69.51139420469073       39.21389086021678
H           58.99081189982304       70.44939423481601       37.02864744146193
H           57.73015261557205       69.78712019820118       35.01341895185981
H           55.87666221552755       68.16288721611403       35.21176608151836
H           55.29022189683302       67.22772421648989       37.39954663368868
H           58.21225312361888       66.52555113819805       39.62828979531638
H           57.33540951491763       66.28988302330701       44.15727477684862
H           59.20952748529451       65.91611445171128       45.69781822250053
H           61.37377516098665       65.09374841004728       44.83896421457028
H           61.64522607833296       64.66818573542977       42.42267299828841
H           59.77873161686364       65.05310697968440       40.88481686632627
H           56.31731006473773       63.80678814423440       44.45245176656478
H           54.30385956808017       64.20536349509882       45.80380490341516
H           52.08973734583329       64.37637854019691       44.70705050927774
H           51.93164078134983       64.20691777071299       42.25605626472281
H           53.93884442972156       63.86254438135522       40.90626001575423
H           58.55744376736313       60.52549968888509       41.88792569841055
H           60.01523250013111       60.12979257533232       43.80501163086890
H           59.09145672311517       60.13569864394377       46.09967474601376
H           56.68723068385475       60.56863080453620       46.44222050962281
H           55.21656566457102       60.96408938036566       44.51188964405039
H           54.00932994209065       61.90176102645247       38.34061011821296
H           51.94074080995455       63.19302972719610       38.61570760481152
H           50.38850528758174       62.65103015959717       40.45587037917197
H           50.92594477470253       60.80814689872712       42.01021228156026
H           52.97045759664147       59.49152350208028       41.69864370422358
H           55.48772662200793       57.77103132025410       39.45584195494786
H           53.78194009886909       57.96152476826811       39.85716230084833
H           52.42350517058746       57.89781178258515       35.86956727506480
H           51.48767444141683       55.76952008366366       35.09055529012479
H           52.12268108975228       53.66523920278880       36.19612819972578
H           53.75469070167330       53.70298414794343       38.05745192870273
H           54.73205567869685       55.81055852402166       38.79291751742077
H           57.04263119143700       61.95162248976628       37.25528664918196
H           59.30282860061965       62.62115284025241       36.59128180070488
H           60.44579053505092       61.45868643983486       34.73469288694194
H           59.29756052080386       59.61662136667739       33.55932668700690
H           57.04426793220237       58.93974903086104       34.22408154945438
H           55.37948635671331       62.48078701171803       32.06753467479183
H           54.51646607260295       62.29800016539193       29.77170558397302
H           52.54502147560619       60.89049122996746       29.29678801295480
H           51.46674836115496       59.63988213924348       31.13672642654657
H           52.32217898742466       59.83859208677569       33.42302646771649
H           55.40054452561685       64.80059829303106       33.00910790130568
H           57.63034634598800       65.66276759956469       33.56483925732804
H           58.40464915010381       65.67851030291682       35.90771433952788
H           56.91682007654477       64.84117042995210       37.68833551021913
H           54.69257893659852       63.98519556646119       37.13775211808630
H           49.57209616254542       64.00211602051731       37.32503867253492
H           48.01497040739470       65.65654936741147       38.27315975926101
H           47.52776458596397       67.74018114315142       37.04581870053461
H           48.68016157624294       68.19672245623504       34.91062581761803
H           50.26951936194502       66.58045854827212       33.99498060432322
H           50.39317197454811       60.98280288383311       33.78196710715487
H           49.61928922336155       59.22781843940877       35.32717409133679
H           47.54440133176328       59.53894864744237       36.61266465112693
H           46.31930542320900       61.67814525772238       36.45146968901629
H           47.13487014998496       63.45983330447032       34.95158936832896
H           48.15166871872696       64.47331295645741       29.53316090765484
H           46.88432109576242       66.52428726773347       29.10073522167422
H           44.92252233024183       67.08989918446791       30.48566438011616
H           44.23755989086236       65.57039032546521       32.31055862529097
H           45.51226158567635       63.51887466181012       32.74736770128838
H           49.85193879032087       58.89206175089443       29.11681616702538
H           49.60112211141298       57.56488510332001       27.06995000471130
H           47.37007560800696       57.25883753669293       26.05604438768635
H           45.39694801841321       58.29913145390747       27.11037024012504
H           45.64826966530475       59.62633632812793       29.16002903837677
H           49.33873033930045       58.66349432887588       32.99269629794541
H           51.46847295223918       57.43958136022659       32.83399984393852
H           51.65715790345069       55.46445864619161       31.37593744542687
H           49.69708354086502       54.72482098463002       30.05649455206189
H           47.58521612241475       55.96336274731813       30.19898058363196
H           44.79078727231757       55.87250521986697       34.87930475078492
H           44.40930571094498       55.64861303860497       37.28972606434455
H           44.08620873481937       57.64718367260501       38.68930417215827
H           44.16521173729092       59.89083266982885       37.66117119154382
H           44.55097315318657       60.11453066970813       35.23327780539085
H           49.81545679061110       72.22990885225295       43.21337862119875
H           48.64882708894098       72.44169521690269       41.90290505138220
H           49.26117813713060       70.83526817973717       42.28010269894194
H           44.95984739506989       59.25595994657301       33.19610187990568
H           44.24986615096734       57.46702522069576       31.51045319211092
H           43.75723224482250       56.48514275012854       32.88826062541566
C           41.44896209511926       57.47704233215327       31.88482160403489
C           42.74578129446705       59.63701933271365       31.97754300508448
C           42.67919979533028       60.77438040769595       32.77338414488096
C           42.88837730623574       62.03383561941558       32.23971761142953
C           43.17152635287713       62.17666606850102       30.89252294579475
C           43.23127281749392       61.05233181127285       30.08590599645683
C           43.02004676925171       59.79491654412698       30.62357059127821
H           42.46996650498740       60.67400854922778       33.82933926643639
H           42.83218182883724       62.90335744267690       32.87921102767164
H           43.34832962697256       63.15669552737515       30.47344265895236
H           43.44473942016248       61.15939531541076       29.03096537041191
H           43.07042634741205       58.92799832813633       29.98054099770723
C           40.91319153448733       56.35519656724529       32.78096159087499
H           40.62680546779595       58.15194081063265       31.63323878492456
H           41.82058932474561       57.05171839220841       30.95034895959036
C           39.87339397782927       55.51711268224749       32.09520937941914
C           38.52093506818421       55.74792513693423       32.31208354346271
C           37.56142418402141       54.96381025484020       31.69606130519314
C           37.94077843370125       53.93297631312125       30.85351035219440
C           39.28539885501174       53.70002237027141       30.62170999963998
C           40.24140781464520       54.48791238457067       31.23681950009125
H           38.21554439499333       56.54969616717320       32.97096593059270
H           36.51267332164026       55.15376854295543       31.87817196233645
H           37.19337542164005       53.31213765418769       30.38077028067983
H           39.58643198632023       52.89642108809780       29.96519231380109
H           41.28869729620623       54.29476101285535       31.05250662480162
H           42.28806425786912       58.39813203151822       33.63677198083353
H           41.74535021392162       55.71697425607660       33.08382800853605
H           40.47813809308975       56.80110951976071       33.67658465752025
C           55.79572476512364       56.09962590445437       34.14706207783386
C           57.12201980026293       56.04391109171443       33.73404018493877
C           57.45607853994755       56.63804364630879       32.52132798743244
C           56.50251549770378       57.27805568452050       31.74932823498814
C           55.18424108896740       57.32414448310560       32.17139619531638
C           54.83619734018697       56.72492324935126       33.36935654438991
C           58.21282035545270       55.42111057444527       34.57230915956052
C           58.77187251627674       56.48576515277830       35.52196950158916
C           57.75168053516379       54.20251693038938       35.37439660534165
C           57.17367057251656       53.09625560734886       34.48366060935444
C           58.24386620396916       52.49599051949717       33.60792072810275
C           58.18921631025153       52.65082602064349       32.22788660457956
C           59.16411619305460       52.10667427705668       31.40985701093378
C           60.21424719505951       51.39282674844439       31.96121416816375
C           60.28507067779188       51.24002552243365       33.33518600975625
C           59.30899844002936       51.78489271818236       34.14942634328174
C           56.49226466441736       52.02770189374023       35.34470775140252
C           55.80996463042077       50.95172451993755       34.49864351481457
C           54.77667709899748       51.50045252720899       33.54365721288034
C           53.88963246742853       52.50497534768405       33.91360280947120
C           52.90631022081879       52.94273533046295       33.04412784473394
C           52.78189370186222       52.37645555486796       31.78658227543820
C           53.66181031231146       51.37909987083994       31.40117621185593
C           54.64882460508141       50.95052965543329       32.27267718343032
C           55.15506426614041       49.87663749330892       35.39821840758569
C           55.67511122899148       48.46378821412716       35.08852670910137
C           57.07734600364488       48.31560618861212       35.62919090027946
C           58.17638870683233       48.42418539026143       34.78718379185809
C           59.46555880566710       48.32158041037187       35.27983348030069
C           59.68003141636689       48.08629986856637       36.62542244125946
C           58.59446726777734       47.97782430167364       37.47728032336134
C           57.31067036325651       48.10761037039364       36.98342041868589
C           54.75596770164602       47.35552292801338       35.62463908752677
C           53.29435921164619       47.42715774581469       35.14721270853946
C           52.57222347662708       46.19604833935371       35.63687911287396
C           52.76891628626841       44.95111219680080       35.05029572511564
C           52.11145551614966       43.82990490534720       35.52487128514954
C           51.24975816777846       43.93670649047395       36.60298745731050
C           51.04661865115915       45.16910542538034       37.19897706512984
C           51.70550467213044       46.28746097805973       36.71909375100125
C           53.22014815532533       47.59541286026417       33.62588864149181
C           51.79113733588570       47.56412575118156       33.06264511899945
C           50.92019404605850       48.44897470150391       33.92066561303333
C           51.20935830734199       49.79933220777544       34.08429158936456
C           50.51852996739090       50.56396352758662       35.00466676249706
C           49.52190981294528       49.99427610408100       35.77815704065539
C           49.20287223842106       48.66051393176984       35.60114721973039
C           49.89154717545382       47.89926541895046       34.67297663179540
C           51.76266517170801       47.99655084667911       31.58479647885295
C           52.84407002965282       47.35599027310240       30.69264361274587
C           52.78313727985290       47.94632392448059       29.30493127597200
C           51.67644826602729       47.77453951254844       28.48226788175146
C           51.64851168699022       48.31240552309531       27.20876605563303
C           52.72576988104944       49.03837354261893       26.73131941036402
C           53.82690738306167       49.23403956481767       27.54593497243956
C           53.84906660801781       48.69592398351094       28.82031862808494
C           52.72733154535977       45.82551186906670       30.67172107678645
C           53.91389498947923       45.10606688556999       30.00807876755936
C           53.65049974094465       43.61925685008002       29.97544840533558
C           53.57148998858949       42.89403682417872       31.16058614573834
C           53.37138340728735       41.52682982491505       31.14847950898111