      -----------------------------------------------------------      
     |                   =====================                   |     
     |                           x T B                           |     
     |                   =====================                   |     
     |                         S. Grimme                         |     
     |          Mulliken Center for Theoretical Chemistry        |     
     |                    University of Bonn                     |     
      -----------------------------------------------------------      

   * xtb version 6.6.1 (8d0f1dd) compiled by 'stahn@M-Bot' on 2023-08-01

   xtb is free software: you can redistribute it and/or modify it under
   the terms of the GNU Lesser General Public License as published by
   the Free Software Foundation, either version 3 of the License, or
   (at your option) any later version.
   
   xtb is distributed in the hope that it will be useful,
   but WITHOUT ANY WARRANTY; without even the implied warranty of
   MERCHANTABILITY or FITNESS FOR A PARTICULAR PURPOSE.  See the
   GNU Lesser General Public License for more details.
   
   Cite this work as:
   * C. Bannwarth, E. Caldeweyher, S. Ehlert, A. Hansen, P. Pracht,
     J. Seibert, S. Spicher, S. Grimme, WIREs Comput. Mol. Sci., 2020, 11,
     e01493. DOI: 10.1002/wcms.1493
   
   for GFN2-xTB:
   * C. Bannwarth, S. Ehlert and S. Grimme., J. Chem. Theory Comput., 2019,
     15, 1652-1671. DOI: 10.1021/acs.jctc.8b01176
   for GFN1-xTB:
   * S. Grimme, C. Bannwarth, P. Shushkov, J. Chem. Theory Comput., 2017,
     13, 1989-2009. DOI: 10.1021/acs.jctc.7b00118
   for GFN0-xTB:
   * P. Pracht, E. Caldeweyher, S. Ehlert, S. Grimme, ChemRxiv, 2019, preprint.
     DOI: 10.26434/chemrxiv.8326202.v1
   for GFN-FF:
   * S. Spicher and S. Grimme, Angew. Chem. Int. Ed., 2020, 59, 15665-15673.
     DOI: 10.1002/anie.202004239
   
   for ALPB and GBSA implicit solvation:
   * S. Ehlert, M. Stahn, S. Spicher, S. Grimme, J. Chem. Theory Comput.,
     2021, 17, 4250-4261. DOI: 10.1021/acs.jctc.1c00471
   
   for DFT-D4:
   * E. Caldeweyher, C. Bannwarth and S. Grimme, J. Chem. Phys., 2017,
     147, 034112. DOI: 10.1063/1.4993215
   * E. Caldeweyher, S. Ehlert, A. Hansen, H. Neugebauer, S. Spicher,
     C. Bannwarth and S. Grimme, J. Chem. Phys., 2019, 150, 154122.
     DOI: 10.1063/1.5090222
   * E. Caldeweyher, J.-M. Mewes, S. Ehlert and S. Grimme, Phys. Chem. Chem. Phys.
     2020, 22, 8499-8512. DOI: 10.1039/D0CP00502A
   
   for sTDA-xTB:
   * S. Grimme and C. Bannwarth, J. Chem. Phys., 2016, 145, 054103.
     DOI: 10.1063/1.4959605
   
   in the mass-spec context:
   * V. Asgeirsson, C. Bauer and S. Grimme, Chem. Sci., 2017, 8, 4879.
     DOI: 10.1039/c7sc00601b
   * J. Koopman and S. Grimme, ACS Omega 2019, 4, 12, 15120-15133.
     DOI: 10.1021/acsomega.9b02011
   
   for metadynamics refer to:
   * S. Grimme, J. Chem. Theory Comput., 2019, 155, 2847-2862
     DOI: 10.1021/acs.jctc.9b00143
   
   for SPH calculations refer to:
   * S. Spicher and S. Grimme, J. Chem. Theory Comput., 2021, 17, 1701-1714
     DOI: 10.1021/acs.jctc.0c01306
   
   with help from (in alphabetical order)
   P. Atkinson, C. Bannwarth, F. Bohle, G. Brandenburg, E. Caldeweyher
   M. Checinski, S. Dohm, S. Ehlert, S. Ehrlich, I. Gerasimov, C. Hölzer
   A. Katbashev, J. Koopman, C. Lavigne, S. Lehtola, F. März, M. Müller,
   F. Musil, H. Neugebauer, J. Pisarek, C. Plett, P. Pracht, F. Pultar,
   J. Seibert, P. Shushkov, S. Spicher, M. Stahn, M. Steiner, T. Strunk,
   J. Stückrath, T. Rose, and J. Unsleber
   
 * started run on 2024/10/04 at 19:47:17.529     

           -------------------------------------------------
          |                Calculation Setup                |
           -------------------------------------------------

          program call               : /home/abt-grimme/AK-bin/xtb input.xyz --input input.inp --opt
          hostname                   : boar081.thch.uni-bonn.de
          coordinate file            : input.xyz
          omp threads                :                     8

   ID    Z sym.   atoms
    1    6 C      1-146, 294-300, 306, 309-314, 323-468, 616-622, 628,
                  631-636, 645-790, 938-944, 950, 953-958, 967-1112,
                  1260-1266, 1272, 1275-1280, 1289-1434, 1582-1588, 1594,
                  1597-1602, 1611-1756, 1904-1910, 1916, 1919-1924,
                  1933-2078, 2226-2232, 2238, 2241-2246, 2255-2400,
                  2548-2554, 2560, 2563-2568, 2577-2722, 2870-2876, 2882,
                  2885-2890, 2899-3044, 3192-3198, 3204, 3207-3212,
                  3221-3366, 3514-3520, 3526, 3529-3534, 3543-3688,
                  3836-3842, 3848, 3851-3856
    2    1 H      147-293, 301-305, 307, 308, 315-322, 469-615, 623-627, 629,
                  630, 637-644, 791-937, 945-949, 951, 952, 959-966,
                  1113-1259, 1267-1271, 1273, 1274, 1281-1288, 1435-1581,
                  1589-1593, 1595, 1596, 1603-1610, 1757-1903, 1911-1915,
                  1917, 1918, 1925-1932, 2079-2225, 2233-2237, 2239, 2240,
                  2247-2254, 2401-2547, 2555-2559, 2561, 2562, 2569-2576,
                  2723-2869, 2877-2881, 2883, 2884, 2891-2898, 3045-3191,
                  3199-3203, 3205, 3206, 3213-3220, 3367-3513, 3521-3525,
                  3527, 3528, 3535-3542, 3689-3835, 3843-3847, 3849, 3850,
                  3857-3864

molecular fragmentation (1/2 indicates fragments):
111111111111111111111111111111111111111111111111111111111111111111111111
111111111111111111111111111111111111111111111111111111111111111111111111
111111111111111111111111111111111111111111111111111111111111111111111111
111111111111111111111111111111111111111111111111111111111111111111111111
111111111111111111111111111111111122222222222222222222222222222222222222
222222222222222222222222222222222222222222222222222222222222222222222222
222222222222222222222222222222222222222222222222222222222222222222222222
222222222222222222222222222222222222222222222222222222222222222222222222
222222222222222222222222222222222222222222222222222222222222222222222222
222222222222222222222222222222222222222222222222222222222222222222222222
222222222222222222222222222222222222222222222222222222222222222222222222
222222222222222222222222222222222222222222222222222222222222222222222222
222222222222222222222222222222222222222222222222222222222222222222222222
222222222222222222222222222222222222222222222222222222222222222222222222
222222222222222222222222222222222222222222222222222222222222222222222222
222222222222222222222222222222222222222222222222222222222222222222222222
222222222222222222222222222222222222222222222222222222222222222222222222
222222222222222222222222222222222222222222222222222222222222222222222222
222222222222222222222222222222222222222222222222222222222222222222222222
222222222222222222222222222222222222222222222222222222222222222222222222
222222222222222222222222222222222222222222222222222222222222222222222222
222222222222222222222222222222222222222222222222222222222222222222222222
222222222222222222222222222222222222222222222222222222222222222222222222
222222222222222222222222222222222222222222222222222222222222222222222222
222222222222222222222222222222222222222222222222222222222222222222222222
222222222222222222222222222222222222222222222222222222222222222222222222
222222222222222222222222222222222222222222222222222222222222222222222222
222222222222222222222222222222222222222222222222222222222222222222222222
222222222222222222222222222222222222222222222222222222222222222222222222
222222222222222222222222222222222222222222222222222222222222222222222222
222222222222222222222222222222222222222222222222222222222222222222222222
222222222222222222222222222222222222222222222222222222222222222222222222
222222222222222222222222222222222222222222222222222222222222222222222222
222222222222222222222222222222222222222222222222222222222222222222222222
222222222222222222222222222222222222222222222222222222222222222222222222
222222222222222222222222222222222222222222222222222222222222222222222222
222222222222222222222222222222222222222222222222222222222222222222222222
222222222222222222222222222222222222222222222222222222222222222222222222
222222222222222222222222222222222222222222222222222222222222222222222222
222222222222222222222222222222222222222222222222222222222222222222222222
222222222222222222222222222222222222222222222222222222222222222222222222
222222222222222222222222222222222222222222222222222222222222222222222222
222222222222222222222222222222222222222222222222222222222222222222222222
222222222222222222222222222222222222222222222222222222222222222222222222
222222222222222222222222222222222222222222222222222222222222222222222222
222222222222222222222222222222222222222222222222222222222222222222222222
222222222222222222222222222222222222222222222222222222222222222222222222
222222222222222222222222222222222222222222222222222222222222222222222222
222222222222222222222222222222222222222222222222222222222222222222222222
222222222222222222222222222222222222222222222222222222222222222222222222
222222222222222222222222222222222222222222222222222222222222222222222222
222222222222222222222222222222222222222222222222222222222222222222222222
222222222222222222222222222222222222222222222222222222222222222222222222
222222222222222222222222222222222222222222222222
# atoms in fragment 1/2:   322  3542
 fragment masses (1/2) :     2085.00    22935.05
CMA distance (Bohr)    :  41.249
constraining FC (au)   :  0.0500

           -------------------------------------------------
          |                 G F N 2 - x T B                 |
           -------------------------------------------------

        Reference                      10.1021/acs.jctc.8b01176
      * Hamiltonian:
        H0-scaling (s, p, d)           1.850000    2.230000    2.230000
        zeta-weighting                 0.500000
      * Dispersion:
        s8                             2.700000
        a1                             0.520000
        a2                             5.000000
        s9                             5.000000
      * Repulsion:
        kExp                           1.500000    1.000000
        rExp                           1.000000
      * Coulomb:
        alpha                          2.000000
        third order                    shell-resolved
        anisotropic                    true
        a3                             3.000000
        a5                             4.000000
        cn-shift                       1.200000
        cn-exp                         4.000000
        max-rad                        5.000000


          ...................................................
          :                      SETUP                      :
          :.................................................:
          :  # basis functions                9624          :
          :  # atomic orbitals                9624          :
          :  # shells                         5784          :
          :  # electrons                      9624          :
          :  max. iterations                   250          :
          :  Hamiltonian                  GFN2-xTB          :
          :  restarted?                      false          :
          :  GBSA solvation                  false          :
          :  PC potential                    false          :
          :  electronic temp.          300.0000000     K    :
          :  accuracy                    1.0000000          :
          :  -> integral cutoff          0.2500000E+02      :
          :  -> integral neglect         0.1000000E-07      :
          :  -> SCF convergence          0.1000000E-05 Eh   :
          :  -> wf. convergence          0.1000000E-03 e    :
          :  Broyden damping             0.4000000          :
          ...................................................

 iter      E             dE          RMSdq      gap      omega  full diag
   1  -5195.6717227 -0.519567E+04  0.367E+00    4.30       0.0  T
   2  -5198.2709427 -0.259922E+01  0.217E+00    4.27       1.0  T
   3  -5198.2039001  0.670425E-01  0.495E-01    4.07       1.0  T
   4  -5198.4033312 -0.199431E+00  0.242E-01    3.96       1.0  T
   5  -5198.5566441 -0.153313E+00  0.460E-02    4.05       1.0  T
   6  -5198.5585172 -0.187314E-02  0.285E-02    4.04       1.0  T
   7  -5198.5597425 -0.122526E-02  0.111E-02    4.05       1.0  T
   8  -5198.5600576 -0.315063E-03  0.294E-03    4.05       1.0  T
   9  -5198.5600754 -0.178451E-04  0.127E-03    4.05       1.3  T
  10  -5198.5600772 -0.179212E-05  0.550E-04    4.05       2.9  T
  11  -5198.5600775 -0.320721E-06  0.294E-04    4.05       5.5  T
  12  -5198.5600777 -0.185261E-06  0.100E-04    4.05      16.0  T

   *** convergence criteria satisfied after 12 iterations ***

         #    Occupation            Energy/Eh            Energy/eV
      -------------------------------------------------------------
         1        2.0000           -0.6516616             -17.7326
       ...           ...                  ...                  ...
      4806        2.0000           -0.3815219             -10.3817
      4807        2.0000           -0.3813490             -10.3770
      4808        2.0000           -0.3805499             -10.3553
      4809        2.0000           -0.3804476             -10.3525
      4810        2.0000           -0.3800310             -10.3412
      4811        2.0000           -0.3788576             -10.3092
      4812        2.0000           -0.3773465             -10.2681 (HOMO)
      4813                         -0.2286193              -6.2210 (LUMO)
      4814                         -0.2282873              -6.2120
      4815                         -0.2278538              -6.2002
      4816                         -0.2275919              -6.1931
      4817                         -0.2273633              -6.1869
       ...                                ...                  ...
      9624                          0.6817621              18.5517
      -------------------------------------------------------------
                  HL-Gap            0.1487272 Eh            4.0471 eV
             Fermi-level           -0.3029829 Eh           -8.2446 eV

 SCC (total)                   0 d,  0 h, 47 min, 51.343 sec
 SCC setup                      ...        0 min,  0.736 sec (  0.026%)
 Dispersion                     ...        0 min,  6.955 sec (  0.242%)
 classical contributions        ...        0 min,  0.169 sec (  0.006%)
 integral evaluation            ...        0 min, 13.690 sec (  0.477%)
 iterations                     ...       41 min, 49.772 sec ( 87.408%)
 molecular gradient             ...        5 min, 13.010 sec ( 10.901%)
 printout                       ...        0 min, 27.010 sec (  0.941%)

         :::::::::::::::::::::::::::::::::::::::::::::::::::::
         ::                     SUMMARY                     ::
         :::::::::::::::::::::::::::::::::::::::::::::::::::::
         :: total energy           -5104.068701227945 Eh    ::
         :: gradient norm              0.021422811424 Eh/a0 ::
         :: HOMO-LUMO gap              4.047072517614 eV    ::
         ::.................................................::
         :: SCC energy             -5198.560077707330 Eh    ::
         :: -> isotropic ES            0.264696203215 Eh    ::
         :: -> anisotropic ES          0.782629586737 Eh    ::
         :: -> anisotropic XC          3.252894353426 Eh    ::
         :: -> dispersion             -6.984040580580 Eh    ::
         :: repulsion energy          93.359627581554 Eh    ::
         :: add. restraining           0.000000000000 Eh    ::
         :: total charge              -0.000000000031 e     ::
         :::::::::::::::::::::::::::::::::::::::::::::::::::::

      ----------------------------------------------------------- 
     |              Fast Inertial Relaxation Engine              |
      ----------------------------------------------------------- 

          ...................................................
          :                      SETUP                      :
          :.................................................:
          :   energy convergence        0.5000000E-05 Eh    :
          :   grad. convergence         0.1000000E-02 Eh/a0 :
          :   optimization log               true           :
          :   writing optlog all                1     steps :
          :   Hessian reset                    20     steps :
          :   time step scaling                 5     steps :
          :   maximium step len.        1.0000000     a0    :
          :   initial time step         0.2500000     fs    :
          :   maximum time step         1.2500000     fs    :
          :   power reset thr           0.0000000     au    :
          :   alpha parameter           0.1000000           :
          :   BFGS update                   false           :
          :   preconditioning               false           :
          ...................................................

........................................................................
.............................. CYCLE    1 ..............................
........................................................................

 iter      E             dE          RMSdq      gap      omega  full diag
   1  -5198.5612469 -0.519856E+04  0.298E-04    4.05       0.0  T
   2  -5198.5612470 -0.142581E-07  0.184E-04    4.05       8.7  T
   3  -5198.5612469  0.286536E-07  0.822E-05    4.05      19.6  T
     SCC iter.                  ...       10 min, 29.756 sec
     gradient                   ...        5 min, 12.578 sec
 * total energy  : -5104.0687533 Eh     change    :  -0.5207307E-04 Eh
   gradient norm :     0.0200737 Eh/a0  converged?    E=F G=F D=F
   time step     :     0.2500000 fs     power     :   0.2672824E-08
   step length   :     0.0025107 a0     speed     :   0.2429245E-03

........................................................................
.............................. CYCLE    2 ..............................
........................................................................

 iter      E             dE          RMSdq      gap      omega  full diag
   1  -5198.5629778 -0.519856E+04  0.436E-04    4.05       0.0  T
   2  -5198.5629778 -0.275486E-07  0.268E-04    4.05       6.0  T
   3  -5198.5629778  0.414784E-07  0.101E-04    4.05      16.0  T
     SCC iter.                  ...       10 min, 27.325 sec
     gradient                   ...        5 min, 13.981 sec
 * total energy  : -5104.0688236 Eh     change    :  -0.7029906E-04 Eh
   gradient norm :     0.0181685 Eh/a0  converged?    E=F G=F D=F
   time step     :     0.2500000 fs     power     :   0.3539238E-08
   step length   :     0.0036863 a0     speed     :   0.3566659E-03

........................................................................
.............................. CYCLE    3 ..............................
........................................................................

 iter      E             dE          RMSdq      gap      omega  full diag
   1  -5198.5652527 -0.519857E+04  0.561E-04    4.05       0.0  T
   2  -5198.5652528 -0.425789E-07  0.344E-04    4.05       4.7  T
   3  -5198.5652527  0.633190E-07  0.122E-04    4.05      13.2  T
     SCC iter.                  ...       10 min, 26.837 sec
     gradient                   ...        5 min, 13.489 sec
 * total energy  : -5104.0689038 Eh     change    :  -0.8017453E-04 Eh
   gradient norm :     0.0158985 Eh/a0  converged?    E=F G=F D=F
   time step     :     0.2500000 fs     power     :   0.3947191E-08
   step length   :     0.0047465 a0     speed     :   0.4592516E-03

........................................................................
.............................. CYCLE    4 ..............................
........................................................................

 iter      E             dE          RMSdq      gap      omega  full diag
   1  -5198.5680529 -0.519857E+04  0.669E-04    4.05       0.0  T
   2  -5198.5680530 -0.565769E-07  0.411E-04    4.05       3.9  T
   3  -5198.5680529  0.957743E-07  0.145E-04    4.05      11.1  T
     SCC iter.                  ...       10 min, 25.842 sec
     gradient                   ...        5 min, 11.816 sec
 * total energy  : -5104.0689850 Eh     change    :  -0.8127300E-04 Eh
   gradient norm :     0.0135201 Eh/a0  converged?    E=F G=F D=F
   time step     :     0.2500000 fs     power     :   0.3901201E-08
   step length   :     0.0056628 a0     speed     :   0.5479025E-03

........................................................................
.............................. CYCLE    5 ..............................
........................................................................

 iter      E             dE          RMSdq      gap      omega  full diag
   1  -5198.5713561 -0.519857E+04  0.756E-04    4.05       0.0  T
   2  -5198.5713561 -0.667396E-07  0.467E-04    4.05       3.4  T
   3  -5198.5713560  0.139346E-06  0.168E-04    4.05       9.6  T
     SCC iter.                  ...       10 min, 28.434 sec
     gradient                   ...        5 min, 17.719 sec
 * total energy  : -5104.0690601 Eh     change    :  -0.7507884E-04 Eh
   gradient norm :     0.0113559 Eh/a0  converged?    E=F G=F D=F
   time step     :     0.2500000 fs     power     :   0.3489306E-08
   step length   :     0.0064120 a0     speed     :   0.6203940E-03

........................................................................
.............................. CYCLE    6 ..............................
........................................................................

 iter      E             dE          RMSdq      gap      omega  full diag
   1  -5198.5755479 -0.519858E+04  0.908E-04    4.05       0.0  T
   2  -5198.5755480 -0.887330E-07  0.565E-04    4.05       2.8  T
   3  -5198.5755477  0.261048E-06  0.221E-04    4.05       7.3  T
     SCC iter.                  ...       10 min, 26.866 sec
     gradient                   ...        5 min, 13.026 sec
 * total energy  : -5104.0691298 Eh     change    :  -0.6969495E-04 Eh
   gradient norm :     0.0096028 Eh/a0  converged?    E=F G=F D=F
   time step     :     0.2750000 fs     power     :   0.2783706E-08
   step length   :     0.0077389 a0     speed     :   0.6807100E-03

........................................................................
.............................. CYCLE    7 ..............................
........................................................................

 iter      E             dE          RMSdq      gap      omega  full diag
   1  -5198.5807110 -0.519858E+04  0.105E-03    4.05       0.0  T
   2  -5198.5807111 -0.106477E-06  0.661E-04    4.05       2.4  T
   3  -5198.5807106  0.444731E-06  0.281E-04    4.05       5.7  T
     SCC iter.                  ...       10 min, 28.113 sec
     gradient                   ...        5 min, 12.934 sec
 * total energy  : -5104.0691882 Eh     change    :  -0.5837418E-04 Eh
   gradient norm :     0.0086590 Eh/a0  converged?    E=F G=F D=F
   time step     :     0.3025000 fs     power     :   0.1947634E-08
   step length   :     0.0090252 a0     speed     :   0.7216817E-03

........................................................................
.............................. CYCLE    8 ..............................
........................................................................

 iter      E             dE          RMSdq      gap      omega  full diag
   1  -5198.5867812 -0.519859E+04  0.117E-03    4.05       0.0  T
   2  -5198.5867814 -0.120767E-06  0.743E-04    4.05       2.2  T
   3  -5198.5867807  0.657635E-06  0.340E-04    4.05       4.7  T
     SCC iter.                  ...       10 min, 24.169 sec
     gradient                   ...        5 min, 11.715 sec
 * total energy  : -5104.0692328 Eh     change    :  -0.4459639E-04 Eh
   gradient norm :     0.0083856 Eh/a0  converged?    E=F G=F D=F
   time step     :     0.3327500 fs     power     :   0.1186277E-08
   step length   :     0.0101359 a0     speed     :   0.7368194E-03

........................................................................
.............................. CYCLE    9 ..............................
........................................................................

 iter      E             dE          RMSdq      gap      omega  full diag
   1  -5198.5934806 -0.519859E+04  0.125E-03    4.05       0.0  T
   2  -5198.5934807 -0.137047E-06  0.799E-04    4.05       2.0  T
   3  -5198.5934800  0.780687E-06  0.380E-04    4.05       4.2  T
     SCC iter.                  ...       10 min, 25.537 sec
     gradient                   ...        5 min, 12.874 sec
 * total energy  : -5104.0692644 Eh     change    :  -0.3158318E-04 Eh
   gradient norm :     0.0082152 Eh/a0  converged?    E=F G=F D=F
   time step     :     0.3660250 fs     power     :   0.6004201E-09
   step length   :     0.0109984 a0     speed     :   0.7268300E-03

........................................................................
.............................. CYCLE   10 ..............................
........................................................................

 iter      E             dE          RMSdq      gap      omega  full diag
   1  -5198.6003208 -0.519860E+04  0.131E-03    4.05       0.0  T
   2  -5198.6003209 -0.155535E-06  0.824E-04    4.05       2.0  T
   3  -5198.6003202  0.752666E-06  0.389E-04    4.05       4.1  T
     SCC iter.                  ...       10 min, 27.994 sec
     gradient                   ...        5 min, 11.232 sec
 * total energy  : -5104.0692844 Eh     change    :  -0.2001635E-04 Eh
   gradient norm :     0.0079327 Eh/a0  converged?    E=F G=F D=F
   time step     :     0.4026275 fs     power     :   0.1441841E-09
   step length   :     0.0116222 a0     speed     :   0.6982299E-03

........................................................................
.............................. CYCLE   11 ..............................
........................................................................

 iter      E             dE          RMSdq      gap      omega  full diag
   1  -5198.6066036 -0.519861E+04  0.132E-03    4.05       0.0  T
   2  -5198.6066038 -0.163116E-06  0.813E-04    4.05       2.0  T
   3  -5198.6066032  0.581895E-06  0.355E-04    4.05       4.5  T
     SCC iter.                  ...       10 min, 25.747 sec
     gradient                   ...        5 min, 17.266 sec
 * total energy  : -5104.0692935 Eh     change    :  -0.9093981E-05 Eh
   gradient norm :     0.0079654 Eh/a0  converged?    E=F G=F D=F
   time step     :     0.4428903 fs     power     :  -0.2181586E-09
   step length   :     0.0119968 a0     speed     :   0.6552150E-03

........................................................................
.............................. CYCLE   12 ..............................
........................................................................
 * reset velocities

 iter      E             dE          RMSdq      gap      omega  full diag
   1  -5198.6064392 -0.519861E+04  0.589E-05    4.05       0.0  T
   2  -5198.6064392 -0.510136E-08  0.524E-05    4.05      30.7  T
   3  -5198.6064392 -0.117443E-07  0.187E-05    4.05      86.2  T
     SCC iter.                  ...       10 min, 25.963 sec
     gradient                   ...        5 min, 17.143 sec
 * total energy  : -5104.0692971 Eh     change    :  -0.3599067E-05 Eh
   gradient norm :     0.0078258 Eh/a0  converged?    E=T G=F D=T
   time step     :     0.2214451 fs     power     :   0.1717202E-09
   step length   :     0.0003662 a0     speed     :   0.4000343E-04

........................................................................
.............................. CYCLE   13 ..............................
........................................................................

 iter      E             dE          RMSdq      gap      omega  full diag
   1  -5198.6061024 -0.519861E+04  0.708E-05    4.05       0.0  T
   2  -5198.6061024 -0.113232E-08  0.493E-05    4.05      32.6  T
   3  -5198.6061024  0.200180E-08  0.215E-05    4.05      74.7  T
     SCC iter.                  ...       10 min, 25.516 sec
     gradient                   ...        5 min, 12.367 sec
 * total energy  : -5104.0693026 Eh     change    :  -0.5561121E-05 Eh
   gradient norm :     0.0075129 Eh/a0  converged?    E=F G=F D=T
   time step     :     0.2214451 fs     power     :   0.3267247E-09
   step length   :     0.0007260 a0     speed     :   0.7930387E-04

........................................................................
.............................. CYCLE   14 ..............................
........................................................................

 iter      E             dE          RMSdq      gap      omega  full diag
   1  -5198.6055971 -0.519861E+04  0.101E-04    4.05       0.0  T
   2  -5198.6055971 -0.246746E-08  0.712E-05    4.05      22.6  T
   3  -5198.6055971  0.420005E-08  0.309E-05    4.05      52.0  T
     SCC iter.                  ...       10 min, 24.135 sec
     gradient                   ...        5 min, 12.063 sec
 * total energy  : -5104.0693104 Eh     change    :  -0.7788080E-05 Eh
   gradient norm :     0.0070600 Eh/a0  converged?    E=F G=F D=F
   time step     :     0.2214451 fs     power     :   0.4526348E-09
   step length   :     0.0010713 a0     speed     :   0.1170246E-03

........................................................................
.............................. CYCLE   15 ..............................
........................................................................

 iter      E             dE          RMSdq      gap      omega  full diag
   1  -5198.6049291 -0.519860E+04  0.132E-04    4.05       0.0  T
   2  -5198.6049291 -0.380351E-08  0.922E-05    4.05      17.4  T
   3  -5198.6049291  0.689488E-08  0.398E-05    4.05      40.5  T
     SCC iter.                  ...       10 min, 31.794 sec
     gradient                   ...        5 min, 10.789 sec
 * total energy  : -5104.0693198 Eh     change    :  -0.9402169E-05 Eh
   gradient norm :     0.0064888 Eh/a0  converged?    E=F G=F D=F
   time step     :     0.2214451 fs     power     :   0.5405815E-09
   step length   :     0.0013955 a0     speed     :   0.1524381E-03

........................................................................
.............................. CYCLE   16 ..............................
........................................................................

 iter      E             dE          RMSdq      gap      omega  full diag
   1  -5198.6041062 -0.519860E+04  0.159E-04    4.05       0.0  T
   2  -5198.6041062 -0.540876E-08  0.111E-04    4.05      14.5  T
   3  -5198.6041062  0.105665E-07  0.478E-05    4.05      33.7  T
     SCC iter.                  ...       10 min, 30.486 sec
     gradient                   ...        5 min, 11.295 sec
 * total energy  : -5104.0693302 Eh     change    :  -0.1036455E-04 Eh
   gradient norm :     0.0058293 Eh/a0  converged?    E=F G=F D=F
   time step     :     0.2214451 fs     power     :   0.5857547E-09
   step length   :     0.0016927 a0     speed     :   0.1848924E-03

........................................................................
.............................. CYCLE   17 ..............................
........................................................................

 iter      E             dE          RMSdq      gap      omega  full diag
   1  -5198.6031377 -0.519860E+04  0.182E-04    4.05       0.0  T
   2  -5198.6031377 -0.704040E-08  0.127E-04    4.05      12.6  T
   3  -5198.6031377  0.146802E-07  0.548E-05    4.05      29.3  T
     SCC iter.                  ...       10 min, 26.987 sec
     gradient                   ...        5 min, 13.445 sec
 * total energy  : -5104.0693408 Eh     change    :  -0.1056108E-04 Eh
   gradient norm :     0.0051213 Eh/a0  converged?    E=F G=F D=F
   time step     :     0.2214451 fs     power     :   0.5879918E-09
   step length   :     0.0019575 a0     speed     :   0.2138225E-03

........................................................................
.............................. CYCLE   18 ..............................
........................................................................

 iter      E             dE          RMSdq      gap      omega  full diag
   1  -5198.6019105 -0.519860E+04  0.223E-04    4.05       0.0  T
   2  -5198.6019105 -0.101772E-07  0.156E-04    4.05      10.3  T
   3  -5198.6019105  0.233331E-07  0.679E-05    4.05      23.7  T
     SCC iter.                  ...       10 min, 23.933 sec
     gradient                   ...        5 min, 12.193 sec
 * total energy  : -5104.0693519 Eh     change    :  -0.1116220E-04 Eh
   gradient norm :     0.0043447 Eh/a0  converged?    E=F G=F D=F
   time step     :     0.2435896 fs     power     :   0.5459886E-09
   step length   :     0.0024297 a0     speed     :   0.2412763E-03

........................................................................
.............................. CYCLE   19 ..............................
........................................................................

 iter      E             dE          RMSdq      gap      omega  full diag
   1  -5198.6003888 -0.519860E+04  0.264E-04    4.05       0.0  T
   2  -5198.6003888 -0.134933E-07  0.186E-04    4.05       8.6  T
   3  -5198.6003888  0.351856E-07  0.814E-05    4.05      19.8  T
     SCC iter.                  ...       10 min, 26.705 sec
     gradient                   ...        5 min, 12.429 sec
 * total energy  : -5104.0693627 Eh     change    :  -0.1075456E-04 Eh
   gradient norm :     0.0036000 Eh/a0  converged?    E=F G=F D=F
   time step     :     0.2679486 fs     power     :   0.4590710E-09
   step length   :     0.0029422 a0     speed     :   0.2656054E-03

........................................................................
.............................. CYCLE   20 ..............................
........................................................................

 iter      E             dE          RMSdq      gap      omega  full diag
   1  -5198.5985511 -0.519860E+04  0.302E-04    4.05       0.0  T
   2  -5198.5985511 -0.160635E-07  0.213E-04    4.05       7.6  T
   3  -5198.5985510  0.509090E-07  0.944E-05    4.05      17.0  T
     SCC iter.                  ...       10 min, 34.645 sec
     gradient                   ...        5 min, 20.943 sec
 * total energy  : -5104.0693721 Eh     change    :  -0.9386148E-05 Eh
   gradient norm :     0.0030780 Eh/a0  converged?    E=F G=F D=F
   time step     :     0.2947435 fs     power     :   0.3395348E-09
   step length   :     0.0034661 a0     speed     :   0.2844512E-03
 * RMSD in coord.:     0.0011798 a0     energy gain  -0.6708365E-03 Eh

........................................................................
.............................. CYCLE   21 ..............................
........................................................................

 iter      E             dE          RMSdq      gap      omega  full diag
   1  -5198.5969328 -0.519860E+04  0.253E-04    4.05       0.0  T
   2  -5198.5969328 -0.937507E-08  0.176E-04    4.05       9.1  T
   3  -5198.5969327  0.378313E-07  0.784E-05    4.05      20.5  T
     SCC iter.                  ...       10 min, 28.226 sec
     gradient                   ...        5 min, 14.741 sec
 * total energy  : -5104.0693781 Eh     change    :  -0.6007022E-05 Eh
   gradient norm :     0.0029530 Eh/a0  converged?    E=F G=F D=F
   time step     :     0.2500000 fs     power     :   0.2506832E-09
   step length   :     0.0030001 a0     speed     :   0.2902722E-03

........................................................................
.............................. CYCLE   22 ..............................
........................................................................

 iter      E             dE          RMSdq      gap      omega  full diag
   1  -5198.5953281 -0.519860E+04  0.239E-04    4.05       0.0  T
   2  -5198.5953281 -0.703585E-08  0.165E-04    4.05       9.8  T
   3  -5198.5953280  0.365726E-07  0.756E-05    4.05      21.3  T
     SCC iter.                  ...       10 min, 32.203 sec
     gradient                   ...        5 min, 18.010 sec
 * total energy  : -5104.0693827 Eh     change    :  -0.4661621E-05 Eh
   gradient norm :     0.0030327 Eh/a0  converged?    E=T G=F D=F
   time step     :     0.2500000 fs     power     :   0.1925487E-09
   step length   :     0.0029792 a0     speed     :   0.2882584E-03

........................................................................
.............................. CYCLE   23 ..............................
........................................................................

 iter      E             dE          RMSdq      gap      omega  full diag
   1  -5198.5938088 -0.519859E+04  0.222E-04    4.05       0.0  T
   2  -5198.5938088 -0.473483E-08  0.150E-04    4.05      10.7  T
   3  -5198.5938087  0.293712E-07  0.678E-05    4.05      23.7  T
     SCC iter.                  ...       10 min, 31.962 sec
     gradient                   ...        5 min, 19.625 sec
 * total energy  : -5104.0693867 Eh     change    :  -0.3943906E-05 Eh
   gradient norm :     0.0031790 Eh/a0  converged?    E=T G=F D=F
   time step     :     0.2500000 fs     power     :   0.1691862E-09
   step length   :     0.0029051 a0     speed     :   0.2810880E-03

........................................................................
.............................. CYCLE   24 ..............................
........................................................................

 iter      E             dE          RMSdq      gap      omega  full diag
   1  -5198.5924305 -0.519859E+04  0.208E-04    4.05       0.0  T
   2  -5198.5924305 -0.306864E-08  0.135E-04    4.05      11.9  T
   3  -5198.5924304  0.175432E-07  0.535E-05    4.05      30.0  T
     SCC iter.                  ...       10 min, 27.902 sec
     gradient                   ...        5 min, 11.920 sec
 * total energy  : -5104.0693905 Eh     change    :  -0.3826135E-05 Eh
   gradient norm :     0.0032957 Eh/a0  converged?    E=T G=F D=F
   time step     :     0.2500000 fs     power     :   0.1740270E-09
   step length   :     0.0028150 a0     speed     :   0.2723650E-03

........................................................................
.............................. CYCLE   25 ..............................
........................................................................

 iter      E             dE          RMSdq      gap      omega  full diag
   1  -5198.5912297 -0.519859E+04  0.199E-04    4.05       0.0  T
   2  -5198.5912297 -0.213549E-08  0.123E-04    4.05      13.1  T
   3  -5198.5912297  0.560885E-08  0.326E-05    4.05      49.4  T
     SCC iter.                  ...       10 min, 30.562 sec
     gradient                   ...        5 min, 12.002 sec
 * total energy  : -5104.0693946 Eh     change    :  -0.4128989E-05 Eh
   gradient norm :     0.0033397 Eh/a0  converged?    E=T G=F D=F
   time step     :     0.2500000 fs     power     :   0.1959879E-09
   step length   :     0.0027375 a0     speed     :   0.2648649E-03

........................................................................
.............................. CYCLE   26 ..............................
........................................................................

 iter      E             dE          RMSdq      gap      omega  full diag
   1  -5198.5901307 -0.519859E+04  0.216E-04    4.05       0.0  T
   2  -5198.5901307 -0.192176E-08  0.129E-04    4.05      12.5  T
   3  -5198.5901307  0.129512E-08  0.219E-05    4.05      73.4  T
     SCC iter.                  ...       10 min, 29.745 sec
     gradient                   ...        5 min, 13.175 sec
 * total energy  : -5104.0693997 Eh     change    :  -0.5060044E-05 Eh
   gradient norm :     0.0032943 Eh/a0  converged?    E=F G=F D=F
   time step     :     0.2750000 fs     power     :   0.2240376E-09
   step length   :     0.0029684 a0     speed     :   0.2611011E-03

........................................................................
.............................. CYCLE   27 ..............................
........................................................................

 iter      E             dE          RMSdq      gap      omega  full diag
   1  -5198.5891866 -0.519859E+04  0.240E-04    4.05       0.0  T
   2  -5198.5891866 -0.237651E-08  0.141E-04    4.05      11.4  T
   3  -5198.5891866  0.304590E-08  0.287E-05    4.05      56.1  T
     SCC iter.                  ...       10 min, 32.939 sec
     gradient                   ...        5 min, 14.663 sec
 * total energy  : -5104.0694058 Eh     change    :  -0.6111567E-05 Eh
   gradient norm :     0.0031543 Eh/a0  converged?    E=F G=F D=F
   time step     :     0.3025000 fs     power     :   0.2493958E-09
   step length   :     0.0032734 a0     speed     :   0.2617521E-03

........................................................................
.............................. CYCLE   28 ..............................
........................................................................

 iter      E             dE          RMSdq      gap      omega  full diag
   1  -5198.5884551 -0.519859E+04  0.273E-04    4.05       0.0  T
   2  -5198.5884551 -0.332784E-08  0.161E-04    4.05      10.0  T
   3  -5198.5884551  0.110340E-07  0.484E-05    4.05      33.2  T
     SCC iter.                  ...       10 min, 23.152 sec
     gradient                   ...        5 min, 11.425 sec
 * total energy  : -5104.0694130 Eh     change    :  -0.7231297E-05 Eh
   gradient norm :     0.0029358 Eh/a0  converged?    E=F G=F D=F
   time step     :     0.3327500 fs     power     :   0.2646326E-09
   step length   :     0.0036667 a0     speed     :   0.2665474E-03

........................................................................
.............................. CYCLE   29 ..............................
........................................................................

 iter      E             dE          RMSdq      gap      omega  full diag
   1  -5198.5879968 -0.519859E+04  0.313E-04    4.05       0.0  T
   2  -5198.5879968 -0.476757E-08  0.187E-04    4.05       8.6  T
   3  -5198.5879968  0.284563E-07  0.750E-05    4.05      21.5  T
     SCC iter.                  ...       10 min, 29.738 sec
     gradient                   ...        5 min, 18.656 sec
 * total energy  : -5104.0694210 Eh     change    :  -0.7990933E-05 Eh
   gradient norm :     0.0026770 Eh/a0  converged?    E=F G=F D=F
   time step     :     0.3660250 fs     power     :   0.2649535E-09
   step length   :     0.0041540 a0     speed     :   0.2745155E-03

........................................................................
.............................. CYCLE   30 ..............................
........................................................................

 iter      E             dE          RMSdq      gap      omega  full diag
   1  -5198.5878685 -0.519859E+04  0.354E-04    4.05       0.0  T
   2  -5198.5878685 -0.640739E-08  0.216E-04    4.05       7.5  T
   3  -5198.5878684  0.499676E-07  0.983E-05    4.05      16.4  T
     SCC iter.                  ...       10 min, 26.657 sec
     gradient                   ...        5 min, 10.795 sec
 * total energy  : -5104.0694296 Eh     change    :  -0.8540636E-05 Eh
   gradient norm :     0.0024377 Eh/a0  converged?    E=F G=F D=F
   time step     :     0.4026275 fs     power     :   0.2500719E-09
   step length   :     0.0047295 a0     speed     :   0.2841347E-03

........................................................................
.............................. CYCLE   31 ..............................
........................................................................

 iter      E             dE          RMSdq      gap      omega  full diag
   1  -5198.5881066 -0.519859E+04  0.392E-04    4.05       0.0  T
   2  -5198.5881066 -0.765522E-08  0.240E-04    4.05       6.7  T
   3  -5198.5881066  0.665450E-07  0.112E-04    4.05      14.3  T
     SCC iter.                  ...       10 min, 30.231 sec
     gradient                   ...        5 min, 12.027 sec
 * total energy  : -5104.0694382 Eh     change    :  -0.8666564E-05 Eh
   gradient norm :     0.0022774 Eh/a0  converged?    E=F G=F D=F
   time step     :     0.4428903 fs     power     :   0.2254916E-09
   step length   :     0.0053754 a0     speed     :   0.2935843E-03

........................................................................
.............................. CYCLE   32 ..............................
........................................................................

 iter      E             dE          RMSdq      gap      omega  full diag
   1  -5198.5887052 -0.519859E+04  0.418E-04    4.05       0.0  T
   2  -5198.5887052 -0.821274E-08  0.255E-04    4.05       6.3  T
   3  -5198.5887052  0.678001E-07  0.112E-04    4.05      14.3  T
     SCC iter.                  ...       10 min, 29.048 sec
     gradient                   ...        5 min, 11.570 sec
 * total energy  : -5104.0694468 Eh     change    :  -0.8606790E-05 Eh
   gradient norm :     0.0022139 Eh/a0  converged?    E=F G=F D=F
   time step     :     0.4871793 fs     power     :   0.2004330E-09
   step length   :     0.0060683 a0     speed     :   0.3012981E-03

........................................................................
.............................. CYCLE   33 ..............................
........................................................................

 iter      E             dE          RMSdq      gap      omega  full diag
   1  -5198.5896009 -0.519859E+04  0.429E-04    4.05       0.0  T
   2  -5198.5896009 -0.868749E-08  0.258E-04    4.05       6.2  T
   3  -5198.5896008  0.437585E-07  0.903E-05    4.05      17.8  T
     SCC iter.                  ...       10 min, 27.528 sec
     gradient                   ...        5 min, 12.611 sec
 * total energy  : -5104.0694556 Eh     change    :  -0.8737412E-05 Eh
   gradient norm :     0.0022274 Eh/a0  converged?    E=F G=F D=F
   time step     :     0.5358972 fs     power     :   0.1835831E-09
   step length   :     0.0067972 a0     speed     :   0.3068044E-03

........................................................................
.............................. CYCLE   34 ..............................
........................................................................

 iter      E             dE          RMSdq      gap      omega  full diag
   1  -5198.5906772 -0.519859E+04  0.424E-04    4.05       0.0  T
   2  -5198.5906772 -0.866203E-08  0.253E-04    4.05       6.4  T
   3  -5198.5906772  0.102682E-07  0.510E-05    4.05      31.6  T
     SCC iter.                  ...       10 min, 32.186 sec
     gradient                   ...        5 min, 13.967 sec
 * total energy  : -5104.0694649 Eh     change    :  -0.9368092E-05 Eh
   gradient norm :     0.0022843 Eh/a0  converged?    E=F G=F D=F
   time step     :     0.5894869 fs     power     :   0.1807921E-09
   step length   :     0.0075813 a0     speed     :   0.3110907E-03

........................................................................
.............................. CYCLE   35 ..............................
........................................................................

 iter      E             dE          RMSdq      gap      omega  full diag
   1  -5198.5917801 -0.519859E+04  0.409E-04    4.05       0.0  T
   2  -5198.5917801 -0.750060E-08  0.247E-04    4.05       6.5  T
   3  -5198.5917801  0.125165E-07  0.522E-05    4.05      30.8  T
     SCC iter.                  ...       10 min, 24.347 sec
     gradient                   ...        5 min, 12.333 sec
 * total energy  : -5104.0694756 Eh     change    :  -0.1062850E-04 Eh
   gradient norm :     0.0022963 Eh/a0  converged?    E=F G=F D=F
   time step     :     0.6484356 fs     power     :   0.1930327E-09
   step length   :     0.0084775 a0     speed     :   0.3162397E-03

........................................................................
.............................. CYCLE   36 ..............................
........................................................................

 iter      E             dE          RMSdq      gap      omega  full diag
   1  -5198.5927264 -0.519859E+04  0.403E-04    4.05       0.0  T
   2  -5198.5927264 -0.594537E-08  0.248E-04    4.05       6.5  T
   3  -5198.5927264  0.208911E-07  0.628E-05    4.05      25.6  T
     SCC iter.                  ...       10 min, 31.259 sec
     gradient                   ...        5 min, 15.959 sec
 * total energy  : -5104.0694881 Eh     change    :  -0.1250350E-04 Eh
   gradient norm :     0.0021787 Eh/a0  converged?    E=F G=F D=F
   time step     :     0.7132792 fs     power     :   0.2091266E-09
   step length   :     0.0095727 a0     speed     :   0.3246325E-03

........................................................................
.............................. CYCLE   37 ..............................
........................................................................

 iter      E             dE          RMSdq      gap      omega  full diag
   1  -5198.5933092 -0.519859E+04  0.409E-04    4.05       0.0  T
   2  -5198.5933092 -0.847558E-08  0.258E-04    4.05       6.2  T
   3  -5198.5933092  0.503760E-07  0.920E-05    4.05      17.5  T
     SCC iter.                  ...       10 min, 26.462 sec
     gradient                   ...        5 min, 12.331 sec
 * total energy  : -5104.0695025 Eh     change    :  -0.1439363E-04 Eh
   gradient norm :     0.0021001 Eh/a0  converged?    E=F G=F D=F
   time step     :     0.7846071 fs     power     :   0.2153274E-09
   step length   :     0.0109314 a0     speed     :   0.3370073E-03

........................................................................
.............................. CYCLE   38 ..............................
........................................................................

 iter      E             dE          RMSdq      gap      omega  full diag
   1  -5198.5933379 -0.519859E+04  0.435E-04    4.05       0.0  T
   2  -5198.5933379 -0.116243E-07  0.270E-04    4.05       6.0  T
   3  -5198.5933379  0.428772E-07  0.891E-05    4.05      18.1  T
     SCC iter.                  ...       10 min, 28.869 sec
     gradient                   ...        5 min, 11.856 sec
 * total energy  : -5104.0695189 Eh     change    :  -0.1646163E-04 Eh
   gradient norm :     0.0022092 Eh/a0  converged?    E=F G=F D=F
   time step     :     0.8630678 fs     power     :   0.2283834E-09
   step length   :     0.0125416 a0     speed     :   0.3514977E-03

........................................................................
.............................. CYCLE   39 ..............................
........................................................................

 iter      E             dE          RMSdq      gap      omega  full diag
   1  -5198.5928599 -0.519859E+04  0.503E-04    4.05       0.0  T
   2  -5198.5928599 -0.124437E-07  0.303E-04    4.05       5.3  T
   3  -5198.5928599  0.185400E-07  0.660E-05    4.05      24.4  T
     SCC iter.                  ...       10 min, 23.283 sec
     gradient                   ...        5 min, 16.569 sec
 * total energy  : -5104.0695392 Eh     change    :  -0.2028407E-04 Eh
   gradient norm :     0.0021389 Eh/a0  converged?    E=F G=F D=F
   time step     :     0.9493746 fs     power     :   0.2622139E-09
   step length   :     0.0144702 a0     speed     :   0.3686813E-03

........................................................................
.............................. CYCLE   40 ..............................
........................................................................

 iter      E             dE          RMSdq      gap      omega  full diag
   1  -5198.5923999 -0.519859E+04  0.584E-04    4.05       0.0  T
   2  -5198.5923999 -0.150667E-07  0.354E-04    4.05       4.5  T
   3  -5198.5923999  0.379250E-07  0.872E-05    4.05      18.4  T
     SCC iter.                  ...       10 min, 29.282 sec
     gradient                   ...        5 min, 11.872 sec
 * total energy  : -5104.0695634 Eh     change    :  -0.2417969E-04 Eh
   gradient norm :     0.0019078 Eh/a0  converged?    E=F G=F D=F
   time step     :     1.0443120 fs     power     :   0.2774934E-09
   step length   :     0.0169379 a0     speed     :   0.3923237E-03

........................................................................
.............................. CYCLE   41 ..............................
........................................................................

 iter      E             dE          RMSdq      gap      omega  full diag
   1  -5198.5929618 -0.519859E+04  0.619E-04    4.05       0.0  T
   2  -5198.5929618 -0.154068E-07  0.378E-04    4.05       4.3  T
   3  -5198.5929618  0.518703E-07  0.101E-04    4.05      15.9  T
     SCC iter.                  ...       10 min, 25.880 sec
     gradient                   ...        5 min, 13.009 sec
 * total energy  : -5104.0695901 Eh     change    :  -0.2672927E-04 Eh
   gradient norm :     0.0020310 Eh/a0  converged?    E=F G=F D=F
   time step     :     1.1487432 fs     power     :   0.2744843E-09
   step length   :     0.0199227 a0     speed     :   0.4195086E-03

........................................................................
.............................. CYCLE   42 ..............................
........................................................................

 iter      E             dE          RMSdq      gap      omega  full diag
   1  -5198.5948122 -0.519859E+04  0.681E-04    4.05       0.0  T
   2  -5198.5948122 -0.126265E-07  0.403E-04    4.05       4.0  T
   3  -5198.5948122  0.139808E-07  0.626E-05    4.05      25.7  T
     SCC iter.                  ...       10 min, 24.614 sec
     gradient                   ...        5 min, 13.860 sec
 * total energy  : -5104.0696218 Eh     change    :  -0.3169989E-04 Eh
   gradient norm :     0.0020543 Eh/a0  converged?    E=F G=F D=F
   time step     :     1.2500000 fs     power     :   0.3151771E-09
   step length   :     0.0229977 a0     speed     :   0.4450311E-03
 * RMSD in coord.:     0.0025069 a0     energy gain  -0.2497612E-03 Eh

........................................................................
.............................. CYCLE   43 ..............................
........................................................................

 iter      E             dE          RMSdq      gap      omega  full diag
   1  -5198.5951397 -0.519860E+04  0.135E-04    4.05       0.0  T
   2  -5198.5951397 -0.627551E-09  0.794E-05    4.05      20.3  T
   3  -5198.5951397  0.153887E-08  0.192E-05    4.05      84.0  T
     SCC iter.                  ...       10 min, 24.875 sec
     gradient                   ...        5 min, 11.853 sec
 * total energy  : -5104.0696283 Eh     change    :  -0.6465942E-05 Eh
   gradient norm :     0.0019805 Eh/a0  converged?    E=F G=F D=F
   time step     :     0.2500000 fs     power     :   0.3396543E-09
   step length   :     0.0045269 a0     speed     :   0.4379977E-03

........................................................................
.............................. CYCLE   44 ..............................
........................................................................

 iter      E             dE          RMSdq      gap      omega  full diag
   1  -5198.5954071 -0.519860E+04  0.143E-04    4.05       0.0  T
   2  -5198.5954071 -0.877662E-09  0.856E-05    4.05      18.8  T
   3  -5198.5954070  0.335240E-08  0.264E-05    4.05      60.9  T
     SCC iter.                  ...       10 min, 28.491 sec
     gradient                   ...        5 min, 11.775 sec
 * total energy  : -5104.0696351 Eh     change    :  -0.6789701E-05 Eh
   gradient norm :     0.0018104 Eh/a0  converged?    E=F G=F D=F
   time step     :     0.2500000 fs     power     :   0.3521644E-09
   step length   :     0.0044978 a0     speed     :   0.4351845E-03

........................................................................
.............................. CYCLE   45 ..............................
........................................................................

 iter      E             dE          RMSdq      gap      omega  full diag
   1  -5198.5956052 -0.519860E+04  0.157E-04    4.05       0.0  T
   2  -5198.5956052 -0.123418E-08  0.947E-05    4.05      17.0  T
   3  -5198.5956052  0.421005E-08  0.296E-05    4.05      54.4  T
     SCC iter.                  ...       10 min, 30.522 sec
     gradient                   ...        5 min, 17.648 sec
 * total energy  : -5104.0696418 Eh     change    :  -0.6760843E-05 Eh
   gradient norm :     0.0016165 Eh/a0  converged?    E=F G=F D=F
   time step     :     0.2500000 fs     power     :   0.3486532E-09
   step length   :     0.0045125 a0     speed     :   0.4366038E-03

........................................................................
.............................. CYCLE   46 ..............................
........................................................................

 iter      E             dE          RMSdq      gap      omega  full diag
   1  -5198.5957368 -0.519860E+04  0.167E-04    4.05       0.0  T
   2  -5198.5957368 -0.130694E-08  0.101E-04    4.05      15.9  T
   3  -5198.5957368  0.494856E-08  0.308E-05    4.05      52.3  T
     SCC iter.                  ...       10 min, 26.352 sec
     gradient                   ...        5 min, 14.133 sec
 * total energy  : -5104.0696484 Eh     change    :  -0.6539864E-05 Eh
   gradient norm :     0.0014926 Eh/a0  converged?    E=F G=F D=F
   time step     :     0.2500000 fs     power     :   0.3336451E-09
   step length   :     0.0045590 a0     speed     :   0.4411124E-03

........................................................................
.............................. CYCLE   47 ..............................
........................................................................

 iter      E             dE          RMSdq      gap      omega  full diag
   1  -5198.5958166 -0.519860E+04  0.167E-04    4.05       0.0  T
   2  -5198.5958166 -0.135060E-08  0.102E-04    4.05      15.8  T
   3  -5198.5958166  0.413820E-08  0.282E-05    4.05      57.1  T
     SCC iter.                  ...       10 min, 26.286 sec
     gradient                   ...        5 min, 13.821 sec
 * total energy  : -5104.0696546 Eh     change    :  -0.6235055E-05 Eh
   gradient norm :     0.0014884 Eh/a0  converged?    E=F G=F D=F
   time step     :     0.2500000 fs     power     :   0.3179809E-09
   step length   :     0.0046098 a0     speed     :   0.4460206E-03

........................................................................
.............................. CYCLE   48 ..............................
........................................................................

 iter      E             dE          RMSdq      gap      omega  full diag
   1  -5198.5958708 -0.519860E+04  0.174E-04    4.05       0.0  T
   2  -5198.5958708 -0.110867E-08  0.105E-04    4.05      15.3  T
   3  -5198.5958708  0.319233E-08  0.251E-05    4.05      64.1  T
     SCC iter.                  ...       10 min, 23.502 sec
     gradient                   ...        5 min, 11.415 sec
 * total energy  : -5104.0696612 Eh     change    :  -0.6596135E-05 Eh
   gradient norm :     0.0015692 Eh/a0  converged?    E=F G=F D=F
   time step     :     0.2750000 fs     power     :   0.3103109E-09
   step length   :     0.0051073 a0     speed     :   0.4492363E-03

........................................................................
.............................. CYCLE   49 ..............................
........................................................................

 iter      E             dE          RMSdq      gap      omega  full diag
   1  -5198.5959166 -0.519860E+04  0.174E-04    4.05       0.0  T
   2  -5198.5959166 -0.784894E-09  0.103E-04    4.05      15.6  T
   3  -5198.5959166  0.148975E-08  0.184E-05    4.05      87.4  T
     SCC iter.                  ...       10 min, 28.304 sec
     gradient                   ...        5 min, 13.251 sec
 * total energy  : -5104.0696685 Eh     change    :  -0.7275105E-05 Eh
   gradient norm :     0.0016524 Eh/a0  converged?    E=F G=F D=F
   time step     :     0.3025000 fs     power     :   0.3149710E-09
   step length   :     0.0056313 a0     speed     :   0.4502952E-03

........................................................................
.............................. CYCLE   50 ..............................
........................................................................

 iter      E             dE          RMSdq      gap      omega  full diag
   1  -5198.5959611 -0.519860E+04  0.174E-04    4.05       0.0  T
   2  -5198.5959611 -0.539330E-09  0.103E-04    4.05      15.7  T
   3  -5198.5959611  0.633008E-09  0.135E-05    4.05     119.3  T
     SCC iter.                  ...       10 min, 28.381 sec
     gradient                   ...        5 min, 11.925 sec
 * total energy  : -5104.0696767 Eh     change    :  -0.8252498E-05 Eh
   gradient norm :     0.0016654 Eh/a0  converged?    E=F G=F D=F
   time step     :     0.3327500 fs     power     :   0.3277641E-09
   step length   :     0.0062079 a0     speed     :   0.4512774E-03

........................................................................
.............................. CYCLE   51 ..............................
........................................................................

 iter      E             dE          RMSdq      gap      omega  full diag
   1  -5198.5959923 -0.519860E+04  0.184E-04    4.05       0.0  T
   2  -5198.5959923 -0.540240E-09  0.109E-04    4.05      14.8  T
   3  -5198.5959923  0.110776E-08  0.171E-05    4.05      93.8  T
     SCC iter.                  ...       10 min, 25.631 sec
     gradient                   ...        5 min, 13.009 sec
 * total energy  : -5104.0696862 Eh     change    :  -0.9500530E-05 Eh
   gradient norm :     0.0015893 Eh/a0  converged?    E=F G=F D=F
   time step     :     0.3660250 fs     power     :   0.3394837E-09
   step length   :     0.0068795 a0     speed     :   0.4546354E-03

........................................................................
.............................. CYCLE   52 ..............................
........................................................................

 iter      E             dE          RMSdq      gap      omega  full diag
   1  -5198.5959711 -0.519860E+04  0.206E-04    4.05       0.0  T
   2  -5198.5959711 -0.115142E-08  0.124E-04    4.05      13.0  T
   3  -5198.5959711  0.390719E-08  0.282E-05    4.05      57.0  T
     SCC iter.                  ...       10 min, 27.833 sec
     gradient                   ...        5 min, 11.471 sec
 * total energy  : -5104.0696969 Eh     change    :  -0.1061385E-04 Eh
   gradient norm :     0.0014794 Eh/a0  converged?    E=F G=F D=F
   time step     :     0.4026275 fs     power     :   0.3425691E-09
   step length   :     0.0076863 a0     speed     :   0.4617741E-03

........................................................................
.............................. CYCLE   53 ..............................
........................................................................

 iter      E             dE          RMSdq      gap      omega  full diag
   1  -5198.5958355 -0.519860E+04  0.233E-04    4.05       0.0  T
   2  -5198.5958355 -0.191176E-08  0.142E-04    4.05      11.3  T
   3  -5198.5958355  0.742966E-08  0.373E-05    4.05      43.2  T
     SCC iter.                  ...       10 min, 25.239 sec
     gradient                   ...        5 min, 13.384 sec
 * total energy  : -5104.0697084 Eh     change    :  -0.1155409E-04 Eh
   gradient norm :     0.0014393 Eh/a0  converged?    E=F G=F D=F
   time step     :     0.4428903 fs     power     :   0.3384028E-09
   step length   :     0.0086456 a0     speed     :   0.4721867E-03

........................................................................
.............................. CYCLE   54 ..............................
........................................................................

 iter      E             dE          RMSdq      gap      omega  full diag
   1  -5198.5955384 -0.519860E+04  0.257E-04    4.05       0.0  T
   2  -5198.5955384 -0.194723E-08  0.155E-04    4.05      10.4  T
   3  -5198.5955384  0.702130E-08  0.366E-05    4.05      43.9  T
     SCC iter.                  ...       10 min, 30.345 sec
     gradient                   ...        5 min, 18.087 sec
 * total energy  : -5104.0697212 Eh     change    :  -0.1274175E-04 Eh
   gradient norm :     0.0014853 Eh/a0  converged?    E=F G=F D=F
   time step     :     0.4871793 fs     power     :   0.3374626E-09
   step length   :     0.0097316 a0     speed     :   0.4831804E-03

........................................................................
.............................. CYCLE   55 ..............................
........................................................................

 iter      E             dE          RMSdq      gap      omega  full diag
   1  -5198.5951142 -0.519860E+04  0.275E-04    4.05       0.0  T
   2  -5198.5951142 -0.145701E-08  0.163E-04    4.05       9.8  T
   3  -5198.5951142  0.302316E-08  0.268E-05    4.05      60.0  T
     SCC iter.                  ...       10 min, 26.390 sec
     gradient                   ...        5 min, 11.721 sec
 * total energy  : -5104.0697354 Eh     change    :  -0.1424017E-04 Eh
   gradient norm :     0.0015252 Eh/a0  converged?    E=F G=F D=F
   time step     :     0.5358972 fs     power     :   0.3457857E-09
   step length   :     0.0109288 a0     speed     :   0.4932927E-03

........................................................................
.............................. CYCLE   56 ..............................
........................................................................

 iter      E             dE          RMSdq      gap      omega  full diag
   1  -5198.5947118 -0.519859E+04  0.296E-04    4.05       0.0  T
   2  -5198.5947118 -0.150339E-08  0.175E-04    4.05       9.2  T
   3  -5198.5947118  0.333876E-08  0.279E-05    4.05      57.6  T
     SCC iter.                  ...       10 min, 29.736 sec
     gradient                   ...        5 min, 17.241 sec
 * total energy  : -5104.0697516 Eh     change    :  -0.1615934E-04 Eh
   gradient norm :     0.0015070 Eh/a0  converged?    E=F G=F D=F
   time step     :     0.5894869 fs     power     :   0.3592130E-09
   step length   :     0.0122893 a0     speed     :   0.5042771E-03

........................................................................
.............................. CYCLE   57 ..............................
........................................................................

 iter      E             dE          RMSdq      gap      omega  full diag
   1  -5198.5945663 -0.519859E+04  0.330E-04    4.05       0.0  T
   2  -5198.5945664 -0.206001E-08  0.197E-04    4.05       8.2  T
   3  -5198.5945663  0.100463E-07  0.431E-05    4.05      37.3  T
     SCC iter.                  ...       10 min, 28.295 sec
     gradient                   ...        5 min, 12.265 sec
 * total energy  : -5104.0697699 Eh     change    :  -0.1834914E-04 Eh
   gradient norm :     0.0014352 Eh/a0  converged?    E=F G=F D=F
   time step     :     0.6484356 fs     power     :   0.3697955E-09
   step length   :     0.0138904 a0     speed     :   0.5181580E-03

........................................................................
.............................. CYCLE   58 ..............................
........................................................................

 iter      E             dE          RMSdq      gap      omega  full diag
   1  -5198.5948842 -0.519859E+04  0.376E-04    4.05       0.0  T
   2  -5198.5948842 -0.302043E-08  0.225E-04    4.05       7.1  T
   3  -5198.5948842  0.166838E-07  0.557E-05    4.05      28.9  T
     SCC iter.                  ...       10 min, 24.528 sec
     gradient                   ...        5 min, 13.709 sec
 * total energy  : -5104.0697904 Eh     change    :  -0.2047067E-04 Eh
   gradient norm :     0.0014183 Eh/a0  converged?    E=F G=F D=F
   time step     :     0.7132792 fs     power     :   0.3743701E-09
   step length   :     0.0157949 a0     speed     :   0.5356380E-03

........................................................................
.............................. CYCLE   59 ..............................
........................................................................

 iter      E             dE          RMSdq      gap      omega  full diag
   1  -5198.5956170 -0.519860E+04  0.409E-04    4.05       0.0  T
   2  -5198.5956170 -0.263844E-08  0.242E-04    4.05       6.6  T
   3  -5198.5956170  0.645286E-08  0.379E-05    4.05      42.4  T
     SCC iter.                  ...       10 min, 29.580 sec
     gradient                   ...        5 min, 13.892 sec
 * total energy  : -5104.0698135 Eh     change    :  -0.2313151E-04 Eh
   gradient norm :     0.0014726 Eh/a0  converged?    E=F G=F D=F
   time step     :     0.7846071 fs     power     :   0.3852098E-09
   step length   :     0.0179818 a0     speed     :   0.5543641E-03

........................................................................
.............................. CYCLE   60 ..............................
........................................................................

 iter      E             dE          RMSdq      gap      omega  full diag
   1  -5198.5964218 -0.519860E+04  0.450E-04    4.05       0.0  T
   2  -5198.5964218 -0.326054E-08  0.265E-04    4.05       6.1  T
   3  -5198.5964217  0.126574E-07  0.505E-05    4.05      31.9  T
     SCC iter.                  ...       10 min, 25.897 sec
     gradient                   ...        5 min, 11.100 sec
 * total energy  : -5104.0698400 Eh     change    :  -0.2650470E-04 Eh
   gradient norm :     0.0014218 Eh/a0  converged?    E=F G=F D=F
   time step     :     0.8630678 fs     power     :   0.4026200E-09
   step length   :     0.0204686 a0     speed     :   0.5736643E-03

........................................................................
.............................. CYCLE   61 ..............................
........................................................................

 iter      E             dE          RMSdq      gap      omega  full diag
   1  -5198.5969364 -0.519860E+04  0.513E-04    4.05       0.0  T
   2  -5198.5969364 -0.477030E-08  0.304E-04    4.05       5.3  T
   3  -5198.5969364  0.184282E-07  0.589E-05    4.05      27.3  T
     SCC iter.                  ...       10 min, 28.037 sec
     gradient                   ...        5 min, 15.079 sec
 * total energy  : -5104.0698702 Eh     change    :  -0.3022959E-04 Eh
   gradient norm :     0.0013904 Eh/a0  converged?    E=F G=F D=F
   time step     :     0.9493746 fs     power     :   0.4127309E-09
   step length   :     0.0234397 a0     speed     :   0.5972130E-03

........................................................................
.............................. CYCLE   62 ..............................
........................................................................

 iter      E             dE          RMSdq      gap      omega  full diag
   1  -5198.5970567 -0.519860E+04  0.568E-04    4.05       0.0  T
   2  -5198.5970567 -0.526961E-08  0.335E-04    4.05       4.8  T
   3  -5198.5970567  0.154378E-07  0.581E-05    4.05      27.7  T
     SCC iter.                  ...       10 min, 27.887 sec
     gradient                   ...        5 min, 12.178 sec
 * total energy  : -5104.0699046 Eh     change    :  -0.3434157E-04 Eh
   gradient norm :     0.0014433 Eh/a0  converged?    E=F G=F D=F
   time step     :     1.0443120 fs     power     :   0.4278019E-09
   step length   :     0.0269061 a0     speed     :   0.6232107E-03

........................................................................
.............................. CYCLE   63 ..............................
........................................................................

 iter      E             dE          RMSdq      gap      omega  full diag
   1  -5198.5968874 -0.519860E+04  0.640E-04    4.05       0.0  T
   2  -5198.5968874 -0.697491E-08  0.379E-04    4.05       4.2  T
   3  -5198.5968873  0.308592E-07  0.783E-05    4.05      20.6  T
     SCC iter.                  ...       10 min, 28.994 sec
     gradient                   ...        5 min, 10.940 sec
 * total energy  : -5104.0699440 Eh     change    :  -0.3942367E-04 Eh
   gradient norm :     0.0013799 Eh/a0  converged?    E=F G=F D=F
   time step     :     1.1487432 fs     power     :   0.4484194E-09
   step length   :     0.0308817 a0     speed     :   0.6502700E-03

........................................................................
.............................. CYCLE   64 ..............................
........................................................................

 iter      E             dE          RMSdq      gap      omega  full diag
   1  -5198.5967966 -0.519860E+04  0.736E-04    4.05       0.0  T
   2  -5198.5967966 -0.981072E-08  0.437E-04    4.05       3.7  T
   3  -5198.5967966  0.529217E-07  0.992E-05    4.05      16.2  T
     SCC iter.                  ...       10 min, 25.053 sec
     gradient                   ...        5 min, 12.945 sec
 * total energy  : -5104.0699884 Eh     change    :  -0.4437731E-04 Eh
   gradient norm :     0.0014088 Eh/a0  converged?    E=F G=F D=F
   time step     :     1.2500000 fs     power     :   0.4593823E-09
   step length   :     0.0352482 a0     speed     :   0.6820904E-03

........................................................................
.............................. CYCLE   65 ..............................
........................................................................

 iter      E             dE          RMSdq      gap      omega  full diag
   1  -5198.5974268 -0.519860E+04  0.764E-04    4.05       0.0  T
   2  -5198.5974268 -0.745331E-08  0.451E-04    4.05       3.6  T
   3  -5198.5974268  0.387518E-07  0.897E-05    4.05      17.9  T
     SCC iter.                  ...       10 min, 25.469 sec
     gradient                   ...        5 min, 13.023 sec
 * total energy  : -5104.0700344 Eh     change    :  -0.4604464E-04 Eh
   gradient norm :     0.0013981 Eh/a0  converged?    E=F G=F D=F
   time step     :     1.2500000 fs     power     :   0.4807134E-09
   step length   :     0.0367479 a0     speed     :   0.7111109E-03

........................................................................
.............................. CYCLE   66 ..............................
........................................................................

 iter      E             dE          RMSdq      gap      omega  full diag
   1  -5198.5979951 -0.519860E+04  0.789E-04    4.05       0.0  T
   2  -5198.5979951 -0.135278E-07  0.467E-04    4.05       3.4  T
   3  -5198.5979951  0.393729E-07  0.970E-05    4.05      16.6  T
     SCC iter.                  ...       10 min, 25.837 sec
     gradient                   ...        5 min, 11.969 sec
 * total energy  : -5104.0700818 Eh     change    :  -0.4735114E-04 Eh
   gradient norm :     0.0014691 Eh/a0  converged?    E=F G=F D=F
   time step     :     1.2500000 fs     power     :   0.4878400E-09
   step length   :     0.0382657 a0     speed     :   0.7404834E-03

........................................................................
.............................. CYCLE   67 ..............................
........................................................................

 iter      E             dE          RMSdq      gap      omega  full diag
   1  -5198.5982188 -0.519860E+04  0.824E-04    4.05       0.0  T
   2  -5198.5982189 -0.221435E-07  0.486E-04    4.05       3.3  T
   3  -5198.5982188  0.395376E-07  0.113E-04    4.05      14.2  T
     SCC iter.                  ...       10 min, 24.264 sec
     gradient                   ...        5 min, 12.828 sec
 * total energy  : -5104.0701299 Eh     change    :  -0.4814933E-04 Eh
   gradient norm :     0.0017662 Eh/a0  converged?    E=F G=F D=F
   time step     :     1.2500000 fs     power     :   0.4904905E-09
   step length   :     0.0395666 a0     speed     :   0.7656553E-03
 * RMSD in coord.:     0.0062926 a0     energy gain  -0.5080982E-03 Eh

........................................................................
.............................. CYCLE   68 ..............................
........................................................................

 iter      E             dE          RMSdq      gap      omega  full diag
   1  -5198.5982707 -0.519860E+04  0.160E-04    4.05       0.0  T
   2  -5198.5982707 -0.779437E-09  0.942E-05    4.05      17.1  T
   3  -5198.5982707  0.231194E-08  0.267E-05    4.05      60.3  T
     SCC iter.                  ...       10 min, 26.469 sec
     gradient                   ...        5 min, 12.352 sec
 * total energy  : -5104.0701398 Eh     change    :  -0.9827271E-05 Eh
   gradient norm :     0.0015433 Eh/a0  converged?    E=F G=F D=F
   time step     :     0.2500000 fs     power     :   0.5175256E-09
   step length   :     0.0077428 a0     speed     :   0.7491547E-03

........................................................................
.............................. CYCLE   69 ..............................
........................................................................

 iter      E             dE          RMSdq      gap      omega  full diag
   1  -5198.5983427 -0.519860E+04  0.183E-04    4.05       0.0  T
   2  -5198.5983427 -0.447380E-08  0.109E-04    4.05      14.7  T
   3  -5198.5983427  0.434466E-08  0.462E-05    4.05      34.8  T
     SCC iter.                  ...       10 min, 28.781 sec
     gradient                   ...        5 min, 11.671 sec
 * total energy  : -5104.0701495 Eh     change    :  -0.9787405E-05 Eh
   gradient norm :     0.0012792 Eh/a0  converged?    E=F G=F D=F
   time step     :     0.2500000 fs     power     :   0.4995002E-09
   step length   :     0.0076903 a0     speed     :   0.7440794E-03

........................................................................
.............................. CYCLE   70 ..............................
........................................................................

 iter      E             dE          RMSdq      gap      omega  full diag
   1  -5198.5984336 -0.519860E+04  0.183E-04    4.05       0.0  T
   2  -5198.5984336 -0.344153E-08  0.110E-04    4.05      14.7  T
   3  -5198.5984336  0.332602E-08  0.400E-05    4.05      40.2  T
     SCC iter.                  ...       10 min, 30.064 sec
     gradient                   ...        5 min, 12.573 sec
 * total energy  : -5104.0701588 Eh     change    :  -0.9291585E-05 Eh
   gradient norm :     0.0014658 Eh/a0  converged?    E=F G=F D=F
   time step     :     0.2500000 fs     power     :   0.4757663E-09
   step length   :     0.0077326 a0     speed     :   0.7481665E-03

........................................................................
.............................. CYCLE   71 ..............................
........................................................................

 iter      E             dE          RMSdq      gap      omega  full diag
   1  -5198.5985302 -0.519860E+04  0.162E-04    4.05       0.0  T
   2  -5198.5985302 -0.573891E-09  0.962E-05    4.05      16.7  T
[...]
  3615   6 C     3616   6 C                                       1.5361148
  3617   6 C     3618   6 C                                       1.3890943
  3618   6 C     3619   6 C                                       1.3838122
  3619   6 C     3620   6 C                                       1.3838389
  3620   6 C     3621   6 C                                       1.3840364
  3617   6 C     3622   6 C                                       1.3899408
  3621   6 C     3622   6 C                                       1.3827284
  3616   6 C     3623   6 C                                       1.5368054
  3623   6 C     3624   6 C                                       1.5376194
  3625   6 C     3626   6 C                                       1.3902384
  3626   6 C     3627   6 C                                       1.3842594
  3627   6 C     3628   6 C                                       1.3838498
  3628   6 C     3629   6 C                                       1.3846912
  3625   6 C     3630   6 C                                       1.3908381
  3629   6 C     3630   6 C                                       1.3833528
  3624   6 C     3631   6 C                                       1.5337970
  3631   6 C     3632   6 C                                       1.5344716
  3633   6 C     3634   6 C                                       1.3893260
  3634   6 C     3635   6 C                                       1.3840636
  3635   6 C     3636   6 C                                       1.3839812
  3636   6 C     3637   6 C                                       1.3848746
  3633   6 C     3638   6 C                                       1.3906823
  3637   6 C     3638   6 C                                       1.3835672
  3632   6 C     3639   6 C                                       1.5364605
  3639   6 C     3640   6 C                                       1.5381539
  3641   6 C     3642   6 C                                       1.3889606
  3642   6 C     3643   6 C                                       1.3843525
  3643   6 C     3644   6 C                                       1.3834133
  3644   6 C     3645   6 C                                       1.3851748
  3641   6 C     3646   6 C                                       1.3913568
  3645   6 C     3646   6 C                                       1.3829310
  3640   6 C     3647   6 C                                       1.5363922
  3649   6 C     3650   6 C                                       1.3900771
  3650   6 C     3651   6 C                                       1.3827068
  3651   6 C     3652   6 C                                       1.3842691
  3652   6 C     3653   6 C                                       1.3840364
  3649   6 C     3654   6 C                                       1.3890152
  3653   6 C     3654   6 C                                       1.3841485
  3648   6 C     3655   6 C                                       1.5356939
  3655   6 C     3656   6 C                                       1.5351788
  3657   6 C     3658   6 C                                       1.3905393
  3658   6 C     3659   6 C                                       1.3828710
  3659   6 C     3660   6 C                                       1.3847276
  3660   6 C     3661   6 C                                       1.3838242
  3657   6 C     3662   6 C                                       1.3896960
  3661   6 C     3662   6 C                                       1.3843106
  3656   6 C     3663   6 C                                       1.5359966
  3663   6 C     3664   6 C                                       1.5379108
  3665   6 C     3666   6 C                                       1.3909881
  3666   6 C     3667   6 C                                       1.3824137
  3667   6 C     3668   6 C                                       1.3840722
  3668   6 C     3669   6 C                                       1.3829634
  3665   6 C     3670   6 C                                       1.3892331
  3669   6 C     3670   6 C                                       1.3833965
  3664   6 C     3671   6 C                                       1.5403158
  3671   6 C     3672   6 C                                       1.5391346
  3673   6 C     3674   6 C                                       1.3882049
  3674   6 C     3675   6 C                                       1.3841762
  3675   6 C     3676   6 C                                       1.3831982
  3676   6 C     3677   6 C                                       1.3848211
  3673   6 C     3678   6 C                                       1.3909127
  3677   6 C     3678   6 C                                       1.3823485
  3679   6 C     3680   6 C                                       1.5365082
  3681   6 C     3682   6 C                                       1.3884540
  3682   6 C     3683   6 C                                       1.3831843
  3683   6 C     3684   6 C                                       1.3835679
  3684   6 C     3685   6 C                                       1.3844967
  3681   6 C     3686   6 C                                       1.3898310
  3685   6 C     3686   6 C                                       1.3833887
  3680   6 C     3687   6 C                                       1.5352349
  3687   6 C     3688   6 C                                       1.5354463
  3549   6 C     3689   1 H                                       1.0955757
  3551   6 C     3690   1 H                                       1.0915818
  3551   6 C     3691   1 H                                       1.0890175
  3552   6 C     3692   1 H                                       1.0965551
  3559   6 C     3693   1 H                                       1.0930523
  3559   6 C     3694   1 H                                       1.0906727
  3560   6 C     3695   1 H                                       1.0939873
  3567   6 C     3696   1 H                                       1.0930073
  3567   6 C     3697   1 H                                       1.0919982
  3568   6 C     3698   1 H                                       1.0954683
  3575   6 C     3699   1 H                                       1.0911381
  3576   6 C     3700   1 H                                       1.0948667
  3583   6 C     3701   1 H                                       1.0933296
  3583   6 C     3702   1 H                                       1.0921772
  3584   6 C     3703   1 H                                       1.0961094
  3591   6 C     3704   1 H                                       1.0904502
  3591   6 C     3705   1 H                                       1.0914623
  3592   6 C     3706   1 H                                       1.0954226
  3599   6 C     3707   1 H                                       1.0920043
  3599   6 C     3708   1 H                                       1.0920839
  3600   6 C     3709   1 H                                       1.0946684
  3608   6 C     3710   1 H                                       1.0933885
  3615   6 C     3711   1 H                                       1.0912774
  3615   6 C     3712   1 H                                       1.0889524
  3616   6 C     3713   1 H                                       1.0950554
  3623   6 C     3714   1 H                                       1.0923759
  3623   6 C     3715   1 H                                       1.0917574
  3624   6 C     3716   1 H                                       1.0956681
  3631   6 C     3717   1 H                                       1.0894932
  3631   6 C     3718   1 H                                       1.0920199
  3632   6 C     3719   1 H                                       1.0942606
  3639   6 C     3720   1 H                                       1.0920924
  3639   6 C     3721   1 H                                       1.0923428
  3640   6 C     3722   1 H                                       1.0946612
  3647   6 C     3723   1 H                                       1.0912789
  3647   6 C     3724   1 H                                       1.0919927
  3648   6 C     3725   1 H                                       1.0955234
  3655   6 C     3726   1 H                                       1.0899692
  3655   6 C     3727   1 H                                       1.0920742
  3656   6 C     3728   1 H                                       1.0956434
  3663   6 C     3729   1 H                                       1.0918283
  3663   6 C     3730   1 H                                       1.0916186
  3664   6 C     3731   1 H                                       1.0956761
  3671   6 C     3732   1 H                                       1.0933935
  3671   6 C     3733   1 H                                       1.0901489
  3672   6 C     3734   1 H                                       1.0955197
  3679   6 C     3735   1 H                                       1.0906985
  3679   6 C     3736   1 H                                       1.0908746
  3543   6 C     3737   1 H                                       1.0805493
  3548   6 C     3738   1 H                                       1.0813887
  3547   6 C     3739   1 H                                       1.0802396
  3546   6 C     3740   1 H                                       1.0809717
  3545   6 C     3741   1 H                                       1.0813359
  3554   6 C     3742   1 H                                       1.0804291
  3555   6 C     3743   1 H                                       1.0806306
  3556   6 C     3744   1 H                                       1.0804266
  3557   6 C     3745   1 H                                       1.0802755
  3558   6 C     3746   1 H                                       1.0815839
  3562   6 C     3747   1 H                                       1.0821258
  3563   6 C     3748   1 H                                       1.0810746
  3564   6 C     3749   1 H                                       1.0777901
  3565   6 C     3750   1 H                                       1.0804845
  3566   6 C     3751   1 H                                       1.0808862
  3570   6 C     3752   1 H                                       1.0805351
  3571   6 C     3753   1 H                                       1.0800215
  3572   6 C     3754   1 H                                       1.0786345
  3573   6 C     3755   1 H                                       1.0796388
  3574   6 C     3756   1 H                                       1.0816595
  3575   6 C     3757   1 H                                       1.0924390
  3578   6 C     3758   1 H                                       1.0802265
  3579   6 C     3759   1 H                                       1.0810603
  3580   6 C     3760   1 H                                       1.0797902
  3581   6 C     3761   1 H                                       1.0797802
  3582   6 C     3762   1 H                                       1.0818654
  3586   6 C     3763   1 H                                       1.0815460
  3587   6 C     3764   1 H                                       1.0804599
  3588   6 C     3765   1 H                                       1.0807357
  3589   6 C     3766   1 H                                       1.0805313
  3590   6 C     3767   1 H                                       1.0793203
  3594   6 C     3768   1 H                                       1.0801552
  3595   6 C     3769   1 H                                       1.0813222
  3596   6 C     3770   1 H                                       1.0807154
  3597   6 C     3771   1 H                                       1.0788551
  3598   6 C     3772   1 H                                       1.0801273
  3602   6 C     3773   1 H                                       1.0798055
  3603   6 C     3774   1 H                                       1.0809802
  3604   6 C     3775   1 H                                       1.0802677
  3605   6 C     3776   1 H                                       1.0806307
  3606   6 C     3777   1 H                                       1.0817398
  3607   6 C     3778   1 H                                       1.0911040
  3607   6 C     3779   1 H                                       1.0921797
  3610   6 C     3780   1 H                                       1.0806546
  3611   6 C     3781   1 H                                       1.0807351
  3612   6 C     3782   1 H                                       1.0802724
  3613   6 C     3783   1 H                                       1.0811527
  3614   6 C     3784   1 H                                       1.0816755
  3618   6 C     3785   1 H                                       1.0816404
  3619   6 C     3786   1 H                                       1.0811143
  3620   6 C     3787   1 H                                       1.0788554
  3621   6 C     3788   1 H                                       1.0803166
  3622   6 C     3789   1 H                                       1.0795874
  3626   6 C     3790   1 H                                       1.0819879
  3627   6 C     3791   1 H                                       1.0799498
  3628   6 C     3792   1 H                                       1.0797899
  3629   6 C     3793   1 H                                       1.0814736
  3630   6 C     3794   1 H                                       1.0802258
  3634   6 C     3795   1 H                                       1.0812203
  3635   6 C     3796   1 H                                       1.0804284
  3636   6 C     3797   1 H                                       1.0801377
  3637   6 C     3798   1 H                                       1.0809039
  3638   6 C     3799   1 H                                       1.0804225
  3642   6 C     3800   1 H                                       1.0802902
  3643   6 C     3801   1 H                                       1.0802748
  3644   6 C     3802   1 H                                       1.0804123
  3645   6 C     3803   1 H                                       1.0804445
  3646   6 C     3804   1 H                                       1.0797528
  3650   6 C     3805   1 H                                       1.0799096
  3651   6 C     3806   1 H                                       1.0804653
  3652   6 C     3807   1 H                                       1.0806649
  3653   6 C     3808   1 H                                       1.0806510
  3654   6 C     3809   1 H                                       1.0815780
  3658   6 C     3810   1 H                                       1.0802743
  3659   6 C     3811   1 H                                       1.0805095
  3660   6 C     3812   1 H                                       1.0803704
  3661   6 C     3813   1 H                                       1.0797502
  3662   6 C     3814   1 H                                       1.0813893
  3666   6 C     3815   1 H                                       1.0810009
  3667   6 C     3816   1 H                                       1.0806208
  3668   6 C     3817   1 H                                       1.0800323
  3669   6 C     3818   1 H                                       1.0799041
  3670   6 C     3819   1 H                                       1.0800934
  3674   6 C     3820   1 H                                       1.0812713
  3675   6 C     3821   1 H                                       1.0788101
  3676   6 C     3822   1 H                                       1.0801349
  3677   6 C     3823   1 H                                       1.0806385
  3678   6 C     3824   1 H                                       1.0807361
  3686   6 C     3825   1 H                                       1.0802457
  3685   6 C     3826   1 H                                       1.0807054
  3684   6 C     3827   1 H                                       1.0802387
  3683   6 C     3828   1 H                                       1.0805567
  3682   6 C     3829   1 H                                       1.0797282
  3550   6 C     3830   1 H                                       1.0874480
  3550   6 C     3831   1 H                                       1.0880762
  3550   6 C     3832   1 H                                       1.0880063
  3680   6 C     3833   1 H                                       1.0959511
  3687   6 C     3834   1 H                                       1.0909438
  3687   6 C     3835   1 H                                       1.0920804
  3688   6 C     3836   6 C                                       1.5372972
  3837   6 C     3838   6 C                                       1.3902229
  3838   6 C     3839   6 C                                       1.3831931
  3839   6 C     3840   6 C                                       1.3840419
  3840   6 C     3841   6 C                                       1.3839858
  3837   6 C     3842   6 C                                       1.3896332
  3841   6 C     3842   6 C                                       1.3838958
  3838   6 C     3843   1 H                                       1.0805417
  3839   6 C     3844   1 H                                       1.0807860
  3840   6 C     3845   1 H                                       1.0800575
  3841   6 C     3846   1 H                                       1.0803137
  3842   6 C     3847   1 H                                       1.0816138
  3836   6 C     3848   6 C                                       1.5314568
  3836   6 C     3849   1 H                                       1.0922801
  3836   6 C     3850   1 H                                       1.0909927
  3851   6 C     3852   6 C                                       1.3899587
  3852   6 C     3853   6 C                                       1.3849754
  3853   6 C     3854   6 C                                       1.3837728
  3854   6 C     3855   6 C                                       1.3847871
  3851   6 C     3856   6 C                                       1.3904720
  3855   6 C     3856   6 C                                       1.3829343
  3852   6 C     3857   1 H                                       1.0819465
  3853   6 C     3858   1 H                                       1.0807229
  3854   6 C     3859   1 H                                       1.0798781
  3855   6 C     3860   1 H                                       1.0807270
  3856   6 C     3861   1 H                                       1.0805183
  3688   6 C     3862   1 H                                       1.0966426
  3848   6 C     3863   1 H                                       1.0950655
  3848   6 C     3864   1 H                                       1.0918631

 * 2 distinct bonds (by element types)

   Z      Z             #   av. dist./Å        max./Å        min./Å
   1 H    6 C        1944     1.0850981     1.0979491     1.0770291
   6 C    6 C        1857     1.4194053     1.5407545     1.3806542


optimized geometry written to: xtbopt.xyz


           -------------------------------------------------
          | TOTAL ENERGY            -5104.076638993950 Eh   |
          | GRADIENT NORM               0.000891295842 Eh/α |
          | HOMO-LUMO GAP               4.041946522919 eV   |
           -------------------------------------------------

------------------------------------------------------------------------
 * finished run on 2024/10/09 at 01:12:53.005     
------------------------------------------------------------------------
 total:
 * wall-time:     4 d,  5 h, 25 min, 35.474 sec
 *  cpu-time:    27 d,  4 h,  7 min, 40.296 sec
 * ratio c/w:     6.430 speedup
 SCF:
 * wall-time:     0 d,  0 h, 47 min, 51.581 sec
 *  cpu-time:     0 d,  5 h, 50 min, 26.388 sec
 * ratio c/w:     7.322 speedup
 ANC optimizer:
 * wall-time:     4 d,  4 h, 36 min, 23.681 sec
 *  cpu-time:    26 d, 22 h, 15 min, 32.372 sec
 * ratio c/w:     6.424 speedup

