3864
 energy: -5104.076638993950 gnorm: 0.000891295842 xtb: 6.6.1 (8d0f1dd)
C           50.03401636482502       70.27119634247320       39.53095965779864
C           50.25968114391542       71.60825414385010       39.83486718987522
C           50.11027399334354       72.55156456031673       38.82617698522507
C           49.75138289249133       72.17081690563039       37.54443962097429
C           49.53510497463390       70.83497013317674       37.25388605093422
C           49.67700972596003       69.88646407249541       38.25211414317203
C           50.65393517152129       72.03591700657971       41.22494323638280
C           49.49232693158413       71.81272319920610       42.19614814603960
C           51.90864582766905       71.29164061798073       41.69778941405279
C           53.09514397366172       71.48411022356130       40.74264053795665
C           53.44824869529225       72.94345254257519       40.61981844285890
C           53.34612277627686       73.59694880859176       39.39894964558129
C           53.66364451562229       74.93914170013929       39.28373936530746
C           54.09194084332267       75.64905658540283       40.39162766770500
C           54.20549726299610       75.00602908487329       41.61295341015777
C           53.88763355655118       73.66505884397415       41.72434558550444
C           54.30983373775727       70.65491609997007       41.20775918310743
C           54.68395296129012       69.53599883759099       40.22578264898643
C           53.53425020070408       68.59435632206970       39.97368245709491
C           53.03891169244869       68.41610394727533       38.68724197599269
C           52.02213837862964       67.51191561156878       38.43357276990962
C           51.46564603257357       66.78738291328840       39.47310767694223
C           51.93070376701320       66.97625100744773       40.76364421923279
C           52.96044387022597       67.86631602477252       41.00956047093943
C           55.90405642353950       68.78036322525185       40.77229435378061
C           56.39716779342416       67.65999154438144       39.84775275892735
C           56.75666608072270       68.20557729115164       38.48787626007410
C           57.80459887714197       69.10555598559159       38.33005780512666
C           58.12922088330916       69.60144389649771       37.08065018784413
C           57.41077634145174       69.20470719733697       35.96515178056707
C           56.36726463354243       68.30830001558532       36.10945596265647
C           56.04617707394141       67.81338421307561       37.36111470692862
C           57.60701116924182       66.94247757526534       40.47272088209799
C           57.22844013038659       65.87668698037643       41.51739238443125
C           58.37707645555542       65.65050299493770       42.46873000363969
C           58.21956597210186       65.86190221974880       43.83221309754295
C           59.26458354662189       65.64399227652075       44.71265522625576
C           60.49042391544234       65.21011107032146       44.23997622694222
C           60.66261029759097       65.00120802439493       42.88217119804617
C           59.61588311881995       65.22089195581347       42.00586093339172
C           56.83436180034244       64.56148042703984       40.83400407365102
C           56.49057994621062       63.44089110352066       41.82512290610154
C           55.24708128470829       63.74801468007050       42.62140757672822
C           55.31094916492846       63.83499826642536       44.00713346648052
C           54.16878413177289       64.04520409599641       44.76061275110786
C           52.93727324560827       64.16077573237040       44.13769925480152
C           52.86295673153209       64.08941324884798       42.75734728700607
C           54.00856746988700       63.89635335383583       42.00693296496001
C           56.33209460588063       62.12269443460265       41.05076913526111
C           55.84076230886767       60.96658845194646       41.92828453581102
C           56.75175968169861       60.72840212086484       43.10668989328707
C           58.11013304291487       60.49296080477151       42.92778597451191
C           58.93856483818877       60.26866448791291       44.01176392246967
C           58.42306709051794       60.27140873749462       45.29652396787143
C           57.07133165897897       60.49981527269502       45.48659052879407
C           56.24336318338494       60.72057643544012       44.39957927173931
C           55.70717606253196       59.65734784693702       41.13350325573079
C           54.88586154041057       59.76555777698453       39.83790540246748
C           53.61941221155548       60.56289145141277       40.01947379776941
C           53.31834949955668       61.61127646942114       39.15979018261385
C           52.16039645504766       62.35413664081156       39.30592266032282
C           51.28570652497436       62.06517076216232       40.33694631633589
C           51.57637148945562       61.03297638841136       41.21285313042446
C           52.72688461190111       60.28408687417151       41.04795292799029
C           54.57656572885907       58.35130760974005       39.31630588482608
C           54.23338121361311       58.31823350169596       37.82142830785556
C           53.63185668822573       56.99266067141688       37.41196578137308
C           52.66223574597718       56.95618184694347       36.41615643925490
C           52.13065059694212       55.75966917877226       35.97329401109564
C           52.54276838852238       54.56939327767467       36.54389052530190
C           53.50005995291500       54.58624878955094       37.54270130154789
C           54.04741603863542       55.78615427997094       37.96342811683833
C           55.48353262549184       58.60845266868225       36.95229213023858
C           55.45454904799871       59.97092129967540       36.23802507991176
C           56.84733725841565       60.36487862363493       35.81401714855542
C           57.52053835745829       61.36944570209027       36.49883634497467
C           58.79703270278505       61.75180666162119       36.12882710431316
C           59.42467755727169       61.12952145098991       35.06449478181332
C           58.76711993552492       60.12148006854675       34.38016731559482
C           57.49084937788455       59.73967905966484       34.75263052939322
C           54.48572538608603       59.94580773919968       35.05426982747677
C           54.36124238065069       61.30607636413820       34.35327883618866
C           53.85706712848523       61.13738448540758       32.94218991752870
C           54.45264311566347       61.81940634702475       31.88911604586473
C           53.95990125657622       61.70900052732793       30.60021641987071
C           52.86452877290051       60.90384876461978       30.34002918323035
C           52.27672002166194       60.19848639808892       31.37593282865730
C           52.76979460528794       60.31673109849424       32.66301522395092
C           53.41254807970078       62.23255310368290       35.13348961146185
C           53.53225934395398       63.69649033628576       34.69125471480736
C           54.89280758470345       64.23973766976202       35.06360285821903
C           55.75520700574410       64.71195764692413       34.08276799691976
C           57.01785680767763       65.17788664132733       34.40478547576674
C           57.44040131487208       65.18298728876266       35.72140138069961
C           56.58589584989802       64.73173685819917       36.71135457991389
C           55.32496133898906       64.26852006262234       36.38456482954266
C           52.43249755850467       64.59509716545918       35.28527268426479
C           50.98980737024490       64.11276404666397       35.04408248514554
C           50.02948741655387       65.13145758753114       35.60894457319149
C           49.38640191090762       64.88597037994786       36.81631638712192
C           48.50273789457739       65.80607173535832       37.35374803770240
C           48.23277702639244       66.98411164044894       36.67929478420434
C           48.87655878330593       67.24601865669942       35.48182790094702
C           49.77412327744776       66.33299342962222       34.95850336163693
C           50.71874535789274       63.81702025717794       33.56319633895308
C           49.27074778736623       63.38269622141995       33.28967011182621
C           48.81720140967372       62.31572729497510       34.25300989723484
C           49.50704516247252       61.11354022674670       34.36100429744261
C           49.07285709825316       60.11999389700912       35.22007366902165
C           47.92257273980189       60.29805855224035       35.96987806540739
C           47.23592260515815       61.49662658016749       35.88145942275752
C           47.68608947800250       62.49819940158913       35.03799524069051
C           49.15230213284246       62.86566399583209       31.84677859857406
C           47.69834803036009       62.55357405979741       31.46941367292005
C           46.92045864637863       63.81884626535173       31.20613796414560
C           47.26861216749945       64.68273455399044       30.17447939188262
C           46.53730262659386       65.83207400495898       29.93618421481868
C           45.44036559463369       66.13614303300132       30.72472980291263
C           45.08060906065827       65.28100024951061       31.75111069842244
C           45.81675805524031       64.13355837799577       31.98809342392660
C           47.59945105189426       61.61581958244611       30.25421663007306
C           47.94255440825864       60.14403568721126       30.55098971544552
C           47.78431441617327       59.33489939352502       29.28847510896750
C           48.88490473121253       58.73922244434375       28.68792476623675
C           48.74383407921134       57.97642477555335       27.54203873970328
C           47.49393923598041       57.80045670565961       26.97599816045611
C           46.38906466943612       58.39595405766824       27.56141731866615
C           46.53388146545620       59.15657873145238       28.70690644498976
C           47.06408886461330       59.59154676270649       31.68587092403316
C           46.97079484652773       58.05996473609069       31.74837228705111
C           48.29595703277401       57.35651925072753       31.59169563899311
C           49.40785874039451       57.73379826703308       32.33522738756780
C           50.59582108129699       57.03042619402125       32.23916792061987
C           50.69253637929603       55.93348153543700       31.39994800891224
C           49.59318957181748       55.54891802153377       30.65152224107091
C           48.40850792232632       56.25770714761548       30.74862377946474
C           46.37378292118397       57.60763639192059       33.09368477889944
C           44.97793012547867       58.16257752536298       33.41146971245612
C           44.71440308791409       57.99972699133895       34.88822887760190
C           44.54322610144739       59.12175537861206       35.68867108479709
C           44.34827198083824       59.00060875117381       37.05324959417544
C           44.32405929297352       57.74811330998018       37.63944272260142
C           44.49922456511442       56.62220824665425       36.85422361439290
C           44.68829660064132       56.74710267846763       35.49015914602059
C           43.89919314381972       57.48643319008636       32.55875316499548
C           42.56769385268021       58.24881716719512       32.61163168959623
H           50.88221025530546       73.10761327498903       41.20310547756403
H           52.17860897234414       71.64866383890278       42.69361598095982
H           51.69795622710748       70.22409019351673       41.77666518719069
H           52.78548179996520       71.12548020672808       39.75554956583346
H           55.17769533078216       71.30899194371111       41.31843935961930
H           54.10496951142754       70.22072397525113       42.18722536244664
H           54.96487341754650       69.99739659497806       39.27192444639139
H           56.71163726075260       69.49916262591259       40.92794128956287
H           55.64988045683162       68.35355272403326       41.74334758670363
H           55.58284709841550       66.93966863314279       39.71951670147618
H           58.25303201932695       67.68531584098042       40.94616020564833
H           56.36755162447150       66.23115860954931       42.09360287529829
H           55.97801744952939       64.74277807310733       40.18125392346240
H           57.66567337597888       64.22187030867825       40.21088542115927
H           57.32596244934091       63.33011038067239       42.52526775648216
H           55.60871872101745       62.28094218379750       40.25150734884174
H           57.28883300128396       61.86127145630757       40.59341371338265
H           54.85012143599184       61.23811898838034       42.30866111663488
H           56.70529581552207       59.29687613670317       40.86927381113116
H           55.25194856718745       58.90995852363930       41.78770978256711
H           55.51148676345974       60.26800397041584       39.09577017248439
H           53.48225308716532       59.09362822901094       37.63606357252372
H           56.36905589509577       58.57092791190919       37.58953516253199
H           55.59384346148050       57.83107034753866       36.19348402652474
H           55.10896179964532       60.72218499953772       36.95238131166439
H           54.81914591926360       59.19794539088627       34.33308402908591
H           53.50446060959104       59.63885289578384       35.41793759791840
H           55.35300338535392       61.76998913892407       34.31607412654942
H           52.39240979901590       61.87750660718680       34.98708400615839
H           53.63117089663665       62.16308040596957       36.19775870404671
H           53.44560167638345       63.73032582289180       33.60062673888145
H           52.58125694031432       64.68853458142237       36.36410730362115
H           52.54958117869398       65.59459338806704       34.85786843424292
H           50.84077363834904       63.18542332673147       35.60686573407407
H           50.94197968757040       64.69792081976200       32.95887116639793
H           51.38641325944206       63.02082247546164       33.23146253109958
H           48.61345914563352       64.25218728295452       33.40212383224947
H           49.55987738532468       63.61375068023389       31.16440123430335
H           49.75845483578120       61.96424892826602       31.74335518410748
H           47.22655573535001       62.05556981992821       32.31995484122906
H           46.57545635703165       61.66212008002557       29.87531150841516
H           48.25977438194614       61.97414184453840       29.46099802692819
H           48.99063227674618       60.08069448484741       30.85831657015050
H           47.44793666621336       59.95601208128127       32.64049750744701
H           46.05463270439365       59.98806014985255       31.55892245490363
H           46.31977851479121       57.71902717779678       30.93784951029167
H           46.32843319745151       56.51705066024495       33.10209066546725
H           47.05128429323942       57.91839811385557       33.89292309584714
H           50.14799260771982       69.51593175027486       40.29428206409298
H           49.51491991176766       68.84215429060417       38.03217530901115
H           49.25723235712906       70.53352261222791       36.25462045547094
H           49.64077183372203       72.91894066949386       36.77228824399419
H           50.28041884851514       73.59599707929634       39.04768257709674
H           53.01061542797925       73.04681065827090       38.53092074778947
H           53.57677713989235       75.43221239025604       38.32605547274385
H           54.33883242069404       76.69706865430267       40.30450583146231
H           54.54367319485920       75.55367308838359       42.48117518604552
H           53.98456465363226       73.16922957746009       42.67957429008199
H           53.46225469671452       68.98632775577182       37.87208422691626
H           51.66218564770909       67.37158390684060       37.42384735244786
H           50.66987528519876       66.08403565208651       39.27552345224719
H           51.49400714683864       66.42519606606056       41.58384590182092
H           53.31804368870284       67.99206519849571       42.02092481551993
H           58.37539679613976       69.42300701275363       39.19040976030394
H           58.94624078064665       70.30098194111518       36.97624629801253
H           57.66482704937079       69.59315004313626       34.98975543848769
H           55.80263299671760       67.98648155589318       35.24648861766497
H           55.23057267629950       67.11258248417234       37.46296718730150
H           58.18694827904833       66.46937401889831       39.67670006059294
H           57.26268247598234       66.19228516870020       44.21152436764048
H           59.12051095326834       65.81249032247382       45.77021760132092
H           61.30751783002029       65.03740784301451       44.92487926082876
H           61.61790714840954       64.66574534526946       42.50444097465728
H           59.76665031901990       65.05589923441094       40.94918376279335
H           56.26599724592820       63.72198792759150       44.50087394210531
H           54.24006805075228       64.10792742290482       45.83739684276764
H           52.03750028804326       64.30127426644053       44.72022765020225
H           51.90491866470777       64.16908380009234       42.26594192474874
H           53.92472909534051       63.84043085176023       40.93200774669889
H           58.53141334370012       60.48245519576797       41.93328261389255
H           59.99260968497867       60.09709325472122       43.85019732970555
H           59.06937855193377       60.10040662549655       46.14523968453275
H           56.66349133735353       60.51870091488814       46.48788330628268
H           55.18864124780800       60.89968339434016       44.55663890023081
H           54.00955650641295       61.85885370718868       38.36546505672273
H           51.94739854398368       63.16416291961691       38.62142746019406
H           50.38262832275361       62.64307795540701       40.45668199604437
H           50.90131181071211       60.80625116267188       42.02530504182828
H           52.94007010187571       59.47480407272342       41.73055069354646
H           55.45283474844415       57.72631651715006       39.49312158420160
H           53.74734169313695       57.92638677206190       39.88763832217112
H           52.31354115386903       57.88238302644520       35.98186419992367
H           51.38428511439729       55.75354837430272       35.19244785845339
H           52.11094108828145       53.63736272129199       36.21301729056259
H           53.82279119014427       53.66232507384908       38.00255999505546
H           54.79550183632695       55.77219085556468       38.74111467232942
H           57.03860312705635       61.86722972840504       37.32866538145496
H           59.29816592187374       62.54240734144712       36.66801667624161
H           60.41944602240753       61.42846468396279       34.76840586062809
H           59.24873480140145       59.63150792475377       33.54582448477333
H           56.99591168861924       58.95063765187349       34.20744116138699
H           55.31783390182036       62.43729953662395       32.08356690031775
H           54.43444122871735       62.25140744585234       29.79517634946312
H           52.47677562343183       60.81868398343389       29.33533414176517
H           51.43588429929692       59.54657171274759       31.18154935931694
H           52.30921856576168       59.75134107886490       33.45966393709552
H           55.43212123151603       64.71744818842444       33.05066348096327
H           57.67273621746185       65.53881690480911       33.62502894159698
H           58.42349931983379       65.54961688579326       35.97611414145555
H           56.90198392589056       64.74768276373170       37.74420208097317
H           54.66781062694072       63.93314485382927       37.17464582988116
H           49.57307744493167       63.95579212678871       37.33671464238192
H           48.01324127481632       65.60221149026188       38.29576478439130
H           47.52275974136736       67.69205923822950       37.08196206221699
H           48.67711663052569       68.16577880545901       34.95126547367695
H           50.27169554313143       66.55856210982921       34.02684250538982
H           50.39165029439977       60.95556765803446       33.76201320314312
H           49.62992127775219       59.19746752797299       35.30716919581325
H           47.56674246234578       59.50663180119518       36.61338367776011
H           46.34835849660886       61.65099654508460       36.47751797416264
H           47.15557889299060       63.43892503868272       34.97950514253753
H           48.11615870470973       64.45416992866186       29.54455947339183
H           46.82135838301163       66.49233402441384       29.12930815441790
H           44.86782677552698       67.03260728292121       30.53617140229507
H           44.21996217255787       65.50263424728104       32.36545854802589
H           45.52343066950663       63.46496267362151       32.78515170372726
H           49.86511898898896       58.86334160525033       29.12665767881497
H           49.61170904443693       57.51467413381949       27.09412854400598
H           47.37974671501945       57.20315611204014       26.08315808575287
H           45.40965524451977       58.26414599905113       27.12319779286411
H           45.66425971760114       59.61101849183243       29.15909842789679
H           49.34133967011345       58.58779045078376       32.99241974796943
H           51.45366900493760       57.33672347070559       32.82153779789697
H           51.62209369086528       55.38781747131443       31.32779485879429
H           49.65583137579652       54.69579265033563       29.99017001485887
H           47.55869082812428       55.95787344050515       30.15107523989403
H           44.82676988720245       55.85790405471186       34.89140702693617
H           44.48711821248512       55.64219046997033       37.30764819791647
H           44.17276312680997       57.64569490904057       38.70325526666200
H           44.22641289746980       59.88464986945650       37.66562603565998
H           44.57396640527342       60.10030773799563       35.23023915890019
H           49.76588234083444       72.14866086083697       43.19430214848710
H           48.61301083517503       72.36558655263369       41.87218473396979
H           49.22944908002582       70.75951095235472       42.24321465515807
H           44.96804063793239       59.23336059403843       33.19258756706554
H           44.23750018868773       57.43930163685757       31.52249259491823
H           43.75737014656612       56.46350906122095       32.90930127245877
C           41.44093255904570       57.46012388287556       31.92259729984039
C           42.74576643111926       59.61872535878896       32.00510062679183
C           42.67391354518843       60.75503991504137       32.80183672286304
C           42.88363037908247       62.01530136577693       32.27020676934937
C           43.17391124008837       62.15916841065157       30.92471403356792
C           43.23915116257618       61.03568440971780       30.11759690171963
C           43.02597413010739       59.77752900454654       30.65260344291752
H           42.46021609653055       60.65213955753998       33.85696984165114
H           42.82156420063063       62.88306020845899       32.91095413835578
H           43.35139739150708       63.13932732804071       30.50787722145429
H           43.45744105953145       61.14298959675887       29.06416483285776
H           43.07911610152566       58.91043933567452       30.01003793592104
C           40.91717655121571       56.33737958917026       32.82428701238955
H           40.61604921425924       58.13590109541860       31.68397864995737
H           41.80159006789241       57.03694031154368       30.98297097431275
C           39.86868504768211       55.49399561871252       32.15731851782440
C           38.52052482906034       55.70760483259736       32.41352786291544
C           37.55388631268830       54.91273169944553       31.82314629302904
C           37.92235789738458       53.88918403049624       30.96737829721736
C           39.26231946258287       53.67531295990391       30.69460450618781
C           40.22585014572344       54.47348288361729       31.28434934832503
H           38.22597234282895       56.50450483191818       33.08286327578771
H           36.50938546894795       55.08983894035610       32.03664824871960
H           37.17080814371162       53.25900119071922       30.51550355518768
H           39.55549875395312       52.87904909285167       30.02625311158756
H           41.27038782514801       54.29575011268525       31.06982123800831
H           42.29819245249292       58.37848070093909       33.66656568068476
H           41.75429029040497       55.70063173680381       33.11898705474364
H           40.49520178659188       56.78379126284056       33.72640497344874
C           55.75604961853565       56.06378887127713       34.20367429802980
C           57.07479434509698       56.03714299802305       33.76452690205478
C           57.37281198972956       56.64081623736343       32.54722100140198
C           56.39064678378563       57.26021681766303       31.79490468247925
C           55.07962459836369       57.27479942947847       32.24078294422198
C           54.76778079434366       56.66741291082378       33.44456318217877
C           58.19465800052416       55.43169466807777       34.57760205042074
C           58.75808021247603       56.50222043961132       35.51754925349327
C           57.77054129797803       54.20316337965107       35.38538310520045
C           57.18259828352546       53.09669804732236       34.50116336857620
C           58.24206837374338       52.49789803263073       33.61073032212006
C           58.17798028411193       52.67199965908075       32.23346433077734
C           59.14171998206771       52.12923751609932       31.40154059075641
C           60.18806025429489       51.39740034608479       31.93592791731822
C           60.26853461438199       51.22686878099936       33.30707843907450
C           59.30458528135390       51.77143585559498       34.13617828862538
C           56.50958190793948       52.02757319286737       35.36774282411484
C           55.82239120611121       50.95221164900772       34.52451107411476
C           54.78568454851469       51.50111258083692       33.57260430821231
C           53.90115664669931       52.50681310515348       33.94498620961710
C           52.91587666211535       52.94551853421803       33.07786774054777
C           52.78722180280188       52.37808729288516       31.82128986910599
C           53.66527621314558       51.38002430864743       31.43351965021904
C           54.65446305956812       50.95080570878952       32.30220733420052
C           55.17115905290054       49.87670112183153       35.42603248646905
C           55.68419904341664       48.46298498205550       35.10831329854069
C           57.08989657925396       48.30664841423045       35.63872378706339
C           58.18335816736202       48.42309236147841       34.79035805520418
C           59.47557043539898       48.31200761659632       35.27276749804989
C           59.69910119652069       48.05814986037477       36.61343148825232
C           58.61932124693570       47.94144627938060       37.47147098956408
C           57.33210188632911       48.08203588262585       36.98877617987515
C           54.76380234338495       47.35649709628925       35.64561655248809
C           53.29983527474773       47.43194374000166       35.17501034075700
C           52.58245198600019       46.19715415145381       35.66321180896133
C           52.77634338049198       44.95624985757963       35.06725113139864
C           52.12884810636729       43.82996745533472       35.54350968072652
C           51.28020840643276       43.92800801068722       36.63277887156706
C           51.07749586964474       45.15696369737708       37.23627593500489
C           51.72651141175743       46.28048406882573       36.75469750333478
C           53.21937151187220       47.60816041101518       33.65497282409999
C           51.78854227148190       47.57482729199267       33.09618775566751
C           50.91932451396319       48.45582764087255       33.96035402214084
C           51.20287710328318       49.80765700219330       34.12215878363831
C           50.51444625265857       50.56847861254173       35.04768846014787
C           49.52785428658684       49.99307986729496       35.82981597374940
C           49.21484148071141       48.65747618619086       35.65556455395762
C           49.89926425666430       47.90049299558660       34.72059150924014
C           51.75613109751357       48.00845959453790       31.61871452740697
C           52.83651593292850       47.37151903768626       30.72294292639656
C           52.77459387318728       47.96537907014613       29.33613418217243
C           51.66805067966677       47.79294187963470       28.51388046894387
C           51.64081407479483       48.33057915475822       27.24014098400806
C           52.71860936541032       49.05583269821791       26.76354761012382
C           53.81933709381893       49.25232509083168       27.57818331402746
C           53.84103919065084       48.71481934316830       28.85288207196123
C           52.72035173986142       45.84085052087928       30.69731397582298
C           53.90095594370402       45.12558230250474       30.01931798512629
C           53.63921148245007       43.63834698686313       29.97546597045578
C           53.57107215879346       42.90324589927406       31.15508725914132
C           53.37788622769222       41.53494371660346       31.13274782904935