3536
 energy: -3716.258852919986 gnorm: 0.000662940968 xtb: 6.6.1 (8d0f1dd)
C           64.61983392173710       68.87609411404586       45.43253306736869
C           66.04526457559656       69.26173580326778       45.82147908672895
C           66.98740306466067       69.01428528662161       44.64296166199636
C           66.54030594455898       68.47177276254975       47.03935649867728
C           65.72075298135398       68.63781909547478       48.32376020746690
C           65.67064385040089       70.10081904427990       48.76607256113480
C           66.31341890067294       67.80175738016472       49.46794851494251
C           66.42202929128914       66.29048042458267       49.22867208462485
C           65.08839967268774       65.69302664711772       48.78356697273793
C           66.87770128338333       65.56903157740931       50.50704248195613
C           68.23204858084333       66.00107533040189       51.07886496361814
C           69.35255148859493       65.81488947230173       50.05436218007243
C           68.58913538235325       65.19944126271950       52.33977199112288
C           67.60784919686346       65.28179825147619       53.51649275441381
C           67.33776370128963       66.72993879842745       53.92171105945091
C           68.16717855995984       64.51558872649726       54.72552803680313
C           68.14181057474359       62.98835750960970       54.58848254477411
C           66.74647577988878       62.44760654884598       54.89661919548452
C           69.16637189656514       62.32838443123153       55.52196367279171
C           70.62721566525913       62.43385420537412       55.06696967749806
C           70.89413716574677       61.57926106594684       53.82660052486450
C           71.58575588829606       61.98540802127561       56.18179828295887
C           71.70398202924370       62.91641277275381       57.39291254211232
C           72.19024218257763       64.30551605602112       56.97779152329004
C           72.68656381836873       62.34899622228927       58.42850707386769
C           72.30747797413477       61.03129086727755       59.12398939250176
C           70.97962836503272       61.15593479104272       59.86169125006171
C           73.45787753755883       60.68042020818126       60.08053449764756
C           73.35105845679583       59.39279943679122       60.91553581654551
C           74.64618827233430       59.26084538508470       61.71843284493110
C           73.09473595107677       58.17146085241206       60.02166735796611
C           73.37184230661016       56.78221598833039       60.62346731675144
C           73.17153149677689       55.75354378624614       59.50758840686117
C           72.49866167528128       56.45203849945101       61.85096763102451
C           73.24926422578592       55.71361117445101       62.96938517314793
C           73.82270780149585       54.37765906933919       62.49335611099709
C           72.35669897469039       55.42994487432561       64.18764871502047
C           71.79362535945201       56.62679382465342       64.97144790109581
C           72.87514374251541       57.65290448962042       65.29952085594734
C           71.15876840386218       56.07996646466319       66.26108073189560
C           70.25724506862053       57.04256497638389       67.04792962003145
C           69.92137266298060       56.41017026192118       68.40026494535768
C           68.96686502697962       57.38248962437530       66.28149061793104
C           68.95380126661195       58.78235159583196       65.65303789648279
C           68.62356635223938       59.83765004518025       66.70762703233943
C           67.94410719051442       58.85705401294090       64.49858229240002
C           68.42876088961759       58.17122731991665       63.21756676590788
C           69.52153836845912       58.99879231661707       62.54127557045765
C           67.30627792143514       57.95320364676803       62.19581934181983
C           66.12837144358656       57.05419450892175       62.60096936602184
C           66.60121440390103       55.74501490148311       63.23067862402522
C           65.26478638479369       56.76015705766658       61.35683487153032
C           63.93887649861351       57.52558901221829       61.23964245405373
C           64.14512444342172       59.03742563855066       61.27640811696462
C           62.90499194078778       57.05769101640445       62.27441667367245
C           61.44951018795539       57.23913014984996       61.80507483860301
C           60.80231575378728       58.48245019017680       62.41459966260945
C           60.58781997165344       56.00985074326120       62.12893052396723
C           60.90092951321064       54.75405930621745       61.30834401251614
C           60.62048094136402       54.97997371236502       59.82180893502495
C           60.05928810258008       53.55346162440036       61.76606465873852
C           60.21848964656282       53.05183234567475       63.21101978437070
C           61.67444130994556       52.74902922060659       63.54516415045966
C           59.33845333363761       51.79966728235154       63.33725034631719
C           59.26461796658884       51.08806012128857       64.69388626743471
C           58.62040248688506       49.71883445146412       64.46904623579051
C           58.45632890748346       51.88080507579202       65.72607062468468
C           58.64910414270272       51.38434757881572       67.17124808851007
C           57.36357870508619       51.58701855051295       67.97028550769355
C           59.82977170088266       52.11875291430810       67.81665200271175
C           60.33557646426878       51.55664395610622       69.15288758314787
C           61.20712907435790       52.60919544640497       69.83829696336423
C           61.11820948278707       50.25394518594246       68.95617391699456
C           61.47537698533682       49.54054992775565       70.27477883234941
C           62.99136831837898       49.46749986086738       70.46390573269376
C           60.88727534866914       48.12598044367761       70.34121163580659
C           59.35838714878594       48.05874043482689       70.47129934366703
C           58.91026020444226       48.47078568751799       71.87133990489852
C           58.91265761171385       46.62775978726625       70.14504195630575
C           57.40737030857866       46.32946037215135       70.21206531885680
C           57.20368311826215       44.86211883584328       69.83274943113484
C           56.62911675890869       47.28069089540919       69.29274439765439
C           55.17679729551789       46.89985153079203       68.97264075173435
C           54.62874823423824       47.88869479572553       67.94445480789204
C           54.31214530135352       46.88462570589996       70.23845023202614
C           52.91239624355962       46.27029564456657       70.08462009572186
C           52.08868606205034       46.58546053266313       71.33341646871547
C           52.99890859584480       44.75837766088300       69.84716566237245
C           51.64826641040521       44.08080611239131       69.61976183997116
C           51.82023354298849       42.65279096593964       69.11383197310747
H           63.91172512351626       69.15623795073878       46.20786691862292
H           64.32914400544102       69.38167137439467       44.51400743156419
H           64.54810585424008       67.80270360432790       45.26848191570323
H           52.39658463265256       42.06213330105732       69.82309487856158
H           50.85337232912411       42.17260869354461       68.97720274559946
H           52.34579063607592       42.64528650716480       68.16079609425712
H           53.61676194457609       44.57552986786417       68.96575619563293
H           53.49612117549714       44.28838085779259       70.70054796973777
H           54.83191600140558       46.33451245858491       71.02537832716163
H           54.20366623958350       47.91605449267884       70.58576244614058
H           55.17389931820422       45.90721648118484       68.51679327125977
H           53.61549836756102       47.62801174896649       67.65292850436411
H           54.62074638584036       48.89795717109557       68.34939153694798
H           55.24725750120511       47.88371599815111       67.04916952451124
H           56.62939366511041       48.27816820418647       69.73806250525610
H           57.17106811786068       47.34558050954450       68.34726388873946
H           59.25540247463082       46.38452624472664       69.13567763720866
H           59.42662666809679       45.95002107171840       70.83374433144245
H           52.41218929610007       46.72634155779508       69.22459154586446
H           52.52216387851880       46.10401046659613       72.20829966359064
H           52.06623717423352       47.65877645807059       71.51406720934304
H           51.06320346968395       46.24108168256907       71.22584952079509
H           57.06933493667336       46.46223110152002       71.24484050585930
H           57.43800757764971       44.71077801854612       68.78152827490385
H           57.86146347748517       44.22666801421298       70.42366390395534
H           56.18138749632011       44.54117495778050       70.01110170910664
H           58.91535000171461       48.74499290213314       69.74451766855086
H           59.30655590654527       49.44845860894012       72.13482039614706
H           57.82643826628174       48.52441465954372       71.93398654034934
H           59.26247921108808       47.75293351933250       72.61014085518603
H           61.19087428364995       47.58655513003968       69.44006366225399
H           61.32516853234005       47.60207134501945       71.19602347902712
H           61.06826358944049       50.11544201880577       71.11215030865493
H           63.24020652445266       49.03918651996738       71.43353152849987
H           63.44216895245906       48.84315209255280       69.69476472053279
H           63.43615849435288       50.45825602707201       70.40554373433058
H           60.53171399206985       49.57936919449146       68.33203677594761
H           62.03340367145963       50.48230728476078       68.40598064579694
H           59.47921658130353       51.34777874748915       69.80266339515985
H           62.04852928008990       52.87606298289702       69.20113185905312
H           60.63241298185707       53.50977680251268       70.04315934156844
H           61.60081630421934       52.24422413174263       70.78352705806458
H           60.66788720884695       52.12985347821091       67.11516524649696
H           59.52390495573250       53.15538946330356       67.97153314919453
H           58.86415666528516       50.31171308129103       67.15283882815531
H           56.53752343445863       51.06224318051609       67.49398710362622
H           57.45968159759191       51.19793539881342       68.98122347427712
H           57.11601032564439       52.64521570767703       68.03065803305698
H           58.72763418817097       52.93681586777073       65.68105082115767
H           57.40058725093121       51.80835039141778       65.45396220825435
H           60.27680143241093       50.93176779704216       65.07886726117555
H           59.24603201602434       49.10066004534738       63.82942153690771
H           58.47312002463452       49.18933905014150       65.40637168958037
H           57.65092093519739       49.83501361160343       63.98792170963287
H           58.32088663233986       52.07163149644385       63.04848132767383
H           59.70303544443758       51.07376328447942       62.60563510531696
H           59.85475615091659       53.81629941646629       63.90521820948201
H           62.28969341402494       53.63861692101428       63.43285275862669
H           61.76990267572153       52.41167852758406       64.57408353361708
H           62.06499631429733       51.97309341443268       62.89088386099360
H           59.00607481731752       53.79826364343465       61.60476446638047
H           60.29818224325442       52.71692815291994       61.10298980768693
H           61.96114999312570       54.50419597552234       61.41226985668870
H           61.28325740353933       55.72958454038383       59.39958582309606
H           60.76814465985294       54.05772024354639       59.26401444209897
H           59.59191380366556       55.30582074034549       59.67881206892518
H           60.70413676553749       55.78608292360759       63.19208537185943
H           59.53932368296272       56.26721173166206       61.95677007904801
H           61.45455853377749       57.37616417063698       60.72029140486446
H           60.67137713786030       58.35706664507344       63.48711070440294
H           61.41241107354055       59.36583849339694       62.24403148644993
H           59.82434874985046       58.65914545557725       61.97002379298184
H           63.08216453324961       55.99956424774754       62.47337136812529
H           63.05669247522369       57.58405019664552       63.21832108683562
H           63.54413804788551       57.26695815964803       60.24997898660841
H           63.22532489413165       59.55672680066736       61.01935352778685
H           64.45630081796473       59.36592609097082       62.26485455522612
H           64.90747451091885       59.33509624472064       60.56033256726175
H           65.85164355703928       56.97361329373150       60.46065134648887
H           65.03215818729431       55.69254810110432       61.32822047156895
H           65.51680738038348       57.57677410193683       63.34173714575721
H           65.75052175838410       55.10249469517874       63.44603864152098
H           67.27153289212666       55.21593655720036       62.55509566929866
H           67.12320702460893       55.92243970149676       64.16713378671318
H           66.91046198349510       58.92925022255397       61.90846146565568
H           67.77181808958868       57.51419436089623       61.30767546433535
H           68.85782096729450       57.19764774363956       63.47060014600293
H           70.36118085837197       59.17725961515828       63.20856566637305
H           69.89342965880374       58.47651088902230       61.66161417769494
H           69.12812900636730       59.96451640406620       62.23138086747019
H           67.01097659784017       58.40088005814238       64.83338368680057
H           67.73569184690257       59.90489308745737       64.27101520706167
H           69.95239131207192       59.00233689514204       65.26592003136541
H           68.72890135842039       60.83953243136200       66.29649816330385
H           67.59930942164804       59.72033628152856       67.05563163550413
H           69.28652652928025       59.75064714535650       67.56594767671656
H           68.82252430047593       56.63248544372155       65.50366023374849
H           68.11097579408700       57.30743423657152       66.95551300055197
H           70.81104056006563       57.96556854450222       67.24546015489827
H           70.82770104869014       56.18964774843048       68.96106629598441
H           69.30878288603901       57.08333537692350       68.99631588220153
H           69.37342256550059       55.48056660307232       68.25859553461743
H           70.56679123769831       55.19465107097097       66.01196407240961
H           71.96882570271416       55.74930405291454       66.91777370149393
H           71.01975506995944       57.10991698596397       64.37163723188878
H           73.71883951227990       57.17302987576688       65.79230740356289
H           73.23331929029928       58.14625320245721       64.39992569242099
H           72.48698339634524       58.42115258471539       65.96410082503675
H           71.51811656081097       54.81022387568699       63.85864839586131
H           72.94465001415909       54.82784387837844       64.88706773231938
H           74.09147877888412       56.33538778275466       63.29146430191151
H           74.56094987425988       54.51970281479006       61.70911773476373
H           74.31266599143044       53.86329654325547       63.31870708780741
H           73.02735544726383       53.73603179423080       62.11929776007380
H           72.10502374419859       57.37749771268835       62.26835326514961
H           71.64420840951563       55.84762376361426       61.53808423372326
H           74.42295127552428       56.74759809246520       60.92447483379595
H           72.17004861226025       55.84397912946267       59.09082941535903
H           73.88730372144111       55.91665204182871       58.70324784660520
H           73.29756529519136       54.73799727749950       59.86943985088406
H           72.05587117148180       58.20031788990387       59.68463898051384
H           73.72674717494633       58.26800434694609       59.13402678158085
H           72.52470038973097       59.50274685996384       61.62426088682641
H           75.48927139644616       59.07452905648474       61.05578352813119
H           74.84291428047597       60.18045248271640       62.26667838432222
H           74.58607640252509       58.44909889078959       62.43702286831813
H           74.37656757074933       60.61642895810972       59.48947178713178
H           73.58192083882957       61.51581037968698       60.77614381015635
H           72.22151676302457       60.23973198301256       58.37425823066307
H           70.73810838390123       60.22808562481370       60.36820639943780
H           71.02668212329733       61.95277687636436       60.60120482710926
H           70.17213721050547       61.37374663690721       59.16800847451849
H           73.65545039022085       62.21606548586621       57.93798685479013
H           72.82286325697456       63.10419184342970       59.20850129525742
H           70.72493379721622       63.03134950846461       57.86588889012219
H           71.44452725755372       64.82120276363034       56.37923615388238
H           72.39210945026225       64.91471005023223       57.85704053521156
H           73.10956856350674       64.23214479043932       56.39935361453334
H           71.26472648981857       60.99950869897820       56.52525712945472
H           72.58517530540027       61.87085600033484       55.75182548601400
H           70.84760113879349       63.47142439530027       54.80244487581708
H           70.21670752851843       61.83389704639952       53.01590343598281
H           71.91147740427103       61.73504245140544       53.47191556673467
H           70.77506033566526       60.52233062456541       54.05473066406684
H           69.06436913805598       62.78409241126037       56.50925747206872
H           68.91705543725206       61.27013997693510       55.62469330966862
H           68.38501558940354       62.72249997049006       53.55794057260300
H           65.99831367959780       62.94040661772906       54.28069852532469
H           66.69726388050285       61.37909427522983       54.70049363881068
H           66.49402460154560       62.61616074825738       55.94080331059224
H           69.19227000747649       64.85314729752695       54.89403763528746
H           67.59041803009123       64.78458443600195       55.61394792911892
H           66.65839249968987       64.82395695657991       53.22348470085963
H           66.68103709725985       66.76287913622983       54.78816015547756
H           68.26708957649171       67.23493366664803       54.17848227534932
H           66.85729658639579       67.28331663979135       53.11924492923740
H           68.70406297205857       64.15294332858527       52.04879578710037
H           69.56587126979116       65.54722842817168       52.68971827290073
H           68.19079413330513       67.06053500613011       51.34567998978341
H           70.31860672427014       66.03810984814081       50.50346717512164
H           69.37349349647840       64.78778923575342       49.69482136768269
H           69.22130676154487       66.47531698526195       49.20126345092024
H           66.10815318181933       65.71950142866444       51.26647812851898
H           66.92469685497379       64.49700148717312       50.29743499907485
H           67.15750237325813       66.10207262789935       48.44138538561913
H           64.31413090777745       65.91229914103020       49.51581492109865
H           64.77466468714532       66.08910458932667       47.82152803365643
H           65.17431386559916       64.61331998809466       48.69272878347037
H           67.30850664937263       68.19577580838752       49.68568584210556
H           65.69476793171449       67.96141107351635       50.35555138088190
H           64.69623667552617       68.30312782206801       48.14374064074948
H           65.18238746410931       70.18591705776188       49.73464999989969
H           66.67647005638065       70.50700002784677       48.85585448900208
H           65.11642382559268       70.70945102026036       48.05628166957641
H           66.55544070112781       67.41576876767236       46.76307097720218
H           67.57145207284572       68.77095411862125       47.24869051167736
H           66.06868813968681       70.33175362944763       46.05169661865498
H           66.67925945512324       69.59570698249819       43.77665588127675
H           68.00655083671253       69.29647950754548       44.89842678523208
H           66.98231470213933       67.96139861488021       44.36767409081501
H           51.07758094381646       44.06037487972046       70.54988302421994
H           51.07438486045675       44.65450446778058       68.88996957277659
C           45.25073004356957       61.11954110913593       46.23031237983862
C           43.99469915362040       61.12641875516602       47.09667631466200
C           44.27142696550496       60.41196249046656       48.41770665158160
C           42.81221752018221       60.44998572400104       46.39313711402753
C           42.26532983450572       61.16659628277387       45.15297939232191
C           41.65069966717246       62.51779905575670       45.51669058383442
C           41.20884135378227       60.28396990136261       44.46977716427001
C           41.77480427254640       59.22378174732587       43.51545001803672
C           42.14685077698854       59.85076395753807       42.17353826895845
C           40.74158525755382       58.10583484266775       43.31135938454466
C           40.73217301669875       57.07190436770976       44.45512387392183
C           41.50088728151984       55.82529603039168       44.02345788647075
C           39.29289926975339       56.75332909712597       44.87948129277180
C           39.11672393697884       55.70142534425725       45.98663431118487
C           37.61819232957600       55.47857345054476       46.20220572040956
C           39.81221896532783       56.08784013214918       47.30722674441775
C           40.67348458687825       54.96314721652374       47.89608807071006
C           39.80027866763312       53.81008736075989       48.39385408839378
C           41.55431575811679       55.44222708478655       49.05811480564241
C           42.57262340111776       56.55053619554724       48.75603734947681
C           43.37131969932739       56.26615622124838       47.48508476938906
C           43.56674041554512       56.69201589645833       49.91876060762860
C           42.96657073795265       56.94134712613025       51.30435025902865
C           42.10844215351715       58.20562858099143       51.32474540214393
C           44.06981710764949       57.08588570267190       52.36244005799526
C           45.04214019149273       55.91039300491977       52.51058358327708
C           44.29649736385449       54.61702695724288       52.82195670493635
C           46.05498728383756       56.21780892293090       53.62466211058575
C           47.35222561768729       55.40725660541207       53.51183644517335
C           48.13764944238919       55.49384756027946       54.81830039890202
C           48.20169248162691       55.87790848329110       52.31610514802712
C           48.45491545492581       54.78224983724259       51.27558874532109
C           49.47737616488601       53.78072284363758       51.80338757446050
C           48.93917438165166       55.38422772831097       49.95100165085168
C           47.82660574631464       55.97566446092576       49.07956012534129
C           46.97988588121623       54.86326686398792       48.46046544827949
C           48.40948539277897       56.82377283476192       47.94259090226238
C           49.02229934161728       58.17879531314523       48.31385548328468
C           47.95455527369686       59.15126393364058       48.81070414311040
C           49.72597395212511       58.76804470050360       47.08000187864697
C           51.10812053999977       58.15364616128051       46.79012861296231
C           52.21082318641460       59.11215221177441       47.23807421087047
C           51.28552754686354       57.81375634880389       45.30301413320972
C           50.49056540610071       56.57867396420931       44.85835526398669
C           51.20437652336533       55.29427831723230       45.27424055188407
C           50.24497838771033       56.57232258064045       43.34341466090043
C           49.06833496585421       55.67050649727829       42.92160061197995
C           49.48402333344719       54.72047654132088       41.79936618752029
C           47.85199386117525       56.49311102006615       42.47554639365845
C           47.19979870266978       57.31650989232011       43.59349739161279
C           46.32638612931611       56.43067576343547       44.48129086045421
C           46.34728707927200       58.46178980723214       43.02984320019740
C           47.12058172769634       59.64527904887981       42.42904840133556
C           47.95677887418131       60.36204333756810       43.48573789210003
C           46.10452925758292       60.59989752130350       41.78510082174429
C           46.67096687453765       61.79910849825473       41.01065176659444
C           45.52174835655280       62.74869908699149       40.67000296733548
C           47.39822824517444       61.33985337437610       39.74271847190141
C           48.25652622006537       62.40898280814780       39.05419909175772
C           48.73002393164491       61.87431337296709       37.70136510212348
C           49.45737661925727       62.84037690648058       39.92072789746597
C           49.41487457928283       64.31449547167240       40.34149525084605
C           49.66104265627031       65.21903315779736       39.13322586218376
C           50.46096442701582       64.63239409734264       41.42013018286769
C           50.16244604848117       64.10015393017942       42.82686113287912
C           48.96060276479052       64.81091315584291       43.44842324244581
C           51.38844699622749       64.28459611354643       43.73492705194337
C           52.48971029945627       63.23154662958716       43.56079606493386
C           52.08186904616485       61.91086111437424       44.21177616541542
C           53.80228311676287       63.72528337294052       44.18815329190157
C           54.63105986915289       64.65475048162921       43.29441827113911
C           55.38937950248948       63.83951212589827       42.24840111400940
C           55.63938663340188       65.46107668572517       44.12537437091240
C           55.07969692431907       66.71648388011016       44.81086844284996
C           54.85168693213439       67.82116779785918       43.78049786311456
C           56.07488086109452       67.14865093370391       45.89980348613457
C           55.86813226376092       68.53347208167911       46.52802428735379
C           57.03965972134211       68.82929553142183       47.46368840255537
C           54.53448720320990       68.62152029619403       47.27775787441993
C           54.17747802647965       70.01024981212332       47.83331807967261
C           52.91507651417647       69.89716566461402       48.68630734869184
C           53.99243871824854       71.01078267932107       46.68571498313018
C           53.53708876287979       72.43094943170297       47.05542324306573
C           53.37366881817537       73.22575591242597       45.75858448476961
C           54.53844453672760       73.10584179274620       47.99747138627857
C           54.15327120852086       74.50006735964517       48.51126265252163
C           55.31378795130369       75.04847481012935       49.34526958230980
C           52.86226343760001       74.48657682234507       49.34952142428074
C           51.62282925783855       74.97321624155717       48.60038548253890
C           50.39007366503598       74.96336667670927       49.49711968908852
H           45.51801509939661       60.09819972375253       45.96446871311012
H           45.09971972044953       61.68731600721040       45.31540342629912
H           46.08535248904857       61.56490660190357       46.76828314953207
H           50.18642213922048       73.95418101531871       49.84927556372129
H           50.54145214999068       75.60376627514566       50.36407649881944
H           49.51655251504578       75.32059733422663       48.95620034510108
H           52.68047481121736       73.47884377411286       49.72610246177053
H           52.99743579718763       75.13363269599017       50.21958426436046
H           54.69109083563835       72.46689582015122       48.86884768482225
H           55.49734970227752       73.18147076456124       47.47646011766191
H           52.56327607108235       72.37169062222399       47.54760435982626
H           54.33226795804135       73.32599264229698       45.25237713870754
H           52.68557435986256       72.71745302588569       45.08555178822870
H           52.98315585558990       74.22174101949086       45.94761770727415
H           54.93735678842341       71.10200820218330       46.14579742039185
H           53.25703205787964       70.59405375780814       45.99073150367173
H           53.72803937535257       68.30454682329136       46.61351033583003
H           54.56878249235813       67.91303961227386       48.10975939366013
H           54.01327692350217       75.17185823991485       47.65847281972855
H           55.10365737527738       76.06344599426878       49.67637522299256
H           55.47531961820521       74.42604625460004       50.22288680351637