3258
 energy: -3427.439697599697 gnorm: 0.000713185467 xtb: 6.6.1 (8d0f1dd)
C          104.07866718619248       95.96508434686540      100.56213591746085
C          104.79062650972880       96.38865897313102       99.28302707968975
C          106.21680371752025       96.87808007655102       99.53111063339344
C          107.12857296053959       95.79956516261974      100.11370579432970
C          108.60859558059512       96.17586958851825      100.05929864139912
C          108.94136970748593       97.43263188991403      100.85924972351947
C          110.44754187063030       97.66022514915377      100.94913829834609
C          110.79075872599225       98.97669235599952      101.64042907422565
C          112.29802828627263       99.14692373739564      101.81076649887189
C          112.71335974391202      100.56330546175899      102.20579122061784
C          112.09922849373525      101.02642133054128      103.52291677062956
C          112.65832457635830      102.37061876561134      103.97900705354527
C          111.91414062209206      102.90205402660609      105.19939270379982
C          112.44386945896184      104.25263526194631      105.66779208680599
C          111.57411982874372      104.87161845263910      106.75845060578123
C          112.14570118870722      106.19519330743590      107.25798224582624
C          111.19589050255783      106.92459960495803      108.20293486823728
C          111.79874700009846      108.22231370315099      108.73654561396411
C          110.76721831547205      109.06872292798832      109.47649233162429
C          111.33295698451784      110.39393325290375      109.98476309979618
C          110.22174222988438      111.30034771504651      110.50794419011136
C          110.68518905338195      112.70078392306932      110.90310507707696
C          111.59034853741605      112.73153335701831      112.13227860827064
C          111.84665478989368      114.16093605328153      112.60556680784939
C          112.67667741294811      114.20252792456343      113.88602619688854
C          113.17997358719748      115.60038369699657      114.24827241796983
C          112.08814974274586      116.62883500956468      114.54400095416992
C          111.28717876438023      116.31064709524230      115.80354522876505
C          110.30675638306531      117.42475316962012      116.16325938144509
C          109.47038776913287      117.06644646680391      117.39120410921467
C          108.76128676146779      118.26493402346377      118.01789297099079
C          107.65712448408976      118.87914335228569      117.16154561729863
C          107.08511967849761      120.12055079466815      117.84210876324134
C          105.95473421623576      120.77874964149640      117.05637916344439
C          105.55997948841987      122.11682689701944      117.67889438256883
C          104.55947943999793      122.91682460577849      116.84646161810402
C          103.17421818936660      122.28016217611703      116.77941922856243
C          102.19457031758355      123.15232669164415      116.00016185808639
C          100.77378782781703      122.59057506105469      115.95002264763841
C          100.66294602049098      121.27377271244674      115.18353199704725
C           99.20805146097037      120.90553187736131      114.90279294706710
C           99.05859632352175      119.57400767017648      114.16398439922375
C           99.15390507351904      118.35325169091993      115.07559158088540
C           99.03957854986413      117.05304053470627      114.28273996601857
C           98.92730566961190      115.82582454990080      115.18254352817284
C           98.95083065655915      114.52847621397440      114.37793191468452
C           98.83413152981855      113.28098122210608      115.25324822259941
C           97.41524891327632      113.02928239200347      115.75844671717631
C           97.36198084237898      111.84430126274607      116.71763876877601
C           95.94304387587897      111.51815657937594      117.17282901654740
C           95.92702685816386      110.38425029946220      118.19463154636294
C           94.50937978718542      110.02955030704214      118.63785283161963
C           94.47409898402140      109.04726928931484      119.80933578145007
C           94.96891205733007      107.65036911866648      119.44258833931141
C           94.98716892471505      106.72454301147476      120.65620875602582
C           95.34826959013478      105.27732389431209      120.31475143165616
C           96.68070698277999      105.09893381946804      119.58487181369432
C           97.87617926215415      105.66111831402011      120.34675094592150
C           99.20880985809795      105.40644313632498      119.64329032742198
C           99.35572326190866      106.16669240850787      118.32243161675036
C          100.82132513766295      106.41118836645005      117.94887765120029
C          101.45031730316997      107.56748180283890      118.73136073996019
C          101.04263696195703      108.93228273081159      118.17923568003170
C          101.40200375857060      110.08452050228598      119.11493904566275
C          101.06170251372083      111.43024557098671      118.48089936655157
C          101.23113521389173      112.61700646087721      119.42655215757736
C          100.84254133595152      113.91961575931744      118.73225774646355
C          100.99910511435914      115.16003844518390      119.60689032233290
C          100.63525415287302      116.41853535143430      118.82257264729000
C          100.76116386067714      117.70303153337805      119.63582266306179
C          100.36731064698797      118.92333002622820      118.80784816326604
C          100.28498625503846      120.21938280951454      119.61239342284125
C          101.62977601094795      120.68764939073471      120.16772023436928
C          101.56883317335033      122.14573967102947      120.61901122012132
C          102.91701333392058      122.67207247431939      121.10673787782541
C          102.85833700753901      124.17110921610605      121.39370390231409
C          104.18006079761712      124.76630586915255      121.88218128594735
C          105.29102259543654      124.71602782744924      120.83476590906298
C          106.52334893726977      125.50532825293928      121.27258321094352
C          107.64758788410772      125.48211569138027      120.23434601761966
C          108.41203451809345      124.16058969509020      120.20389051139827
C          109.45022294354712      124.12560147581634      119.08587495849378
C          110.26594709020462      122.83528053425771      119.08717812570984
C          111.20628076382948      122.75860199815926      117.88790205674159
C          112.01478966281556      121.46522123739898      117.85624052779691
C          112.90212787879678      121.37542183259423      116.61781642114521
C          113.71476347587752      120.08471467604328      116.57968085972682
C          114.60126308286102      119.99857207804614      115.34077934891116
C          115.49821065067272      118.76542770099185      115.36649709629529
C          116.38058922487640      118.65783341645783      114.12708913217182
C          117.37951018125511      117.50967081485554      114.23954740502604
C          118.24435094239251      117.33832220182296      112.99221368608099
C          117.48566320965436      116.71297649281769      111.82374251614578
C          118.39809322776867      116.36426436055039      110.64897856769075
C          118.92225222225494      117.57676816653853      109.87814109681763
C          117.89056669978065      118.17912553142577      108.92909938028956
C          118.47241671720164      119.35286046881268      108.14682231848215
C          117.50639626555933      119.94710225911889      107.12191078633816
C          117.16367130591320      118.97512258246338      105.99338779285345
C          116.55775367076374      119.67986764625689      104.78338566642080
C          116.26865379665288      118.71073502903262      103.63846536085489
C          115.52558891670202      119.36446609934396      102.47418924973391
C          116.37654683172703      120.35789053832239      101.68635861513827
C          115.59784719515211      121.06592140221019      100.57651113031780
C          114.53687710405531      122.02087592441094      101.11763172332640
C          113.77571182937703      122.74428290815568      100.00984751172565
C          112.68179847932855      123.66223007323516      100.56025158368394
C          111.46887126064455      122.89804969791338      101.08746350400524
C          110.44420538095623      123.82387552769882      101.73701212572830
C          109.21967403468808      123.06330916285108      102.23943652733757
C          108.22444851379242      123.97913723924859      102.94790269603652
C          106.96027687401339      123.23081787146241      103.36295337727124
C          105.89585470471162      124.13092272412604      103.98990475204663
C          106.24506453834921      124.59750781545546      105.40073805692833
C          105.13745165258547      125.46771147466188      105.99092226571656
C          105.35662048510250      125.82322173315821      107.46126876810263
C          106.57763070071401      126.70748472445969      107.70450407765388
C          106.69183934908611      127.11430348927432      109.17151306189237
C          107.98814759188866      127.86187950547183      109.47341015208902
C          108.12863050926255      128.16627116378640      110.96015996883213
H          108.83613256741211      127.25377294853132      109.14948625782729
H          108.01357855214837      128.79459480025272      108.90482776239723
H          105.83874726056000      127.74057691644721      109.44484857041556
H          106.64997785545987      126.21722498540554      109.79153651640812
H          107.48107259556713      126.16705723164527      107.41888212129999
H          106.51183439960683      127.60201820462154      107.07994272898544
H          104.46773160426514      126.34261703707325      107.83020396010288
H          105.46289865547607      124.90254998912518      108.03980118008488
H          105.04904585198346      126.38668913327336      105.40543868022849
H          104.18764131153237      124.93227650479631      105.90374136630498
H          106.39431389704740      123.72383100254743      106.03850577463810
H          107.17807542254029      125.16094948030303      105.37887655009071
H          105.73582101915419      125.00146657214600      103.34797966358592
H          104.95357224379282      123.57951178913633      104.03355734877717
H          106.53630594330347      122.75875518994800      102.47410970837596
H          107.22142718517271      122.43809368111110      104.06783861459509
H          108.70567398138049      124.41715407366591      103.82473836441044
H          107.95146098509183      124.79847787005575      102.27747464782189
H          108.72682920931663      122.57681044788828      101.39367535166926
H          109.54109590314069      122.27896243474400      102.92926307121516
H          110.91346899247948      124.34555203188198      102.57537748440672
H          110.12763255151482      124.58192795298061      101.01580384137422
H          110.99923818588375      122.35719201300458      100.26246780332289
H          111.78773155026684      122.16206981614134      101.82649019646452
H          113.10128052104918      124.27411436038069      101.36303982567470
H          112.35163380533369      124.34119624823509       99.76979841023659
H          114.48191315218378      123.33898762500243       99.42450747995700
H          113.32555027205100      122.01130104914982       99.33558756383285
H          113.82512552901160      121.46018524532271      101.72310241135277
H          115.01525652837815      122.76079425423285      101.76435549398163
H          116.29869938720059      121.62941933458022       99.95452232516641
H          115.12066062981636      120.31988133778948       99.93582543174026
H          116.78684963058430      121.11308086485751      102.35946296364067
H          117.22008661937302      119.82343467798508      101.24051182670718
H          115.18016795959184      118.58716856992848      101.78876606394847
H          114.64488797612373      119.87107657379011      102.87173324918932
H          117.20527286160660      118.27994254247356      103.27569761305382
H          115.65644675969922      117.89129480828113      104.02294102264435
H          115.62949275552371      120.17250989412199      105.08049140634745
H          117.25044504952710      120.45373060937717      104.44674248964424
H          118.07813918667959      118.46543691247165      105.68249038020517
H          116.46496741577575      118.21759855365087      106.35503552412742
H          116.59095928537562      120.27071949014844      107.62372540463637
H          117.97517800406635      120.83518737868397      106.68816736679331
H          118.76747896380814      120.13607475885566      108.85110408507916
H          119.37644279598570      119.02227609184695      107.62745191919230
H          117.55901696461153      117.40647017413228      108.23264346263413
H          117.01848675904127      118.52147949795902      109.48982399719713
H          119.26143216336541      118.34280256991258      110.57671033466099
H          119.78831437942289      117.27052813237556      109.28720076705675
H          119.24724097905096      115.79042381500459      111.02858488419923
H          117.85183534288689      115.71708708298524      109.95858567157055
H          117.00645153352473      115.79425242690569      112.17348151207084
H          116.69681349553473      117.38653378032659      111.48810907487412
H          118.64229907302254      118.31175651565901      112.69848548186241
H          119.09488095680237      116.69570622467646      113.23849661296754
H          118.02724353679811      117.69218981677935      115.10173337339633
H          116.84223583590334      116.57805195074509      114.42820229855391
H          115.74907692844036      118.51547693211221      113.24840848380656
H          116.92604134005194      119.59529473077396      113.99036699244597
H          116.13018704784572      118.80127367442444      116.25768476839508
H          114.87932298833223      117.86973422579145      115.44394957154881
H          113.97587866295299      119.97940566689489      114.44492358666638
H          115.22543139931538      120.89234045754394      115.28020406986444
H          114.33915417751929      120.02389598097211      117.47376061962237
H          113.03661849103469      119.22848018916301      116.60128271410149
H          112.27941551250946      121.44104591124579      115.72184440136805
H          113.58484352974055      122.22965335517009      116.60100626915983
H          112.63643235373351      121.40272127617331      118.75358313219449
H          111.33243129628309      120.61187561969768      117.87422050406022
H          110.62155228627812      122.83697885916841      116.96733505627884
H          111.89085655532804      123.60996622173055      117.91807683232415
H          110.84654513527826      122.77575352411053      120.01086270807957
H          109.58656232824325      121.97896467352109      119.07034840095129
H          108.93939754059389      124.22412876484479      118.12395495659356
H          110.12355383909032      124.98157063765771      119.18699905212831
H          108.90633359782278      124.00863352320900      121.16680780257494
H          107.71161887768329      123.33668080832796      120.05824369614236
H          107.22411698698815      125.67980105745123      119.24593561914679
H          108.35243754871566      126.28881475627836      120.45299175962245
H          106.22784470651460      126.54281046830050      121.45091652858319
H          106.89507658825967      125.10280504402955      122.21787990458751
H          105.57204839292875      123.67959031105673      120.65229732222181
H          104.91648156173585      125.13217946500137      119.89598722125622
H          104.00504724375199      125.80988475893490      122.15874440941508
H          104.50614715762653      124.24219614557445      122.78390894091922
H          102.55063712782696      124.69404873905292      120.48419236750075
H          102.09038407908415      124.35447890885494      122.15039488377288
H          103.21586209054780      122.13516127314820      122.01005481927446
H          103.66848237710464      122.47880400410453      120.33987736967259
H          101.23454315306009      122.76307766079850      119.78000128683391
H          100.82593757310254      122.24974260305031      121.41413592871874
H          101.92826961764855      120.06106268583395      121.00981190975713
H          102.39229685001423      120.58457393870195      119.39195441249764
H           99.88993440054789      120.99973126366095      118.95564128031259
H           99.57376302554057      120.09493747876789      120.43286164588639
H          101.08641363478756      119.05326060102026      117.99530134091327
H           99.39079099993602      118.74004753923656      118.35151900174461
H          100.11880343264963      117.64091514500683      120.51766935195684
H          101.79172778265003      117.81292755112054      119.97677763361875
H          101.28406364383079      116.49197346501236      117.94669656698559
H           99.60745634830879      116.32398539740812      118.46085151503941
H          100.35513533973933      115.07690551574399      120.48578218444003
H          102.03053507742094      115.23123413569141      119.95936172164073
H          101.45829625938676      114.04057765155190      117.83691884319050
H           99.80040122349642      113.85164243685301      118.40770747505857
H          100.60490737437283      112.47287540441306      120.30985254792898
H          102.26834015486568      112.67467086505276      119.76518778035921
H          101.68924635366726      111.58139784465006      117.59870208552229
H          100.02477420844430      111.40005882497358      118.13633109821258
H          100.85156989905089      109.97489168998963      120.05234924436347
H          102.46555513652898      110.04583579953503      119.35826018983639
H          101.52706821866998      109.08606091157066      117.21132900257213
H           99.96340460057179      108.94993683217103      118.00804795911593
H          101.15361700084665      107.49993904904083      119.78029665963551
H          102.53918494684275      107.48242421300593      118.69705088870572
H          101.38693753592516      105.49535378227741      118.13196340295109
H          100.89276598620009      106.63236168385592      116.88126043450048
H           98.87149756767724      105.60542610544732      117.52078167495655
H           98.84213453483095      107.12697672609788      118.40255165827466
H          100.00810064991695      105.71019842973645      120.32068654266678
H           99.32750538048612      104.33618055340020      119.46497756791015
H           97.75579002563926      106.73694655371004      120.48105756418897
H           97.90553446081822      105.20450545288088      121.34045718131463
H           96.83810406392405      104.02906117534634      119.42974412190112
H           96.61912849386501      105.56539947996794      118.60125720150842
H           95.37207996371103      104.70110576535068      121.24422932699343
H           94.55554426616284      104.85615462368307      119.69005376014523
H           95.69157779300841      107.11399723165937      121.39420914981780
H           93.99804431184880      106.72859367234535      121.12341505935554
H           94.32173472996303      107.22673957111944      118.67089818525645
H           95.97515795125582      107.72408506808813      119.03310672867315
H           95.08796789669312      109.44356204736550      120.62268226826774
H           93.44812728084071      108.97449237268945      120.18095036103254
H           93.99737564402349      110.94824207242783      118.93824097828639
H           93.95477009568873      109.60905189225113      117.79479408370170
H           96.41133907454649      109.50954660565878      117.75879745102648
H           96.50966948519181      110.68165902837409      119.06783722831226
H           95.49118364835856      112.41034471716608      117.61467162469886
H           95.33629736694476      111.23851948193057      116.30700929922797
H           97.79724052412375      110.96667420010361      116.23457361491680
H           97.96911354586558      112.07362442414188      117.59665608808710
H           97.03699387585557      113.91688357530458      116.27040553971176
H           96.75618375527962      112.83832782486731      114.90673056045047
H           99.15536608731594      112.40997241197722      114.67920313161042
H           99.50828914604159      113.37924964554843      116.10656505618159
H           98.13450443492269      114.53813105346639      113.65025865432969
H           99.88914187767399      114.48555258845077      113.81941637200649
H           99.75568426924001      115.81870410994502      115.89441067536609
H           98.00149449799618      115.89153251028323      115.75829801801424
H           98.15842867061659      117.10181258846920      113.63663967749167
H           99.91284363803584      116.94814815694964      113.63435104207917
H          100.10153790843258      118.36348612598785      115.61643563596832
H           98.35078319894075      118.39723556135267      115.81622172660184
H           98.08618795942337      119.55249476108035      113.66429694681966
H           99.82455876200324      119.50663009139970      113.38914678157703
H           98.65364029276543      120.86306285307930      115.84380366339111
H           98.76239800303814      121.69941262459720      114.29702171879480
H          101.19250750181391      121.36751909283196      114.23206630272445
H          101.13442794861609      120.47444524044428      115.75563496440998
H          100.40254539444682      122.44899944602922      116.96826274630493
H          100.12843314819487      123.33100022779020      115.46805949058812
H          102.16115821564576      124.14160756469369      116.46488549978807
H          102.56098220038815      123.28346889508994      114.97888978338821
H          103.24926897915213      121.30190219726434      116.30432564282408
H          102.79455654534245      122.13713410391000      117.79248049674642
H          104.46521767219834      123.91697686186245      117.27896274469681
H          104.95157822822576      123.03455407634024      115.83264835610294
H          105.14521140740369      121.94262658602580      118.67529394031544
H          106.46276841568624      122.72162985545864      117.80339044561462
H          106.27744161061426      120.94385965851025      116.02687875626235
H          105.09496084092649      120.10711172996994      117.02939790957930
H          106.72286631397948      119.85407019520008      118.83859434833337
H          107.89226567130218      120.84695448089857      117.97268118864454
H          108.05565634618377      119.15992221705858      116.18474689233233
H          106.86366036975718      118.14487432524497      117.00088508269916
H          108.32622069231789      117.95261475506025      118.97173651971352
H          109.50474609301192      119.03834264500924      118.23278168554623
H          108.73398204650343      116.30451152887423      117.12514094843247
H          110.13129207968508      116.63433382507003      118.14773295658641
H          110.86614928497907      118.34324419227987      116.36355263720334
H          109.65290462316779      117.61887290404705      115.31092006705738
H          110.73152411997273      115.38217778538377      115.66336237592542
H          111.97610724916449      116.15587457812666      116.63873475194701
H          112.56269485016182      117.60617570654875      114.66815566022059
H          111.41467345056542      116.70871239375874      113.68871720010067
H          113.82362907352783      115.51523214153484      115.12867866338161
H          113.79767623989382      115.97384806357788      113.42611029040091
H          112.09131585487532      113.79774866238806      114.71339747473385
H          113.54811636200976      113.55253688345745      113.75795047416531
H          112.36887518545731      114.71080647992258      111.81998561549823
H          110.88659312770793      114.65340109378253      112.77338985834987
H          111.12323689622723      112.16399126134894      112.94158056946534
H          112.54381470861641      112.25169754340772      111.90215533900457
H          111.20362928120950      113.15886413360529      110.05725203410790
H          109.79965628633242      113.30831960696962      111.10980930821947
H          109.46040895431302      111.39743405715357      109.72804812256268
H          109.74332568534038      110.82534940660837      111.36718515707528
H          112.06139108758632      110.19885998456792      110.77399287240300
H          111.85303709519101      110.90385883775893      109.16952673233497
H          109.93100177520816      109.27399762868832      108.80162831019001
H          110.36608587028917      108.49948002549520      110.31921437389808
H          112.63312984278933      107.99242630153248      109.40187835518772
H          112.19712293841664      108.79907140362020      107.89779341517828
H          110.26757699963554      107.15179293522385      107.67070278393648
H          110.93317319160458      106.27039575159969      109.03797192825881
H          113.09423270576281      106.01106972704470      107.76591259333935
H          112.35155161984930      106.83757396959219      106.39819015288327
H          110.56876857696602      105.03963405053774      106.36159139253289
H          111.47638179796209      104.17394878498645      107.59443648929907
H          113.46399282554016      104.13494212495594      106.03865595833518
H          112.47907366873906      104.93439262453020      104.81539374539055
H          110.85604638282776      102.99850385889847      104.94659821173688
H          111.98678664869533      102.17790473310781      106.01408022987879
H          113.72101969032555      102.26787113317742      104.20850129091762
H          112.56593424597322      103.08985468397057      103.16278135677793
H          111.01789098660745      101.11849012883367      103.40451881408953
H          112.28628560442040      100.27546421141756      104.29577421332235
H          113.80225655211812      100.59846117686496      102.28690990449140
H          112.41950307438142      101.25493802714932      101.41382348759258
H          112.65029326406038       98.43758822269560      102.56541110091683
H          112.78930789874362       98.89110324274182      100.86757779565535
H          110.39767072652621       99.80549751806689      101.04853623418475
H          110.30301324827816       99.00531608016544      102.61715967589294
H          110.90553820315377       96.83072305512540      101.49532337211426
H          110.87058168434410       97.66256628646124       99.94107151479886
H          108.47727229814932       98.30156378425048      100.38849034776074
H          108.52710910840453       97.33819283848510      101.86649660526471
H          109.19552142711986       95.34160360976267      100.45339302509727
H          108.90721032250319       96.32258962820721       99.01774750313444
H          106.85245703835859       95.60699686168527      101.15211892238575
H          106.98386338082069       94.87184643788407       99.55305853306024
H          106.63737146803901       97.22178378329863       98.58186755097786
H          106.18137341288005       97.73187091100328      100.21016081636434
H          104.81082719768671       95.54923450336123       98.58299130347363
H          104.22563248495167       97.19734756898596       98.81230316570901
H          103.04092317105733       95.70919715847953      100.35755842235628
H          104.55650693008020       95.09476173826830      101.00400772783529
H          104.09602420416434       96.77403455629609      101.28806971415842
H          109.05676579261913      128.69731847686413      111.15941693516574
H          107.30032517905147      128.78181495550507      111.30519487469392
H          108.13070911947698      127.24268263926172      111.53630374232242
C          124.17339601116035      115.53056700521383       98.83368920847694
C          123.73743275728769      115.84583642293417      100.25881285805403
C          124.74152996019079      115.34377123153355      101.29396056759047
C          124.27452380545358      115.61611253820527      102.72183364880586
C          125.26969728630900      115.11214527679158      103.76449286209547
C          124.69856425629847      115.09380484978351      105.18187480445705
C          124.33354005973631      116.47419108297728      105.72376163885298
C          123.92253426713604      116.39492142985435      107.19183456530442
C          123.47967492192841      117.74064736983334      107.76127691417213
C          123.11688302056274      117.62884189378236      109.23982134711079
C          122.62616897637655      118.94462213174168      109.83629336963818
C          122.32834676109887      118.80558822626956      111.32759069038381
C          121.83747837329602      120.11509611814488      111.93924808532053
C          121.40103643308402      119.97778264879258      113.39809951357523
C          122.53578279110913      119.56310696645559      114.33233156531534
C          122.18444380379533      119.72410262801658      115.81173076170793
C          121.04716593115079      118.81550178845426      116.27536368804401
C          120.89567109784960      118.84446206576953      117.79449068972731
C          119.77511138695276      117.93785015642410      118.29695094767960
C          119.72261957106069      117.90304195101372      119.82227020286300
C          118.64497653131851      116.96304012100623      120.35387775833524