3258
 energy: -3427.429121483241 gnorm: 0.000982020899 xtb: 6.6.1 (8d0f1dd)
C          104.07885455521978       95.96731482820839      100.56127536260111
C          104.79109039569391       96.38931193809162       99.28175236962439
C          106.21733301591627       96.87891749858167       99.53035269872633
C          107.12845348819884       95.80030556834184      100.11428586380353
C          108.60868206418452       96.17569585166673      100.05942384535247
C          108.94148964987843       97.43281113963874      100.85914935485908
C          110.44803805332013       97.65950331433555      100.94906166005538
C          110.79070502208249       98.97636297554439      101.64058469705682
C          112.29826440242984       99.14635535856382      101.81111744745043
C          112.71370678598598      100.56319267668708      102.20532043769558
C          112.09892053162280      101.02604071015315      103.52268102605144
C          112.65834227453715      102.37052606714983      103.97870312403316
C          111.91344830748551      102.90172070978254      105.19926605701244
C          112.44367715926519      104.25259148503375      105.66764030609781
C          111.57319625099642      104.87125583879043      106.75850960174185
C          112.14554434527210      106.19511077019817      107.25783629640642
C          111.19514892414834      106.92456507242960      108.20288387995795
C          111.79876309438937      108.22258081803412      108.73619478064388
C          110.76651464986156      109.06894920066640      109.47609037248749
C          111.33317597226674      110.39416185996768      109.98456120380209
C          110.22133577030498      111.30035563384911      110.50794549398090
C          110.68546292902852      112.70101607513823      110.90281674592984
C          111.59085101727790      112.73121483107302      112.13230035689179
C          111.84660450233869      114.16129365414500      112.60518106650142
C          112.67648950995172      114.20202679818651      113.88620039192593
C          113.18008436446475      115.60010686357310      114.24832927731909
C          112.08795857801574      116.62878740541635      114.54366540092769
C          111.28704124326069      116.31012727085391      115.80363746134401
C          110.30659306502741      117.42484371392808      116.16298830902987
C          109.47009260669824      117.06608847823419      117.39115088528088
C          108.76108341184492      118.26521426033798      118.01753947849126
C          107.65662396294641      118.87910397105556      117.16078303651067
C          107.08496619326341      120.12079980336395      117.84191449607715
C          105.95413143148910      120.77854169863203      117.05591262467644
C          105.55995412587164      122.11712539050795      117.67849108331406
C          104.55894610818856      122.91643956367412      116.84575280107873
C          103.17361376044524      122.27935675953965      116.77957430088713
C          102.19415013126299      123.15212830631637      116.00018865071074
C          100.77350831952573      122.59005789585868      115.95008288146940
C          100.66317341371742      121.27301463786785      115.18356785630971
C           99.20801422468564      120.90496184818109      114.90293949586753
C           99.05854922495537      119.57354938603642      114.16390934873691
C           99.15406606919447      118.35286961978542      115.07602716416520
C           99.03949296547724      117.05264124207666      114.28284759809770
C           98.92696617207451      115.82557625948212      115.18326735704045
C           98.94998027532282      114.52827044257555      114.37815385841009
C           98.83337245067236      113.28059582899205      115.25387850370296
C           97.41420293453747      113.02943207085751      115.75909833439918
C           97.36137229909795      111.84405707533682      116.71815131498420
C           95.94218649732333      111.51807063317737      117.17329650500875
C           95.92686514954067      110.38399704892447      118.19514063016089
C           94.50902894286837      110.02943217472142      118.63840989084268
C           94.47411173320636      109.04722392573093      119.80975257708769
C           94.96910278803652      107.65044470621346      119.44237762452632
C           94.98715896911523      106.72466110775693      120.65612704154901
C           95.34784894458092      105.27755773915062      120.31445228893509
C           96.68016425575416      105.09882284191201      119.58433857200794
C           97.87503477587683      105.66167768757737      120.34702497959249
C           99.20827183423977      105.40662164209357      119.64448813064631
C           99.35498401816535      106.16723786428597      118.32348768304659
C          100.82058438588203      106.41150041563706      117.94894450220802
C          101.45024755718384      107.56769302159115      118.73154100237760
C          101.04195945021446      108.93251067416119      118.17915766558490
C          101.40179089275712      110.08472201365694      119.11525619366731
C          101.06139679965793      111.43056234670100      118.48068893169368
C          101.23080023436725      112.61730052893212      119.42696957166503
C          100.84217471057912      113.92007600680110      118.73226002403713
C          100.99896007779537      115.16046216516970      119.60742333972294
C          100.63503309642584      116.41905416745948      118.82270371798600
C          100.76095805053885      117.70358295399961      119.63633752457443
C          100.36681499214575      118.92371659385384      118.80777998384605
C          100.28486922198255      120.21937152787238      119.61305600652123
C          101.63010139347026      120.68738137018626      120.16797132542990
C          101.56904198842025      122.14587578088896      120.61842640662761
C          102.91750568554838      122.67121858509010      121.10666154053708
C          102.85894490505946      124.17048770975947      121.39288996511195
C          104.18046304384305      124.76511988786719      121.88205844292074
C          105.29104261138608      124.71501336008232      120.83409531784012
C          106.52339633304324      125.50417577798459      121.27226017426987
C          107.64736812733824      125.48176537175995      120.23388957610543
C          108.41185168875185      124.16008022324999      120.20370669764831
C          109.44975827974098      124.12545263013807      119.08514900359324
C          110.26591555810477      122.83509734467115      119.08715479680446
C          111.20592227219279      122.75871448738849      117.88721821751166
C          112.01450647227477      121.46501506648384      117.85555709940041
C          112.90194542689646      121.37574221799385      116.61675478165314
C          113.71491071578915      120.08485682316291      116.57897701598216
C          114.60147113974035      119.99933464065047      115.33964828795605
C          115.49800022132521      118.76544723143343      115.36567375026057
C          116.38068260578926      118.65817589706515      114.12607966014755
C          117.37928392501598      117.50934781218916      114.23906944487388
C          118.24444540703540      117.33872271342733      112.99163857005642
C          117.48507978791042      116.71325278382152      111.82336456132082
C          118.39811137985591      116.36447652120694      110.64860421349508
C          118.92217807044430      117.57750054555522      109.87798338150417
C          117.89008931699587      118.17978323718232      108.92887236598287
C          118.47233061147809      119.35391075300824      108.14689808425001
C          117.50581464357194      119.94772134453061      107.12208974487130
C          117.16415289936843      118.97521300366650      105.99325221972302
C          116.55897076278947      119.68046751240141      104.78278132665109
C          116.27025471847497      118.71086158240458      103.63777634959420
C          115.52684356215602      119.36521491194358      102.47359002519610
C          116.37795011512611      120.35890654680188      101.68574028733839
C          115.59830326798051      121.06645634055637      100.57614548743092
C          114.53705333075433      122.02106490656237      101.11790087431764
C          113.77547138108329      122.74410403550742      100.00997030359019
C          112.68203241154649      123.66217033072127      100.56074985579565
C          111.46885221457222      122.89797806100970      101.08762755576983
C          110.44458909233086      123.82435311150768      101.73724859425802
C          109.21993648376117      123.06365770696380      102.23948964241036
C          108.22505497535255      123.97979549595179      102.94828477093377
C          106.96062871174618      123.23131434817672      103.36273313937336
C          105.89636296875399      124.13167585458477      103.98992709601168
C          106.24605657606854      124.59767957649375      105.40095538597232
C          105.13815505257627      125.46773099157068      105.99105870403488
C          105.35736104637901      125.82278545366124      107.46148114006299
C          106.57851361291532      126.70701491173774      107.70450552531712
C          106.69241090302293      127.11349054126514      109.17169779280809
C          107.98888967953995      127.86073037414755      109.47363889873279
C          108.12888020678481      128.16435732261937      110.96050236406924
H          108.83701853727163      127.25313669892415      109.14911542806297
H          108.01341285341282      128.79353819044945      108.90606160992976
H          105.83986172128901      127.74009207995947      109.44444108770645
H          106.64968743524739      126.21645361652148      109.79194942084995
H          107.48218430718020      126.16728539349222      107.41830016623062
H          106.51132949337241      127.60139359266174      107.08084526652529
H          104.46905964547150      126.34275843475110      107.82990812540757
H          105.46248522646800      124.90181460615705      108.04020140785502
H          105.05094576078692      126.38650726540651      105.40620173265343
H          104.18861501809370      124.93222132771308      105.90388080306504
H          106.39571206290823      123.72372731939295      106.03854149742457
H          107.17882249209950      125.16105646452395      105.37887706808415
H          105.73791669183468      125.00218686844899      103.34867966582283
H          104.95413544524894      123.58049524834284      104.03324900317033
H          106.53688608661281      122.75988665000538      102.47356885550799
H          107.22141210788520      122.43765601308228      104.06707384168168
H          108.70610657087695      124.41710765158055      103.82527135846510
H          107.95195379845116      124.79814744936563      102.27773064997569
H          108.72680607855638      122.57762561966845      101.39375208083858
H          109.54093017492504      122.27846054913373      102.92893921526354
H          110.91369754044052      124.34560173237043      102.57553833597721
H          110.12772655458588      124.58107842046849      101.01570960074940
H          110.99892121730343      122.35766396160690      100.26254472387652
H          111.78703666527836      122.16115653864772      101.82641114736802
H          113.10139382067142      124.27342253002683      101.36366156483221
H          112.35144359966580      124.34029701030420       99.77046895281858
H          114.48179519337329      123.33850769350416       99.42551962508486
H          113.32531264292436      122.01090612088714       99.33609632497215
H          113.82572655544719      121.46021441009754      101.72407982486645
H          115.01573751006742      122.76088894225194      101.76394634160549
H          116.29907392297409      121.63026262767266       99.95540690309511
H          115.12187487663032      120.32013258982467       99.93547694424535
H          116.78744526929567      121.11351742582650      102.35932028144821
H          117.22066443829506      119.82375171262697      101.24024770974268
H          115.18102409762197      118.58756764150273      101.78884274426042
H          114.64619664881117      119.87120125256935      102.87191234159893
H          117.20647232477016      118.28018663940357      103.27465503820569
H          115.65851067395832      117.89079610505912      104.02219676715664
H          115.63049322118358      120.17257485919897      105.07928527418753
H          117.25219824709390      120.45302220932487      104.44624493022886
H          118.07886393164668      118.46627647755098      105.68267631566565
H          116.46545394322386      118.21694522946471      106.35375698746790
H          116.59021470980562      120.27052559314238      107.62378163331429
H          117.97489697203004      120.83462619938334      106.68802883084503
H          118.76539312168750      120.13646404564797      108.85187103557102
H          119.37593277517647      119.02308795215750      107.62785717259187
H          117.55845551249331      117.40675021845072      108.23290646584623
H          117.01844632633099      118.52191169447157      109.49003267672876
H          119.26026184306178      118.34279479076697      110.57710359475033
H          119.78781418540527      117.27076290356379      109.28739615765127
H          119.24688625769727      115.79100312770709      111.02876784872123
H          117.85169262892238      115.71692008631902      109.95875685741973
H          117.00557001661629      115.79462516559960      112.17282103774529
H          116.69689281645225      117.38706155907380      111.48747738254069
H          118.64096787166314      118.31208638200513      112.69760249661070
H          119.09422594814210      116.69588754421373      113.23784971633552
H          118.02671311700760      117.69167955915860      115.10090098693379
H          116.84187010649879      116.57770556852404      114.42682265912215
H          115.74950810779956      118.51628206299397      113.24733381218387
H          116.92633539074070      119.59506962226996      113.99092862530792
H          116.12983556786033      118.80174800673468      116.25637538191765
H          114.87901514425208      117.86988002341521      115.44328328562196
H          113.97641009504633      119.98103992093296      114.44380578169915
H          115.22619856713567      120.89218876755331      115.28060982666844
H          114.33965623760936      120.02461716625022      117.47243030318586
H          113.03726570588564      119.22826933044412      116.60093357519074
H          112.27965014513792      121.44102933594442      115.72072017803312
H          113.58477500146098      122.22917339598135      116.60059997492371
H          112.63646502659813      121.40264423047857      118.75222859382716
H          111.33253278576464      120.61138599149085      117.87340876322860
H          110.62117072320045      122.83666479342254      116.96683103815911
H          111.89092605060030      123.60906877098591      117.91786798394124
H          110.84731360136627      122.77603360300850      120.00999413065736
H          109.58732681913517      121.97808651086171      119.07068003749634
H          108.93921492680880      124.22253525505018      118.12310741769041
H          110.12312098741764      124.98063333187244      119.18641146188165
H          108.90693468255053      124.00842223041853      121.16599382085603
H          107.71203416935369      123.33550810328997      120.05831839245589
H          107.22428518989082      125.67918449073002      119.24553096880877
H          108.35267681085951      126.28726496896387      120.45307740207004
H          106.22759015894779      126.54107629856563      121.44999664572580
H          106.89539541427953      125.10143418477583      122.21714639683178
H          105.57189763195646      123.67857815304394      120.65035227838273
H          104.91626476729326      125.13205773696463      119.89600505775917
H          104.00590888181162      125.80851410473194      122.15761726582416
H          104.50651618642894      124.24095079748491      122.78356314844636
H          102.55237691056563      124.69259573902370      120.48276439406473
H          102.09101880323108      124.35334617020541      122.14896476680174
H          103.21529057887282      122.13416983858903      122.01011737587068
H          103.66942204778562      122.47667042673685      120.34035902589514
H          101.23551913162700      122.76268527050949      119.77917893626093
H          100.82679655895718      122.24924429975927      121.41337512403409
H          101.92870988630732      120.06139315094639      121.01039151494653
H          102.39293710495396      120.58284540257472      119.39235486156458
H           99.89012735682400      120.99926034965085      118.95639009364336
H           99.57461873924491      120.09367588940803      120.43345490704247
H          101.08612480647923      119.05270657692834      117.99524530869965
H           99.39046159995357      118.73970592020633      118.35237410849253
H          100.11838281322147      117.64081713167235      120.51736286846607
H          101.79164693799082      117.81315268755023      119.97699238657361
H          101.28398071478952      116.49204968884136      117.94689797567838
H           99.60758134175639      116.32383529755796      118.46175800656948
H          100.35463501209752      115.07673735911111      120.48534421372050
H          102.03033813090994      115.23088673795996      119.96003314733784
H          101.45792622896914      114.04058306715424      117.83690457877606
H           99.80036514434585      113.85170884996617      118.40861151638771
H          100.60402318401896      112.47297990887013      120.30928047284048
H          102.26785556417045      112.67460073721998      119.76590473600513
H          101.68896182865960      111.58161282677520      117.59862996223269
H          100.02474170071939      111.40001391960871      118.13670724951581
H          100.85089614900568      109.97545109921757      120.05192818824615
H          102.46521304942618      110.04582837172826      119.35867542954406
H          101.52577319514008      109.08629096870284      117.21114541621702
H           99.96295582649205      108.94997286218137      118.00941254678406
H          101.15336521541697      107.50045236810418      119.78006104035538
H          102.53894169346971      107.48226638188241      118.69653271006649
H          101.38674066132218      105.49616969037869      118.13205427967846
H          100.89221628766404      106.63314541128476      116.88149916809529
H           98.87145766290831      105.60618257505342      117.52166775338563
H           98.84236946989984      107.12773238178109      118.40364666835849
H          100.00803802054655      105.71021773844643      120.32128071410961
H           99.32712071836349      104.33685772209624      119.46481394623187
H           97.75525399863052      106.73752406297494      120.48048487224189
H           97.90481796984223      105.20483096708210      121.33992292774045
H           96.83871805650105      104.02925996150921      119.42997483684199
H           96.61958135402283      105.56509062810939      118.60054874050151
H           95.37268198983597      104.70131349855879      121.24328304643025
H           94.55615346445425      104.85669279749705      119.68896620136100
H           95.69104334560933      107.11394757529216      121.39451450187828
H           93.99790086402369      106.72849411413304      121.12159349119406
H           94.32170933797765      107.22692416927561      118.67119506707326
H           95.97536066484541      107.72411978743801      119.03224892158435
H           95.08759458900030      109.44330990910004      120.62330115673507
H           93.44843802022700      108.97352734057621      120.18013276034527
H           93.99855215179852      110.94827576479523      118.93895762227211
H           93.95524918389312      109.60902525696847      117.79529527736881
H           96.41214992320721      109.50962745278269      117.75931173498323
H           96.51014110905712      110.68136826657775      119.06799005830905
H           95.49170945270987      112.41004690645329      117.61546972303481
H           95.33645495749049      111.23817945059682      116.30758951774972
H           97.79747545550879      110.96672622427434      116.23506179451437
H           97.96893675358375      112.07320649015138      117.59703387022353
H           97.03752754056765      113.91670747231339      116.27148248617800
H           96.75634518174482      112.83821915438489      114.90742130783045
H           99.15512803794927      112.40959223136238      114.68003450655475
H           99.50819866019354      113.37865309254082      116.10689073780458
H           98.13304561990120      114.53804345474414      113.65221080805433
H           99.88797417371278      114.48467071550161      113.81897205947806
H           99.75517812103962      115.81783382880174      115.89550709991649
H           98.00119297303168      115.89107935957431      115.75789636595283
H           98.15816317327300      117.10125853223030      113.63820470656967
H           99.91246609182875      116.94711423061949      113.63402834640206
H          100.10154283061725      118.36281777690199      115.61734991622318
H           98.35071371456326      118.39636980773699      115.81557965719733
H           98.08615411707231      119.55144126301261      113.66563062986228
H           99.82430085247981      119.50590752741898      113.38883444705225
H           98.65443288697175      120.86188585331213      115.84385339906871
H           98.76347256105025      121.69847718563614      114.29690139751712
H          101.19286147382681      121.36678873078964      114.23216591111756
H          101.13508923058633      120.47361346596769      115.75539272156131
H          100.40283192694571      122.44828052658150      116.96799623404186
H          100.12906254897359      123.32977394247861      115.46718823098989
H          102.16117465133306      124.14037044750160      116.46599922012874
H          102.56138027035990      123.28300720461573      114.97934218284055
H          103.24875272817373      121.30074510610723      116.30509513329270
H          102.79485199875130      122.13704702506865      117.79273336498625
H          104.46455750239517      123.91573187247185      117.27856327495712
H          104.95112920880312      123.03336490781237      115.83210275051015
H          105.14571208637065      121.94193113142656      118.67450303294348
H          106.46297154912855      122.72126916266518      117.80171881170246
H          106.27682255539858      120.94258866750901      116.02638930371741
H          105.09489834807097      120.10649893736436      117.03015712607188
H          106.72292558397203      119.85368610492699      118.83790584249054
H          107.89231070050016      120.84657486804707      117.97158638694287
H          108.05543051901724      119.15955401307568      116.18430166355891
H          106.86365815267936      118.14460960079406      117.00072199939966
H          108.32651613954422      117.95233443470052      118.97099589835773
H          109.50475801838969      119.03807178881640      118.23147032806716
H          108.73386833456782      116.30440621198019      117.12475841036823
H          110.13093133747456      116.63425688413589      118.14757427529241
H          110.86625422404579      118.34240508563711      116.36376536157348
H          109.65296592701408      117.61842453795938      115.31086831683045
H          110.73143889110288      115.38183315807473      115.66345104741907
H          111.97600258361160      116.15572898981152      116.63834009090513
H          112.56263376020048      117.60535747820131      114.66861837562088
H          111.41465905933379      116.70828719520097      113.68870677654398
H          113.82251686706130      115.51413152774019      115.12892942222123
H          113.79725196412159      115.97273974296270      113.42613448109591
H          112.09059487147451      113.79741250638294      114.71291408453914
H          113.54746278081538      113.55240587496544      113.75738590922627
H          112.36930879920918      114.71037563813077      111.81999238227203
H          110.88655212325767      114.65301027281107      112.77282734451948
H          111.12361059768516      112.16396500065518      112.94125480946360
H          112.54399726764515      112.25197255425998      111.90173051895582
H          111.20432692756238      113.15798516478702      110.05725350929903
H          109.80030305077382      113.30814948126648      111.10971801428585
H          109.46069831248701      111.39752445952259      109.72804716038884
H          109.74370059279389      110.82533660948599      111.36715367862357
H          112.06100065955643      110.19874581017635      110.77370162479691
H          111.85250981386504      110.90406060794625      109.16940002751473
H          109.93105346051577      109.27463070483306      108.80117076275533
H          110.36603678605361      108.49977206634391      110.31853134581240
H          112.63246797169056      107.99270803122587      109.40177382594572
H          112.19671403542806      108.79901840808799      107.89749450073211
H          110.26755698801270      107.15209409423476      107.67062982399320
H          110.93313843836587      106.27072316347058      109.03778357070908
H          113.09352872659028      106.01099308040715      107.76603750536053
H          112.35092770124244      106.83722954987977      106.39814817929818
H          110.56860885285984      105.04005365742302      106.36134372174627
H          111.47548695889620      104.17386275268279      107.59415772768037
H          113.46324514840103      104.13486662308122      106.03895494768578
H          112.47851368278455      104.93442981587138      104.81563931795637
H          110.85575458838633      102.99899015956933      104.94640891076016
H          111.98625498107934      102.17826773405092      106.01395632789163
H          113.72043289594248      102.26801591382059      104.20918981908774
H          112.56584627683074      103.09011806149671      103.16311405222665
H          111.01789775160172      101.11890214566017      103.40431500787194
H          112.28636927259917      100.27602212436032      104.29557940760958
H          113.80221439654892      100.59921393830935      102.28731985603653
H          112.41960750108083      101.25529799104046      101.41402976161444
H          112.64993680828002       98.43863955020751      102.56668090923647
H          112.78958706064520       98.89153277964014      100.86837247708675
H          110.39796589328144       99.80572337404507      101.04921947768190
H          110.30342190415888       99.00511137164578      102.61740300620150
H          110.90542406353605       96.83124638073286      101.49643631628152
H          110.87152090032585       97.66243188549164       99.94167084357872
H          108.47810605214273       98.30226446844503      100.38865220810042
H          108.52769643012741       97.33903056387426      101.86646028678342
H          109.19514087671642       95.34244485026788      100.45500781778432
H          108.90767182728504       96.32251039600513       99.01836843469012
H          106.85224828627426       95.60868631679668      101.15270756539681
H          106.98371776292316       94.87330014736375       99.55368148316954
H          106.63855021567399       97.22155537454572       98.58123554725921
H          106.18157249821037       97.73340155301888      100.20873749440760
H          104.81216511161288       95.54904960377064       98.58357025825515
H          104.22679556533465       97.19762953535798       98.80951261175287
H          103.04136457638006       95.71102915933351      100.35677987835645
H          104.55707946359929       95.09784130936038      101.00402631963208
H          104.09561978367972       96.77720818932106      101.28641569346124
H          109.05681850009856      128.69556996638610      111.15994918623444
H          107.30040681663624      128.77966657403650      111.30515558705758
H          108.13105389066023      127.24084246658887      111.53687943504278
C          124.17402944274733      115.53080244243749       98.83488938288816
C          123.73736075402863      115.84569010965144      100.25968656612898
C          124.74169749127030      115.34337468656470      101.29449684770472
C          124.27450317831058      115.61612279665847      102.72231332727000
C          125.27018731594107      115.11257175619809      103.76480391651999
C          124.69912240095228      115.09398866777819      105.18226851513255
C          124.33358993938226      116.47464944997600      105.72359661898827
C          123.92264772148694      116.39519565391312      107.19186249599180
C          123.47920942118540      117.74103594127655      107.76100540999187
C          123.11651430298949      117.62890309732664      109.23973630578796
C          122.62544479839315      118.94484945772831      109.83599974225309
C          122.32767598261189      118.80556803843292      111.32746154754339
C          121.83643309823763      120.11524407436220      111.93886251279405
C          121.40016472431542      119.97791800514332      113.39789616992609
C          122.53518190645764      119.56312112596760      114.33194555099205
C          122.18375117000673      119.72466831392386      115.81118614835621
C          121.04677624637409      118.81552546068218      116.27497365429302
C          120.89602761406942      118.84460785489102      117.79429464610048
C          119.77528791838476      117.93776733097978      118.29647611318640
C          119.72335181150457      117.90326081293280      119.82201340363707
C          118.64556618024673      116.96302678701676      120.35354956538420