3536
 energy: -3716.246655379976 gnorm: 0.000998028480 xtb: 6.6.1 (8d0f1dd)
C           58.99859174411034       56.00757109823762       41.93908300816914
C           58.13333217010103       56.75788934000295       40.92724826974501
C           57.08781918792711       55.80740316901525       40.34831406888627
C           59.02488190683427       57.36126797256978       39.83583973759566
C           58.32750981378262       58.33221476324406       38.87215914969615
C           59.19832890468522       58.52074823707949       37.62990070609124
C           58.05250820281867       59.68484323438117       39.54146808319204
C           56.95357251898138       60.51193795317700       38.85668931080544
C           57.08151886431513       61.97200891028203       39.29201983122567
C           55.55458543722861       59.95223130473229       39.17861791059573
C           54.61867043707576       59.85183454484325       37.96780152319820
C           54.29442764845682       61.23089629279193       37.39255792662527
C           53.29733085365341       59.15500040799721       38.32748228853018
C           53.39092001187610       57.70196606703223       38.80716380117043
C           54.12849353086608       56.82158997942798       37.79752876410068
C           51.99207162403017       57.10480486215305       39.02596427002953
C           51.06544031652503       57.82606882580568       40.01628523340499
C           51.68631993380490       57.89179009505177       41.40794794925147
C           49.72092913830542       57.08149145447198       40.01748191977640
C           48.64272638956153       57.57351014202347       40.99430490668404
C           47.40105183497299       56.69858920184308       40.82158493363273
C           48.32042946283842       59.05449037597335       40.77653656323037
C           47.24131743292273       59.65671657465730       41.69238901741571
C           47.13475660006819       61.14853306625353       41.37951963279933
C           47.57941799408110       59.41096427280689       43.16811061447025
C           46.72502269130153       60.14215377337083       44.21630662818595
C           47.22699477346305       59.73664461124826       45.60355930113411
C           45.23305699701503       59.82378706703027       44.06913129978967
C           44.29478397471500       60.65250415992200       44.96200491096282
C           42.91977711877034       59.98516042531414       44.98705531856532
C           44.18472626317186       62.09489842075931       44.45096264776353
C           43.54944117823547       63.09256459648224       45.43232918648268
C           43.01982314941528       64.29512256770634       44.65214123484594
C           44.55624731155839       63.53754140415090       46.50078185009221
C           43.93006630806074       64.35858146627682       47.64599727501572
C           44.43450942299468       65.80261284963862       47.62231695988899
C           44.22909904254858       63.75096815836434       49.02329824765916
C           43.55474986295479       62.40438355786605       49.30899788707188
C           42.03763968203175       62.56012546906343       49.42333307628950
C           44.07556099096429       61.78960581684287       50.61782633270147
C           45.56821652912646       61.44411058770187       50.67181245720686
C           45.95712186145041       60.48170340231985       49.54965230679963
C           45.92823211620576       60.79465289862170       52.01604640560389
C           45.68953291373870       61.63396762148621       53.27849506033312
C           46.29371322838812       63.03399775654983       53.16094227280409
C           46.30549158883231       60.94610303393225       54.50757298853898
C           45.82430441867737       59.52322840053750       54.81052722035593
C           44.33377126041047       59.50748682421051       55.14380757092497
C           46.60551284563751       58.92142798779901       55.98867236714940
C           48.09369306206284       58.64968689845779       55.73821022134480
C           48.29814166775287       57.65512593422177       54.59572718948978
C           48.76615532294451       58.08550287055843       56.99799616623446
C           48.78147994606093       58.99378299164736       58.23310605723407
C           49.33934686881638       60.37949805216330       57.90943914007802
C           49.64004937478182       58.37390160995718       59.34513786461140
C           49.20514724860127       56.99755408537422       59.86683955109726
C           47.79812486625374       57.05590181551480       60.45363923122930
C           50.21854050796412       56.50811840937137       60.92057772982506
C           50.79343710313486       55.09849878723087       60.71511665826945
C           51.42536661389820       54.94802992099272       59.33019398002898
C           49.79458666834178       53.95986756987037       60.95232508499443
C           49.22062761506740       53.83854602419200       62.37191281916395
C           50.29436954079473       53.98186950615084       63.45169041749850
C           48.55089776136668       52.46906823708289       62.56554927765227
C           47.42316145489450       52.09360807325719       61.59830390329286
C           46.32385214170457       53.15329708416374       61.57158428498251
C           46.78459327927857       50.75963998520381       62.01500108716847
C           47.70529053633854       49.53561367023919       62.02541128097523
C           48.22207200750740       49.23424137201977       60.61890012777687
C           46.97300410312341       48.29787793468329       62.56498991827896
C           46.43612077361935       48.39546109233297       63.99895963319945
C           47.54967838423517       48.73944032851564       64.98851840307417
C           45.77707628317164       47.07352669461503       64.42098966926946
C           44.45428830294330       46.72829732876934       63.72104130018513
C           43.33102514121191       47.65300673379618       64.18323242052593
C           44.12763745002160       45.25528490039599       64.01008768408688
C           42.80469239326308       44.71666945715159       63.44587780264860
C           42.61007083084829       43.28086740916767       63.93467513801221
C           42.79242763481240       44.78132492074962       61.91560512394122
C           41.44642896066654       44.48419537148186       61.23842147456484
C           41.68785763073926       44.27564792663654       59.74542952777124
C           40.46521806632374       45.63539554723873       61.48765326070520
C           39.06106357415472       45.50278629211232       60.87785290326146
C           38.26932631218106       46.76167154814482       61.23557839431493
C           38.36695751910091       44.22861080023047       61.37812526257494
C           36.86742659682718       44.09451170538867       61.07080785423187
C           36.34136182633673       42.82719377228940       61.74535193679784
C           36.60536847919619       44.05774970447440       59.56122579457786
C           35.13704977835506       44.18279686330327       59.14994000272568
C           34.54780527037946       45.55994350383538       59.43346663932181
H           58.37802929923665       55.55535430316876       42.70970344776219
H           59.55670873999899       55.21573062670379       41.44392354781691
H           59.70658978544626       56.67875150272279       42.41900036582948
H           33.52957191902176       45.62000296666743       59.05540688291041
H           34.52216790045486       45.76537399220420       60.50069918505554
H           35.13785187736643       46.33451918963919       58.94714286252590
H           37.15313053352317       44.87080746355889       59.08224211377258
H           36.99639079325772       43.11641454747598       59.16693898502431
H           38.87812007230880       43.36176839699619       60.95271241774698
H           38.49015844505821       44.18276582643140       62.46372526584869
H           39.15852864287832       45.45956258382991       59.78907785482373
H           38.05644716400196       46.78606670263894       62.30247794985893
H           38.84446253832906       47.65015478856950       60.98271816957941
H           37.32872176822255       46.80703959028672       60.69405412012959
H           40.34423087100949       45.76628526247684       62.56523106528420
H           40.91673249496801       46.55138034361494       61.09494632520840
H           43.10432857659345       45.77715990487363       61.59703609635658
H           43.53408531103449       44.07091183495685       61.54378727084026
H           36.34498135880262       44.94886591922250       61.50676081260405
H           35.26784306153932       42.72728163715046       61.61013703731118
H           36.82298550697109       41.94491899250890       61.32730338876106
H           36.54339659638881       42.85244680039074       62.81421719612618
H           41.03592340018856       43.56046465715675       61.65215873340320
H           40.77910355600100       43.95995128106794       59.24224229328593
H           42.04048074540714       45.19706474898150       59.28653087149023
H           42.44196643454001       43.50670131657471       59.59172780988003
H           41.98717145233991       45.32093146925190       63.84590841664610
H           42.65287805235086       43.23931680802966       65.02103135906910
H           41.64596964409679       42.88847283543075       63.62260815262622
H           43.38844292329318       42.63248243000333       63.53661336338797
H           44.94221925547487       44.63869641531089       63.61923838214037
H           44.11251600654651       45.12089612692136       65.09509799951056
H           44.58772801699507       46.85511669634597       62.64380059617899
H           43.61400259612396       48.69522630932093       64.06165346184494
H           42.42877231653582       47.48797495015856       63.60096249097084
H           43.10462976615671       47.47969160544830       65.23333939906190
H           46.49034924941241       46.26493741102039       64.24453438543684
H           45.58816426391200       47.10684604692070       65.49698752312378
H           45.68130740662138       49.18468423027939       64.04843937040870
H           47.93543646926100       49.74006976450346       64.81377638597192
H           47.17420545854967       48.70140228922127       66.00915185913246
H           48.36921061767537       48.03033434607681       64.90081172066435
H           46.14441084230364       48.07688752642422       61.88999606229202
H           47.66304459331937       47.45095712412008       62.52025173731926
H           48.56454935614499       49.72988858619679       62.67079189788888
H           48.85949409250075       50.03642069885364       60.25626756696555
H           48.80148279971034       48.31334608865693       60.60830585131389
H           47.39101947152234       49.12332946269926       59.92688715195816
H           46.36768515460935       50.89817725819519       63.01440402926539
H           45.95281075299880       50.54986700973381       61.33768016658294
H           47.83098484564925       51.99475903975427       60.58914844145089
H           46.69464194812313       54.09772321543178       61.18507748601908
H           45.50406731587287       52.82915702787258       60.93370326187813
H           45.93477197197177       53.31832678777184       62.57390702487485
H           49.33569725722659       51.71360449851312       62.49235531721503
H           48.15069743143876       52.42688717124168       63.58243394245078
H           48.47932634329023       54.62552854317359       62.53479158573766
H           49.86228974255457       53.78104078920251       64.43068444622219
H           51.10194466961389       53.27210612925739       63.28401410916631
H           50.70956682890008       54.98558360978708       63.46999328216511
H           48.97142203310557       54.06452388975681       60.24472778650939
H           50.30748234457744       53.02235211944599       60.71922231279088
H           51.59966606594892       54.99161276646622       61.44406514484114
H           52.05263811384098       55.80752359953108       59.10628940766698
H           52.04657577995590       54.05582802102902       59.28850146482330
H           50.67054022052381       54.85911172049111       58.55293946346504
H           51.06842284400351       57.19579884971303       60.93391616684724
H           49.76099922611991       56.55606529960283       61.90866515416162
H           49.19374217037200       56.29425737687468       59.03342112334251
H           47.54436260944063       56.10573074334497       60.91617367428764
H           47.73219460221748       57.83434549813532       61.21109903922070
H           47.06075248875897       57.26429023056211       59.68206968756410
H           50.66523453515644       58.29613513794750       58.97279250808642
H           49.65081267104748       59.06619056174202       60.19194262218608
H           47.76174717440358       59.11803824577790       58.60665532720980
H           48.67802659625736       60.92568739779276       57.24365480997473
H           49.44965899698327       60.96155202965114       58.82144954463369
H           50.31754679366833       60.29711640022663       57.44004681488148
H           48.26256607702650       57.15113811584791       57.25324811209143
H           49.80291160820319       57.84300204861066       56.74776332003218
H           48.59627925157822       59.58041991167905       55.46579465200205
H           47.97114230155213       58.06901116287361       53.64656887562916
H           49.35180240944617       57.40185981589401       54.50353198777464
H           47.74388541088241       56.73800592364849       54.78405815154542
H           46.50526330592199       59.59774746416763       56.83974618008647
H           46.13259713318035       57.97561728267778       56.26598472144023
H           45.98397550892134       58.89374017910032       53.93353781253361
H           43.74146074130368       59.87086479055557       54.30777255404222
H           44.00603807023028       58.49822656931182       55.37736030140371
H           44.13527812235520       60.13534127630673       56.00983081664895
H           47.38790852649882       60.92578281281440       54.36706106233878
H           46.10114568408758       61.56734639541067       55.38405103686852
H           44.61414706035515       61.74329159636283       53.43959170014067
H           45.78256104150397       63.62661552632480       52.40757519207165
H           46.21262596115406       63.55841382485042       54.11140371728639
H           47.34791565024569       62.97555790155089       52.89575748150635
H           45.35373962435808       59.86999089337013       52.09998082343984
H           46.98664965595714       60.52367559478881       51.98407622145314
H           46.16244292617056       62.35410915024020       50.55790859161301
H           45.85969945689666       60.95758571681240       48.57779965987032
H           46.99211804137595       60.16371372981548       49.66201436470043
H           45.32076644588913       59.59946446408924       49.56854513873513
H           43.84559176090841       62.48612870749692       51.42614650271198
H           43.51183460494518       60.87228669528508       50.80884335947591
H           43.75691673328522       61.71523328434835       48.48507339079945
H           41.78401714516833       63.25400649310974       50.22266849467294
H           41.60719081798268       62.93135064883177       48.49728747813393
H           41.57469397942035       61.60095347542244       49.64589011332286
H           45.31189732884815       63.64042583947859       49.10777578089385
H           43.91017370880970       64.46009822091665       49.79224072415929
H           42.84562402478881       64.38445736280848       47.51018344655370
H           45.50119199232803       65.83640218372913       47.83508463900453
H           44.26345867861119       66.25703474415093       46.64954208078488
H           43.92010684684187       66.40015165892297       48.37252196116776
H           45.03945830662180       62.65137877898296       46.91375984095946
H           45.33705557659208       64.12718815824771       46.01594988848201
H           42.70442987950686       62.61131709360316       45.93453974872385
H           42.57399108786546       65.03023828146318       45.31694771663069
H           43.82926935496861       64.77296826471024       44.10344503029733
H           42.26105883248162       63.98262517436581       43.93752613313773
H           45.17609553743243       62.46986127054618       44.18936376405636
H           43.59279674289135       62.07871400204704       43.53227075547166
H           44.68480783723984       60.65860703254012       45.98306136446026
H           42.99577524118281       58.97536649476449       45.38386662940477
H           42.22360841957080       60.53787625191215       45.61247212604795
H           42.50777039775296       59.93167476398404       43.98089461123952
H           44.92553311166375       59.97649769118319       43.03370640129258
H           45.09053842999013       58.76445963539907       44.29778531892924
H           46.88065478878077       61.21826609333363       44.10006213302706
H           46.82550176824075       60.38473247555462       46.37779104866137
H           46.93501758423767       58.71300287174493       45.82981730071399
H           48.31218758710055       59.79455886878714       45.64537523555091
H           47.50629296106656       58.34070469472911       43.36777580438120
H           48.62140067506262       59.70388714851541       43.32717483240945
H           46.28193563463307       59.18716843102701       41.45837517220145
H           48.04202677411841       61.66243960488647       41.69269746302534
H           47.01029792274318       61.29792616008375       40.30871260210530
H           46.28380474491207       61.59950538550847       41.88262087758100
H           49.23481783382833       59.63367141477450       40.91990569342455
H           48.00496794648804       59.19029158280486       39.73861544499383
H           49.01467152552610       57.44050027237358       42.01219276945417
H           46.64744105151854       56.93592963852467       41.56702645757415
H           46.96730891031719       56.84430081098952       39.83438422119725
H           47.66123913860613       55.64689798950869       40.92666189849784
H           49.31044452486977       57.12236804827255       39.00494602344217
H           49.91469340623692       56.02893947055910       40.24241454307905
H           50.89450523038715       58.84455622404700       39.65844282599230
H           51.02924066318270       58.41034314403353       42.10072062062770
H           51.86898354841971       56.89007726983132       41.78714012391698
H           52.63009967109036       58.42943577529172       41.38009911929840
H           51.48767398120143       57.06077692141487       38.05691646704212
H           52.12044753950963       56.07533701312023       39.37159868653262
H           53.93550385462191       57.66537484446298       39.75499410552889
H           53.64758054699735       56.87782949907051       36.82315398865136
H           55.16481591195044       57.12810833360687       37.68426496244977
H           54.11947985146198       55.78331974303888       38.12371637858434
H           52.80869067432645       59.74888707097688       39.10231890818292
H           52.65317512431144       59.17539856883321       37.44433280288432
H           55.12424669517831       59.27539259696635       37.18677549387354
H           55.19202525209006       61.72882295381415       37.03658737627717
H           53.60745827201912       61.13916300246514       36.55350683068830
H           53.82401272192831       61.85787484828072       38.14810565495586
H           55.66686781427652       58.95563480317642       39.60586154042275
H           55.08222327392639       60.57622592150094       39.94126512325286
H           57.10921597490748       60.46357496998482       37.77460907989921
H           58.03125489735474       62.38841306450959       38.96219826953041
H           56.28196190718718       62.58035387213556       38.87903018589734
H           57.04040455763020       62.04507050679160       40.37636022727882
H           57.76262945404459       59.52987544897626       40.58154936721412
H           58.98180557674313       60.25995822903035       39.54672432894627
H           57.37845591431704       57.89265622241330       38.55475445412224
H           58.75068338255824       59.23569417099355       36.94405659608886
H           60.18382036067675       58.88882988003117       37.90987158335441
H           59.32285942105874       57.57799669975685       37.10125995775477
H           59.85495275867699       57.88898320070101       40.31336989249284
H           59.45242317649103       56.53908051229521       39.25633648281663
H           57.61663221551932       57.56783690130749       41.45229324496349
H           56.37983777984831       56.33131571945622       39.71368070319085
H           57.56760824559897       55.03148435221145       39.75579295473108
H           56.52730618992275       55.32795902210592       41.14831190528714
H           35.07103800488679       43.99054035574995       58.07589551873155
H           34.53866351580017       43.42162285072430       59.65225452267420
C           39.20088905881166       51.76201972170394       57.25727671075300
C           38.47834174411297       50.41871004384020       57.31912433919269
C           39.12328507448576       49.53343768012255       58.38537687706308
C           38.50799267207141       49.68951573702557       55.97054582118571
C           37.87182536706011       50.43752287131917       54.79351033089986
C           36.41033593842839       50.78741595297581       55.07472873703195
C           37.93439942265913       49.59568451001934       53.51064499142800
C           39.33200330910554       49.19173683893558       53.02074501063660
C           40.22313543423785       50.41252165971324       52.80993330137910
C           39.18194369926287       48.38665467564442       51.72160184220349
C           40.41695432942585       47.57596129341695       51.30813337632253
C           40.19761086025625       47.00956661904512       49.90519454816594
C           40.72866833014235       46.44303747077148       52.30379561218082
C           42.02204463432881       46.64715432335120       53.10391266190467
C           43.24358877212804       46.39815455523836       52.22144441156058
C           42.03911430066381       45.71597675444861       54.32525548029012
C           41.24759196669828       46.27627249707246       55.51611858198596
C           42.15511165215444       47.14309637896860       56.38838070608025
C           40.62145558892553       45.16771584669825       56.37098544656748
C           39.40021129638735       44.47448802830413       55.75645834297001
C           38.21956260904009       45.44066934036956       55.63855323877904
C           38.95365331940807       43.28682242964049       56.62183626728888
C           39.88985431727099       42.07316973799463       56.71325231681119
C           40.14904277734669       41.46783127835383       55.33693412841961
C           39.23405614436684       41.04440688129834       57.64771218588895
C           40.13198035469699       39.89930000423531       58.14102579717029
C           39.24457751959283       38.78292971299464       58.69169376548984
C           41.10620507843556       40.40779570854379       59.20872704205417
C           42.18332406478745       39.41403604048626       59.66499544552935
C           42.97132708772769       40.04076333253342       60.81693945505157
C           43.13347126410928       39.00992711348096       58.52152479737990
C           42.91662700979793       37.59246937024044       57.97746343363085
C           43.38964350023947       36.55262301188137       58.99357070310896
C           43.67682204299361       37.38213643814776       56.65899974257616
C           43.09477274400082       38.08845513069920       55.42443903083068
C           41.79542987617133       37.42459967904664       54.97496947095447
C           44.15318801993003       38.06255948663615       54.31154850057536
C           43.76930358808499       38.68615487806905       52.96109952626965
C           44.92712878355553       38.47475999745755       51.98461580761303
C           43.44380469389089       40.17642575696643       53.10836622963105
C           42.82762521367009       40.85926730223606       51.87776262631574
C           42.83918248009476       42.37083889010612       52.10437040924521
C           41.40080552552480       40.35336303633003       51.63626960077957
C           40.75979385563840       40.73562712821943       50.29386583603574
C           39.27019160319040       40.39615648125750       50.36096017350948
C           41.43337775991550       39.99351557789898       49.13205276002459
C           41.01769566621716       40.46369320138335       47.72583288498662
C           40.78134445345513       39.25484624526402       46.81831159803580
C           42.06557325854132       41.37442041458259       47.07162985196295
C           42.30191794207925       42.72548805480971       47.75564206419806
C           41.06734162651404       43.61916923749671       47.64724116818486
C           43.50578528234376       43.43850568335168       47.11925684681786
C           44.87128208096829       42.93148142564048       47.59968588878726
C           45.18880398233932       43.49590972686646       48.98485126861606
C           45.99184504237271       43.33391335358682       46.63007412293614
C           45.99127613821827       42.63099086584968       45.26814578355776
C           46.18023699536194       41.12094659501468       45.42095468879867
C           47.11278976799040       43.17552619141350       44.37086000586928
C           47.04930701612894       44.66488339163265       43.99910277783380
C           45.70760371373137       45.02998012694555       43.36900847871483
C           48.20842024730619       44.96317287127744       43.03567890331351
C           48.51136618944013       46.44523798256589       42.76663920513106
C           49.50014844879644       46.54213332617636       41.60522218657771
C           49.06770858075974       47.11264477452755       44.02947339402186
C           49.49219192795648       48.58445940771013       43.91407216568427
C           50.09696911766936       49.00605741662594       45.25358497913994
C           48.30708511721345       49.47902183690140       43.53366520112840
C           48.63906475224180       50.95432714822073       43.25862031302666
C           47.34050016521993       51.76160992208619       43.26793736632662
C           49.36244700214044       51.11631859108538       41.91524973904688
C           50.03453666109576       52.48231847553357       41.70573600270321
C           50.21657151863095       52.74595701797774       40.21126746363929
C           51.38256932766252       52.54902513656879       42.43420582796607
C           51.96586728392796       53.97250029913105       42.53174744142616
C           53.29698746670454       54.06082828986707       41.78445454306561
C           52.15949211220076       54.42420797405128       43.98654875909128
C           50.85739536536099       54.62449533063867       44.77066348265556
C           50.08867441921075       55.83849532093441       44.24896571349748
C           51.11547027081712       54.83781649778847       46.26961445649077
C           51.81510751453516       53.70356714371064       47.02900118206673
C           51.22943115386382       52.34067130933377       46.66329063645951
C           51.66924959429058       53.88562614210387       48.54847485197783
C           52.04114299048094       55.25420431686430       49.12667056404238
C           53.53548298450863       55.53323079723727       48.98484602969485
C           51.65264033105533       55.32098706250814       50.61027049338566
C           50.15193618136884       55.48273608440199       50.87763818925801
C           49.70514659619656       56.92112848305772       50.62419005068028
C           49.79265412682595       55.08745919316052       52.31462090440900
C           49.92846007163839       53.59500275327778       52.61310303569606
C           49.19418611404959       53.21504739509498       53.89292691624819
H           40.23232144382455       51.62123852150862       56.93859961894583
H           38.71434908687713       52.44219032427795       56.56353836126584
H           39.20481212474489       52.23132915483298       58.23845999288767
H           49.29357677336678       52.15031273737655       54.09346916893607
H           49.59224735460487       53.76333840829947       54.74446260756620
H           48.13554571625950       53.44600140781501       53.80225224296225
H           50.41312019552387       55.65800668287448       53.00910949196638
H           48.75595317632658       55.37894757614228       52.49681189838217
H           52.01031529168258       54.40824450143875       51.08947997797384
H           52.17405484053354       56.16350133604339       51.07022237629430
H           51.48916067002489       56.02842165528102       48.59225726283804
H           53.85051748834764       55.45622161523557       47.94800366837471
H           53.76774437929939       56.53555438032454       49.33763460855856
H           54.11179559331774       54.82419502647276       49.57533783471436
H           50.62802249831261       53.67769923403957       48.79960908687244
H           52.28023302438221       53.12721341900648       49.04593640240561
H           51.70856204058209       55.74762948039034       46.37713562434944
H           50.14881006206105       55.01553864965457       46.74875387108143
H           49.59262314939340       54.83113196585784       50.20013446220903
H           49.94043046289891       57.22801290284434       49.60970750719827
H           48.63169427063305       57.01701739640773       50.76688722754162