      -----------------------------------------------------------      
     |                   =====================                   |     
     |                           x T B                           |     
     |                   =====================                   |     
     |                         S. Grimme                         |     
     |          Mulliken Center for Theoretical Chemistry        |     
     |                    University of Bonn                     |     
      -----------------------------------------------------------      

   * xtb version 6.6.1 (8d0f1dd) compiled by 'stahn@M-Bot' on 2023-08-01

   xtb is free software: you can redistribute it and/or modify it under
   the terms of the GNU Lesser General Public License as published by
   the Free Software Foundation, either version 3 of the License, or
   (at your option) any later version.
   
   xtb is distributed in the hope that it will be useful,
   but WITHOUT ANY WARRANTY; without even the implied warranty of
   MERCHANTABILITY or FITNESS FOR A PARTICULAR PURPOSE.  See the
   GNU Lesser General Public License for more details.
   
   Cite this work as:
   * C. Bannwarth, E. Caldeweyher, S. Ehlert, A. Hansen, P. Pracht,
     J. Seibert, S. Spicher, S. Grimme, WIREs Comput. Mol. Sci., 2020, 11,
     e01493. DOI: 10.1002/wcms.1493
   
   for GFN2-xTB:
   * C. Bannwarth, S. Ehlert and S. Grimme., J. Chem. Theory Comput., 2019,
     15, 1652-1671. DOI: 10.1021/acs.jctc.8b01176
   for GFN1-xTB:
   * S. Grimme, C. Bannwarth, P. Shushkov, J. Chem. Theory Comput., 2017,
     13, 1989-2009. DOI: 10.1021/acs.jctc.7b00118
   for GFN0-xTB:
   * P. Pracht, E. Caldeweyher, S. Ehlert, S. Grimme, ChemRxiv, 2019, preprint.
     DOI: 10.26434/chemrxiv.8326202.v1
   for GFN-FF:
   * S. Spicher and S. Grimme, Angew. Chem. Int. Ed., 2020, 59, 15665-15673.
     DOI: 10.1002/anie.202004239
   
   for ALPB and GBSA implicit solvation:
   * S. Ehlert, M. Stahn, S. Spicher, S. Grimme, J. Chem. Theory Comput.,
     2021, 17, 4250-4261. DOI: 10.1021/acs.jctc.1c00471
   
   for DFT-D4:
   * E. Caldeweyher, C. Bannwarth and S. Grimme, J. Chem. Phys., 2017,
     147, 034112. DOI: 10.1063/1.4993215
   * E. Caldeweyher, S. Ehlert, A. Hansen, H. Neugebauer, S. Spicher,
     C. Bannwarth and S. Grimme, J. Chem. Phys., 2019, 150, 154122.
     DOI: 10.1063/1.5090222
   * E. Caldeweyher, J.-M. Mewes, S. Ehlert and S. Grimme, Phys. Chem. Chem. Phys.
     2020, 22, 8499-8512. DOI: 10.1039/D0CP00502A
   
   for sTDA-xTB:
   * S. Grimme and C. Bannwarth, J. Chem. Phys., 2016, 145, 054103.
     DOI: 10.1063/1.4959605
   
   in the mass-spec context:
   * V. Asgeirsson, C. Bauer and S. Grimme, Chem. Sci., 2017, 8, 4879.
     DOI: 10.1039/c7sc00601b
   * J. Koopman and S. Grimme, ACS Omega 2019, 4, 12, 15120-15133.
     DOI: 10.1021/acsomega.9b02011
   
   for metadynamics refer to:
   * S. Grimme, J. Chem. Theory Comput., 2019, 155, 2847-2862
     DOI: 10.1021/acs.jctc.9b00143
   
   for SPH calculations refer to:
   * S. Spicher and S. Grimme, J. Chem. Theory Comput., 2021, 17, 1701-1714
     DOI: 10.1021/acs.jctc.0c01306
   
   with help from (in alphabetical order)
   P. Atkinson, C. Bannwarth, F. Bohle, G. Brandenburg, E. Caldeweyher
   M. Checinski, S. Dohm, S. Ehlert, S. Ehrlich, I. Gerasimov, C. Hölzer
   A. Katbashev, J. Koopman, C. Lavigne, S. Lehtola, F. März, M. Müller,
   F. Musil, H. Neugebauer, J. Pisarek, C. Plett, P. Pracht, F. Pultar,
   J. Seibert, P. Shushkov, S. Spicher, M. Stahn, M. Steiner, T. Strunk,
   J. Stückrath, T. Rose, and J. Unsleber
   
 * started run on 2024/10/04 at 14:12:36.659     

           -------------------------------------------------
          |                Calculation Setup                |
           -------------------------------------------------

          program call               : /home/abt-grimme/AK-bin/xtb input.xyz --input input.inp --opt
          hostname                   : boar075.thch.uni-bonn.de
          coordinate file            : input.xyz
          omp threads                :                     8

   ID    Z sym.   atoms
    1    6 C      1-90, 273-362, 545-634, 817-906, 1089-1178, 1361-1450,
                  1633-1722, 1905-1994, 2177-2266, 2449-2538, 2721-2810,
                  2993-3082, 3265-3354
    2    1 H      91-272, 363-544, 635-816, 907-1088, 1179-1360, 1451-1632,
                  1723-1904, 1995-2176, 2267-2448, 2539-2720, 2811-2992,
                  3083-3264, 3355-3536

molecular fragmentation (1/2 indicates fragments):
111111111111111111111111111111111111111111111111111111111111111111111111
111111111111111111111111111111111111111111111111111111111111111111111111
111111111111111111111111111111111111111111111111111111111111111111111111
111111111111111111111111111111111111111111111111111111112222222222222222
222222222222222222222222222222222222222222222222222222222222222222222222
222222222222222222222222222222222222222222222222222222222222222222222222
222222222222222222222222222222222222222222222222222222222222222222222222
222222222222222222222222222222222222222222222222222222222222222222222222
222222222222222222222222222222222222222222222222222222222222222222222222
222222222222222222222222222222222222222222222222222222222222222222222222
222222222222222222222222222222222222222222222222222222222222222222222222
222222222222222222222222222222222222222222222222222222222222222222222222
222222222222222222222222222222222222222222222222222222222222222222222222
222222222222222222222222222222222222222222222222222222222222222222222222
222222222222222222222222222222222222222222222222222222222222222222222222
222222222222222222222222222222222222222222222222222222222222222222222222
222222222222222222222222222222222222222222222222222222222222222222222222
222222222222222222222222222222222222222222222222222222222222222222222222
222222222222222222222222222222222222222222222222222222222222222222222222
222222222222222222222222222222222222222222222222222222222222222222222222
222222222222222222222222222222222222222222222222222222222222222222222222
222222222222222222222222222222222222222222222222222222222222222222222222
222222222222222222222222222222222222222222222222222222222222222222222222
222222222222222222222222222222222222222222222222222222222222222222222222
222222222222222222222222222222222222222222222222222222222222222222222222
222222222222222222222222222222222222222222222222222222222222222222222222
222222222222222222222222222222222222222222222222222222222222222222222222
222222222222222222222222222222222222222222222222222222222222222222222222
222222222222222222222222222222222222222222222222222222222222222222222222
222222222222222222222222222222222222222222222222222222222222222222222222
222222222222222222222222222222222222222222222222222222222222222222222222
222222222222222222222222222222222222222222222222222222222222222222222222
222222222222222222222222222222222222222222222222222222222222222222222222
222222222222222222222222222222222222222222222222222222222222222222222222
222222222222222222222222222222222222222222222222222222222222222222222222
222222222222222222222222222222222222222222222222222222222222222222222222
222222222222222222222222222222222222222222222222222222222222222222222222
222222222222222222222222222222222222222222222222222222222222222222222222
222222222222222222222222222222222222222222222222222222222222222222222222
222222222222222222222222222222222222222222222222222222222222222222222222
222222222222222222222222222222222222222222222222222222222222222222222222
222222222222222222222222222222222222222222222222222222222222222222222222
222222222222222222222222222222222222222222222222222222222222222222222222
222222222222222222222222222222222222222222222222222222222222222222222222
222222222222222222222222222222222222222222222222222222222222222222222222
222222222222222222222222222222222222222222222222222222222222222222222222
222222222222222222222222222222222222222222222222222222222222222222222222
222222222222222222222222222222222222222222222222222222222222222222222222
222222222222222222222222222222222222222222222222222222222222222222222222
22222222
# atoms in fragment 1/2:   272  3264
 fragment masses (1/2) :     1264.41    15172.94
CMA distance (Bohr)    :  18.363
constraining FC (au)   :  0.0500

           -------------------------------------------------
          |                 G F N 2 - x T B                 |
           -------------------------------------------------

        Reference                      10.1021/acs.jctc.8b01176
      * Hamiltonian:
        H0-scaling (s, p, d)           1.850000    2.230000    2.230000
        zeta-weighting                 0.500000
      * Dispersion:
        s8                             2.700000
        a1                             0.520000
        a2                             5.000000
        s9                             5.000000
      * Repulsion:
        kExp                           1.500000    1.000000
        rExp                           1.000000
      * Coulomb:
        alpha                          2.000000
        third order                    shell-resolved
        anisotropic                    true
        a3                             3.000000
        a5                             4.000000
        cn-shift                       1.200000
        cn-exp                         4.000000
        max-rad                        5.000000


          ...................................................
          :                      SETUP                      :
          :.................................................:
          :  # basis functions                7046          :
          :  # atomic orbitals                7046          :
          :  # shells                         4706          :
          :  # electrons                      7046          :
          :  max. iterations                   250          :
          :  Hamiltonian                  GFN2-xTB          :
          :  restarted?                      false          :
          :  GBSA solvation                  false          :
          :  PC potential                    false          :
          :  electronic temp.          300.0000000     K    :
          :  accuracy                    1.0000000          :
          :  -> integral cutoff          0.2500000E+02      :
          :  -> integral neglect         0.1000000E-07      :
          :  -> SCF convergence          0.1000000E-05 Eh   :
          :  -> wf. convergence          0.1000000E-03 e    :
          :  Broyden damping             0.4000000          :
          ...................................................

 iter      E             dE          RMSdq      gap      omega  full diag
   1  -3766.6907572 -0.376669E+04  0.227E+00   11.54       0.0  T
   2  -3771.7651631 -0.507441E+01  0.126E+00   11.53       1.0  T
   3  -3771.9771509 -0.211988E+00  0.560E-01   11.53       1.0  T
   4  -3771.9988104 -0.216594E-01  0.142E-01   11.53       1.0  T
   5  -3772.0184607 -0.196503E-01  0.512E-02   11.53       1.0  T
   6  -3772.0184813 -0.206044E-04  0.716E-03   11.53       1.0  T
   7  -3772.0185141 -0.327395E-04  0.152E-03   11.53       1.1  T
   8  -3772.0185159 -0.185242E-05  0.549E-04   11.53       3.1  T
   9  -3772.0185160 -0.964424E-07  0.183E-04   11.53       9.2  T
  10  -3772.0185160 -0.160117E-07  0.696E-05   11.53      24.2  T

   *** convergence criteria satisfied after 10 iterations ***

         #    Occupation            Energy/Eh            Energy/eV
      -------------------------------------------------------------
         1        2.0000           -0.6268632             -17.0578
       ...           ...                  ...                  ...
      3517        2.0000           -0.3953110             -10.7570
      3518        2.0000           -0.3948345             -10.7440
      3519        2.0000           -0.3947807             -10.7425
      3520        2.0000           -0.3947061             -10.7405
      3521        2.0000           -0.3943960             -10.7321
      3522        2.0000           -0.3943237             -10.7301
      3523        2.0000           -0.3941938             -10.7266 (HOMO)
      3524                          0.0294845               0.8023 (LUMO)
      3525                          0.0300840               0.8186
      3526                          0.0309219               0.8414
      3527                          0.0309436               0.8420
      3528                          0.0309647               0.8426
       ...                                ...                  ...
      7046                          0.3787668              10.3068
      -------------------------------------------------------------
                  HL-Gap            0.4236783 Eh           11.5289 eV
             Fermi-level           -0.1823546 Eh           -4.9621 eV

 SCC (total)                   0 d,  0 h, 17 min, 48.230 sec
 SCC setup                      ...        0 min,  0.492 sec (  0.046%)
 Dispersion                     ...        0 min,  4.186 sec (  0.392%)
 classical contributions        ...        0 min,  0.156 sec (  0.015%)
 integral evaluation            ...        0 min,  7.212 sec (  0.675%)
 iterations                     ...       13 min, 10.765 sec ( 74.026%)
 molecular gradient             ...        4 min, 14.380 sec ( 23.813%)
 printout                       ...        0 min, 11.039 sec (  1.033%)

         :::::::::::::::::::::::::::::::::::::::::::::::::::::
         ::                     SUMMARY                     ::
         :::::::::::::::::::::::::::::::::::::::::::::::::::::
         :: total energy           -3716.246174764451 Eh    ::
         :: gradient norm              0.018919421273 Eh/a0 ::
         :: HOMO-LUMO gap             11.528874085791 eV    ::
         ::.................................................::
         :: SCC energy             -3772.018516015763 Eh    ::
         :: -> isotropic ES            0.587595160994 Eh    ::
         :: -> anisotropic ES          1.294548359450 Eh    ::
         :: -> anisotropic XC          2.078167579940 Eh    ::
         :: -> dispersion             -4.518671958550 Eh    ::
         :: repulsion energy          55.112784797039 Eh    ::
         :: add. restraining           0.000000000000 Eh    ::
         :: total charge              -0.000000000011 e     ::
         :::::::::::::::::::::::::::::::::::::::::::::::::::::

      ----------------------------------------------------------- 
     |              Fast Inertial Relaxation Engine              |
      ----------------------------------------------------------- 

          ...................................................
          :                      SETUP                      :
          :.................................................:
          :   energy convergence        0.5000000E-05 Eh    :
          :   grad. convergence         0.1000000E-02 Eh/a0 :
          :   optimization log               true           :
          :   writing optlog all                1     steps :
          :   Hessian reset                    20     steps :
          :   time step scaling                 5     steps :
          :   maximium step len.        1.0000000     a0    :
          :   initial time step         0.2500000     fs    :
          :   maximum time step         1.2500000     fs    :
          :   power reset thr           0.0000000     au    :
          :   alpha parameter           0.1000000           :
          :   BFGS update                   false           :
          :   preconditioning               false           :
          ...................................................

........................................................................
.............................. CYCLE    1 ..............................
........................................................................

 iter      E             dE          RMSdq      gap      omega  full diag
   1  -3772.0219353 -0.377202E+04  0.254E-04   11.53       0.0  T
   2  -3772.0219353 -0.276755E-07  0.150E-04   11.53      11.2  T
   3  -3772.0219353 -0.446107E-09  0.490E-05   11.53      34.3  T
     SCC iter.                  ...        3 min, 51.733 sec
     gradient                   ...        4 min, 15.825 sec
 * total energy  : -3716.2462151 Eh     change    :  -0.4038473E-04 Eh
   gradient norm :     0.0175198 Eh/a0  converged?    E=F G=F D=F
   time step     :     0.2500000 fs     power     :   0.2061120E-08
   step length   :     0.0022173 a0     speed     :   0.2145372E-03

........................................................................
.............................. CYCLE    2 ..............................
........................................................................

 iter      E             dE          RMSdq      gap      omega  full diag
   1  -3772.0269092 -0.377203E+04  0.371E-04   11.53       0.0  T
   2  -3772.0269093 -0.561631E-07  0.220E-04   11.53       7.6  T
   3  -3772.0269093 -0.774889E-09  0.688E-05   11.53      24.4  T
     SCC iter.                  ...        3 min, 47.998 sec
     gradient                   ...        4 min, 15.370 sec
 * total energy  : -3716.2462687 Eh     change    :  -0.5351261E-04 Eh
   gradient norm :     0.0155134 Eh/a0  converged?    E=F G=F D=F
   time step     :     0.2500000 fs     power     :   0.2665161E-08
   step length   :     0.0032437 a0     speed     :   0.3138416E-03

........................................................................
.............................. CYCLE    3 ..............................
........................................................................

 iter      E             dE          RMSdq      gap      omega  full diag
   1  -3772.0332154 -0.377203E+04  0.475E-04   11.53       0.0  T
   2  -3772.0332155 -0.900591E-07  0.282E-04   11.53       6.0  T
   3  -3772.0332155 -0.141381E-08  0.868E-05   11.53      19.4  T
     SCC iter.                  ...        3 min, 56.408 sec
     gradient                   ...        4 min, 14.428 sec
 * total energy  : -3716.2463277 Eh     change    :  -0.5899556E-04 Eh
   gradient norm :     0.0130312 Eh/a0  converged?    E=F G=F D=F
   time step     :     0.2500000 fs     power     :   0.2847941E-08
   step length   :     0.0041509 a0     speed     :   0.4016186E-03

........................................................................
.............................. CYCLE    4 ..............................
........................................................................

 iter      E             dE          RMSdq      gap      omega  full diag
   1  -3772.0405615 -0.377204E+04  0.562E-04   11.53       0.0  T
   2  -3772.0405616 -0.122453E-06  0.333E-04   11.53       5.0  T
   3  -3772.0405616 -0.189584E-08  0.101E-04   11.53      16.7  T
     SCC iter.                  ...        3 min, 42.149 sec
     gradient                   ...        4 min, 14.772 sec
 * total energy  : -3716.2463840 Eh     change    :  -0.5639015E-04 Eh
   gradient norm :     0.0102815 Eh/a0  converged?    E=F G=F D=F
   time step     :     0.2500000 fs     power     :   0.2604446E-08
   step length   :     0.0049073 a0     speed     :   0.4748046E-03

........................................................................
.............................. CYCLE    5 ..............................
........................................................................

 iter      E             dE          RMSdq      gap      omega  full diag
   1  -3772.0485767 -0.377205E+04  0.627E-04   11.53       0.0  T
   2  -3772.0485768 -0.146839E-06  0.372E-04   11.53       4.5  T
   3  -3772.0485768 -0.224463E-08  0.109E-04   11.53      15.4  T
     SCC iter.                  ...        3 min, 44.736 sec
     gradient                   ...        4 min, 15.027 sec
 * total energy  : -3716.2464307 Eh     change    :  -0.4664422E-04 Eh
   gradient norm :     0.0076225 Eh/a0  converged?    E=F G=F D=F
   time step     :     0.2500000 fs     power     :   0.2008171E-08
   step length   :     0.0054856 a0     speed     :   0.5307643E-03

........................................................................
.............................. CYCLE    6 ..............................
........................................................................

 iter      E             dE          RMSdq      gap      omega  full diag
   1  -3772.0576365 -0.377206E+04  0.740E-04   11.53       0.0  T
   2  -3772.0576367 -0.192023E-06  0.440E-04   11.53       3.8  T
   3  -3772.0576367 -0.292948E-08  0.123E-04   11.53      13.7  T
     SCC iter.                  ...        3 min, 49.876 sec
     gradient                   ...        4 min, 13.997 sec
 * total energy  : -3716.2464654 Eh     change    :  -0.3471602E-04 Eh
   gradient norm :     0.0056259 Eh/a0  converged?    E=F G=F D=F
   time step     :     0.2750000 fs     power     :   0.1118509E-08
   step length   :     0.0064841 a0     speed     :   0.5703385E-03

........................................................................
.............................. CYCLE    7 ..............................
........................................................................

 iter      E             dE          RMSdq      gap      omega  full diag
   1  -3772.0668501 -0.377207E+04  0.827E-04   11.53       0.0  T
   2  -3772.0668503 -0.205831E-06  0.492E-04   11.53       3.4  T
   3  -3772.0668503 -0.293448E-08  0.123E-04   11.53      13.7  T
     SCC iter.                  ...        3 min, 41.848 sec
     gradient                   ...        4 min, 14.263 sec
 * total energy  : -3716.2464824 Eh     change    :  -0.1701679E-04 Eh
   gradient norm :     0.0057488 Eh/a0  converged?    E=F G=F D=F
   time step     :     0.3025000 fs     power     :   0.1916302E-09
   step length   :     0.0072402 a0     speed     :   0.5789515E-03

........................................................................
.............................. CYCLE    8 ..............................
........................................................................

 iter      E             dE          RMSdq      gap      omega  full diag
   1  -3772.0747259 -0.377207E+04  0.854E-04   11.53       0.0  T
   2  -3772.0747261 -0.163337E-06  0.510E-04   11.53       3.3  T
   3  -3772.0747261 -0.224873E-08  0.102E-04   11.53      16.5  T
     SCC iter.                  ...        3 min, 43.908 sec
     gradient                   ...        4 min, 14.165 sec
 * total energy  : -3716.2464839 Eh     change    :  -0.1461641E-05 Eh
   gradient norm :     0.0074083 Eh/a0  converged?    E=T G=F D=F
   time step     :     0.3327500 fs     power     :  -0.3744588E-09
   step length   :     0.0074552 a0     speed     :   0.5419432E-03

........................................................................
.............................. CYCLE    9 ..............................
........................................................................
 * reset velocities

 iter      E             dE          RMSdq      gap      omega  full diag
   1  -3772.0744531 -0.377207E+04  0.296E-05   11.53       0.0  T
   2  -3772.0744531 -0.108002E-08  0.142E-05   11.53     118.1  T
   3  -3772.0744531 -0.432010E-10  0.777E-06   11.53     216.6  T
     SCC iter.                  ...        3 min, 50.856 sec
     gradient                   ...        4 min, 15.059 sec
 * total energy  : -3716.2464853 Eh     change    :  -0.1419347E-05 Eh
   gradient norm :     0.0072885 Eh/a0  converged?    E=T G=F D=T
   time step     :     0.1663750 fs     power     :   0.1117634E-09
   step length   :     0.0001923 a0     speed     :   0.2795329E-04

........................................................................
.............................. CYCLE   10 ..............................
........................................................................

 iter      E             dE          RMSdq      gap      omega  full diag
   1  -3772.0739116 -0.377207E+04  0.455E-05   11.53       0.0  T
   2  -3772.0739116 -0.677119E-09  0.270E-05   11.53      62.3  T
   3  -3772.0739116  0.682121E-10  0.744E-06   11.53     226.0  T
     SCC iter.                  ...        3 min, 45.864 sec
     gradient                   ...        4 min, 15.590 sec
 * total energy  : -3716.2464880 Eh     change    :  -0.2733647E-05 Eh
   gradient norm :     0.0070459 Eh/a0  converged?    E=T G=F D=T
   time step     :     0.1663750 fs     power     :   0.2143096E-09
   step length   :     0.0003814 a0     speed     :   0.5545405E-04

........................................................................
.............................. CYCLE   11 ..............................
........................................................................

 iter      E             dE          RMSdq      gap      omega  full diag
   1  -3772.0731131 -0.377207E+04  0.659E-05   11.53       0.0  T
   2  -3772.0731131 -0.143064E-08  0.390E-05   11.53      43.1  T
   3  -3772.0731131 -0.190994E-10  0.109E-05   11.53     155.0  T
     SCC iter.                  ...        3 min, 45.960 sec
     gradient                   ...        4 min, 13.949 sec
 * total energy  : -3716.2464919 Eh     change    :  -0.3873896E-05 Eh
   gradient norm :     0.0066917 Eh/a0  converged?    E=T G=F D=T
   time step     :     0.1663750 fs     power     :   0.3009765E-09
   step length   :     0.0005643 a0     speed     :   0.8203676E-04

........................................................................
.............................. CYCLE   12 ..............................
........................................................................

 iter      E             dE          RMSdq      gap      omega  full diag
   1  -3772.0720744 -0.377207E+04  0.861E-05   11.53       0.0  T
   2  -3772.0720744 -0.220052E-08  0.510E-05   11.53      33.0  T
   3  -3772.0720744  0.682121E-11  0.140E-05   11.53     120.2  T
     SCC iter.                  ...        3 min, 44.947 sec
     gradient                   ...        4 min, 13.916 sec
 * total energy  : -3716.2464967 Eh     change    :  -0.4782504E-05 Eh
   gradient norm :     0.0062369 Eh/a0  converged?    E=T G=F D=T
   time step     :     0.1663750 fs     power     :   0.3664187E-09
   step length   :     0.0007378 a0     speed     :   0.1072727E-03

........................................................................
.............................. CYCLE   13 ..............................
........................................................................

 iter      E             dE          RMSdq      gap      omega  full diag
   1  -3772.0708184 -0.377207E+04  0.105E-04   11.53       0.0  T
   2  -3772.0708184 -0.321870E-08  0.621E-05   11.53      27.1  T
   3  -3772.0708184 -0.932232E-10  0.168E-05   11.53     100.0  T
     SCC iter.                  ...        3 min, 43.123 sec
     gradient                   ...        4 min, 13.434 sec
 * total energy  : -3716.2465020 Eh     change    :  -0.5341118E-05 Eh
   gradient norm :     0.0056974 Eh/a0  converged?    E=F G=F D=T
   time step     :     0.1663750 fs     power     :   0.4070283E-09
   step length   :     0.0008994 a0     speed     :   0.1307640E-03

........................................................................
.............................. CYCLE   14 ..............................
........................................................................

 iter      E             dE          RMSdq      gap      omega  full diag
   1  -3772.0693736 -0.377207E+04  0.121E-04   11.53       0.0  T
   2  -3772.0693736 -0.426098E-08  0.721E-05   11.53      23.3  T
   3  -3772.0693736 -0.272848E-11  0.192E-05   11.53      87.5  T
     SCC iter.                  ...        3 min, 50.869 sec
     gradient                   ...        4 min, 13.900 sec
 * total energy  : -3716.2465077 Eh     change    :  -0.5617416E-05 Eh
   gradient norm :     0.0050951 Eh/a0  converged?    E=F G=F D=F
   time step     :     0.1663750 fs     power     :   0.4212921E-09
   step length   :     0.0010465 a0     speed     :   0.1521523E-03

........................................................................
.............................. CYCLE   15 ..............................
........................................................................

 iter      E             dE          RMSdq      gap      omega  full diag
   1  -3772.0675968 -0.377207E+04  0.151E-04   11.53       0.0  T
   2  -3772.0675968 -0.649288E-08  0.897E-05   11.53      18.8  T
   3  -3772.0675968 -0.904947E-10  0.236E-05   11.53      71.2  T
     SCC iter.                  ...        3 min, 45.998 sec
     gradient                   ...        4 min, 15.406 sec
 * total energy  : -3716.2465138 Eh     change    :  -0.6126036E-05 Eh
   gradient norm :     0.0043916 Eh/a0  converged?    E=F G=F D=F
   time step     :     0.1830125 fs     power     :   0.4073210E-09
   step length   :     0.0013091 a0     speed     :   0.1730304E-03

........................................................................
.............................. CYCLE   16 ..............................
........................................................................

 iter      E             dE          RMSdq      gap      omega  full diag
   1  -3772.0654808 -0.377207E+04  0.183E-04   11.53       0.0  T
   2  -3772.0654808 -0.928640E-08  0.109E-04   11.53      15.4  T
   3  -3772.0654808 -0.331966E-10  0.279E-05   11.53      60.4  T
     SCC iter.                  ...        3 min, 43.608 sec
     gradient                   ...        4 min, 14.560 sec
 * total energy  : -3716.2465200 Eh     change    :  -0.6184729E-05 Eh
   gradient norm :     0.0036373 Eh/a0  converged?    E=F G=F D=F
   time step     :     0.2013138 fs     power     :   0.3608013E-09
   step length   :     0.0016012 a0     speed     :   0.1923928E-03

........................................................................
.............................. CYCLE   17 ..............................
........................................................................

 iter      E             dE          RMSdq      gap      omega  full diag
   1  -3772.0630639 -0.377206E+04  0.216E-04   11.53       0.0  T
   2  -3772.0630639 -0.120476E-07  0.129E-04   11.53      13.1  T
   3  -3772.0630639 -0.422915E-10  0.314E-05   11.53      53.6  T
     SCC iter.                  ...        3 min, 43.096 sec
     gradient                   ...        4 min, 15.002 sec
 * total energy  : -3716.2465257 Eh     change    :  -0.5701219E-05 Eh
   gradient norm :     0.0029676 Eh/a0  converged?    E=F G=F D=F
   time step     :     0.2214451 fs     power     :   0.2836809E-09
   step length   :     0.0019116 a0     speed     :   0.2088124E-03

........................................................................
.............................. CYCLE   18 ..............................
........................................................................

 iter      E             dE          RMSdq      gap      omega  full diag
   1  -3772.0604746 -0.377206E+04  0.246E-04   11.53       0.0  T
   2  -3772.0604746 -0.139635E-07  0.146E-04   11.53      11.5  T
   3  -3772.0604746 -0.128239E-09  0.329E-05   11.53      51.2  T
     SCC iter.                  ...        3 min, 41.171 sec
     gradient                   ...        4 min, 14.581 sec
 * total energy  : -3716.2465303 Eh     change    :  -0.4654297E-05 Eh
   gradient norm :     0.0026414 Eh/a0  converged?    E=T G=F D=F
   time step     :     0.2435896 fs     power     :   0.1901093E-09
   step length   :     0.0022162 a0     speed     :   0.2200691E-03

........................................................................
.............................. CYCLE   19 ..............................
........................................................................

 iter      E             dE          RMSdq      gap      omega  full diag
   1  -3772.0579790 -0.377206E+04  0.265E-04   11.53       0.0  T
   2  -3772.0579790 -0.133914E-07  0.158E-04   11.53      10.6  T
   3  -3772.0579790 -0.113687E-09  0.306E-05   11.53      55.0  T
     SCC iter.                  ...        3 min, 42.442 sec
     gradient                   ...        4 min, 14.546 sec
 * total energy  : -3716.2465337 Eh     change    :  -0.3396942E-05 Eh
   gradient norm :     0.0028283 Eh/a0  converged?    E=T G=F D=F
   time step     :     0.2679486 fs     power     :   0.1099723E-09
   step length   :     0.0024715 a0     speed     :   0.2231087E-03

........................................................................
.............................. CYCLE   20 ..............................
........................................................................

 iter      E             dE          RMSdq      gap      omega  full diag
   1  -3772.0559223 -0.377206E+04  0.272E-04   11.53       0.0  T
   2  -3772.0559223 -0.100081E-07  0.162E-04   11.53      10.4  T
   3  -3772.0559223 -0.206001E-09  0.244E-05   11.53      69.0  T
     SCC iter.                  ...        3 min, 43.715 sec
     gradient                   ...        4 min, 13.504 sec
 * total energy  : -3716.2465363 Eh     change    :  -0.2617551E-05 Eh
   gradient norm :     0.0032899 Eh/a0  converged?    E=T G=F D=F
   time step     :     0.2947435 fs     power     :   0.7408688E-10
   step length   :     0.0026562 a0     speed     :   0.2179836E-03
 * RMSD in coord.:     0.0006633 a0     energy gain  -0.3615704E-03 Eh

........................................................................
.............................. CYCLE   21 ..............................
........................................................................

 iter      E             dE          RMSdq      gap      omega  full diag
   1  -3772.0548761 -0.377205E+04  0.209E-04   11.53       0.0  T
   2  -3772.0548761 -0.368300E-08  0.124E-04   11.53      13.6  T
   3  -3772.0548761 -0.154614E-09  0.133E-05   11.53     126.5  T
     SCC iter.                  ...        3 min, 42.531 sec
     gradient                   ...        4 min, 13.685 sec
 * total energy  : -3716.2465385 Eh     change    :  -0.2198558E-05 Eh
   gradient norm :     0.0035846 Eh/a0  converged?    E=T G=F D=F
   time step     :     0.2500000 fs     power     :   0.9528587E-10
   step length   :     0.0021460 a0     speed     :   0.2076389E-03

........................................................................
.............................. CYCLE   22 ..............................
........................................................................

 iter      E             dE          RMSdq      gap      omega  full diag
   1  -3772.0545258 -0.377205E+04  0.193E-04   11.53       0.0  T
   2  -3772.0545258 -0.212503E-08  0.113E-04   11.53      14.8  T
   3  -3772.0545258 -0.137334E-09  0.107E-05   11.53     157.6  T
     SCC iter.                  ...        3 min, 44.651 sec
     gradient                   ...        4 min, 15.186 sec
 * total energy  : -3716.2465414 Eh     change    :  -0.2874807E-05 Eh
   gradient norm :     0.0036624 Eh/a0  converged?    E=T G=F D=F
   time step     :     0.2500000 fs     power     :   0.1387022E-09
   step length   :     0.0020721 a0     speed     :   0.2004849E-03

........................................................................
.............................. CYCLE   23 ..............................
........................................................................

 iter      E             dE          RMSdq      gap      omega  full diag
   1  -3772.0548268 -0.377205E+04  0.185E-04   11.53       0.0  T
   2  -3772.0548268 -0.226828E-08  0.108E-04   11.53      15.5  T
   3  -3772.0548268 -0.152340E-09  0.131E-05   11.53     128.5  T
     SCC iter.                  ...        3 min, 44.895 sec
     gradient                   ...        4 min, 14.365 sec
 * total energy  : -3716.2465451 Eh     change    :  -0.3667298E-05 Eh
   gradient norm :     0.0035067 Eh/a0  converged?    E=T G=F D=F
   time step     :     0.2500000 fs     power     :   0.1824662E-09
   step length   :     0.0020488 a0     speed     :   0.1982290E-03

........................................................................
.............................. CYCLE   24 ..............................
........................................................................

 iter      E             dE          RMSdq      gap      omega  full diag
   1  -3772.0557093 -0.377206E+04  0.186E-04   11.53       0.0  T
   2  -3772.0557093 -0.378441E-08  0.108E-04   11.53      15.6  T
   3  -3772.0557093 -0.209184E-10  0.182E-05   11.53      92.3  T
     SCC iter.                  ...        3 min, 49.859 sec
     gradient                   ...        4 min, 13.925 sec
 * total energy  : -3716.2465493 Eh     change    :  -0.4259054E-05 Eh
   gradient norm :     0.0031428 Eh/a0  converged?    E=T G=F D=F
   time step     :     0.2500000 fs     power     :   0.2098356E-09
   step length   :     0.0020718 a0     speed     :   0.2004599E-03

........................................................................
.............................. CYCLE   25 ..............................
........................................................................

 iter      E             dE          RMSdq      gap      omega  full diag
   1  -3772.0570861 -0.377206E+04  0.191E-04   11.53       0.0  T
   2  -3772.0570861 -0.594264E-08  0.110E-04   11.53      15.2  T
   3  -3772.0570861 -0.950422E-10  0.232E-05   11.53      72.3  T
     SCC iter.                  ...        3 min, 48.593 sec
     gradient                   ...        4 min, 13.543 sec
 * total energy  : -3716.2465537 Eh     change    :  -0.4386662E-05 Eh
   gradient norm :     0.0026273 Eh/a0  converged?    E=T G=F D=F
   time step     :     0.2500000 fs     power     :   0.2113887E-09
   step length   :     0.0021251 a0     speed     :   0.2056166E-03

........................................................................
.............................. CYCLE   26 ..............................
........................................................................

 iter      E             dE          RMSdq      gap      omega  full diag
   1  -3772.0590519 -0.377206E+04  0.218E-04   11.53       0.0  T
   2  -3772.0590519 -0.990894E-08  0.126E-04   11.53      13.4  T
   3  -3772.0590519  0.682121E-11  0.301E-05   11.53      55.8  T
     SCC iter.                  ...        3 min, 43.027 sec
     gradient                   ...        4 min, 14.094 sec
 * total energy  : -3716.2465581 Eh     change    :  -0.4402583E-05 Eh
   gradient norm :     0.0020047 Eh/a0  converged?    E=T G=F D=F
   time step     :     0.2750000 fs     power     :   0.1816461E-09
   step length   :     0.0024215 a0     speed     :   0.2129895E-03

........................................................................
.............................. CYCLE   27 ..............................
........................................................................

 iter      E             dE          RMSdq      gap      omega  full diag
   1  -3772.0615354 -0.377206E+04  0.243E-04   11.53       0.0  T
   2  -3772.0615354 -0.136533E-07  0.140E-04   11.53      12.0  T
   3  -3772.0615354 -0.495675E-10  0.353E-05   11.53      47.6  T
     SCC iter.                  ...        3 min, 51.206 sec
     gradient                   ...        4 min, 14.994 sec
 * total energy  : -3716.2465618 Eh     change    :  -0.3704309E-05 Eh
   gradient norm :     0.0015641 Eh/a0  converged?    E=T G=F D=F
   time step     :     0.3025000 fs     power     :   0.1238364E-09
   step length   :     0.0027516 a0     speed     :   0.2200234E-03

........................................................................
.............................. CYCLE   28 ..............................
........................................................................

 iter      E             dE          RMSdq      gap      omega  full diag
   1  -3772.0642411 -0.377206E+04  0.253E-04   11.53       0.0  T
   2  -3772.0642411 -0.143004E-07  0.146E-04   11.53      11.6  T
   3  -3772.0642411 -0.101409E-09  0.354E-05   11.53      47.5  T
     SCC iter.                  ...        3 min, 44.358 sec
     gradient                   ...        4 min, 14.546 sec
 * total energy  : -3716.2465644 Eh     change    :  -0.2560082E-05 Eh
   gradient norm :     0.0017375 Eh/a0  converged?    E=T G=F D=F
   time step     :     0.3327500 fs     power     :   0.6417318E-10
   step length   :     0.0030509 a0     speed     :   0.2217814E-03

........................................................................
.............................. CYCLE   29 ..............................
........................................................................

 iter      E             dE          RMSdq      gap      omega  full diag
   1  -3772.0666484 -0.377207E+04  0.237E-04   11.53       0.0  T
   2  -3772.0666484 -0.963701E-08  0.136E-04   11.53      12.3  T
   3  -3772.0666484 -0.140972E-10  0.280E-05   11.53      60.2  T
     SCC iter.                  ...        3 min, 43.658 sec
     gradient                   ...        4 min, 13.557 sec
 * total energy  : -3716.2465662 Eh     change    :  -0.1845638E-05 Eh
   gradient norm :     0.0022399 Eh/a0  converged?    E=T G=F D=F
   time step     :     0.3660250 fs     power     :   0.4070156E-10
   step length   :     0.0032372 a0     speed     :   0.2139320E-03

........................................................................
.............................. CYCLE   30 ..............................
........................................................................

 iter      E             dE          RMSdq      gap      omega  full diag
   1  -3772.0683441 -0.377207E+04  0.208E-04   11.53       0.0  T
   2  -3772.0683441 -0.373484E-08  0.121E-04   11.53      13.9  T
   3  -3772.0683441 -0.111868E-09  0.161E-05   11.53     104.7  T
     SCC iter.                  ...        3 min, 40.463 sec
     gradient                   ...        4 min, 13.853 sec
 * total energy  : -3716.2465685 Eh     change    :  -0.2257009E-05 Eh
   gradient norm :     0.0025668 Eh/a0  converged?    E=T G=F D=F
   time step     :     0.4026275 fs     power     :   0.6115270E-10
   step length   :     0.0033922 a0     speed     :   0.2037970E-03

........................................................................
.............................. CYCLE   31 ..............................
........................................................................

 iter      E             dE          RMSdq      gap      omega  full diag
   1  -3772.0690446 -0.377207E+04  0.189E-04   11.53       0.0  T
   2  -3772.0690446 -0.125783E-08  0.111E-04   11.53      15.1  T
   3  -3772.0690446 -0.268301E-10  0.871E-06   11.53     193.0  T
     SCC iter.                  ...        3 min, 49.054 sec
     gradient                   ...        4 min, 13.735 sec
 * total energy  : -3716.2465722 Eh     change    :  -0.3673766E-05 Eh
   gradient norm :     0.0024875 Eh/a0  converged?    E=T G=F D=F
   time step     :     0.4428903 fs     power     :   0.1016815E-09
   step length   :     0.0036435 a0     speed     :   0.1989942E-03

........................................................................
.............................. CYCLE   32 ..............................
........................................................................

 iter      E             dE          RMSdq      gap      omega  full diag
   1  -3772.0686176 -0.377207E+04  0.199E-04   11.53       0.0  T
   2  -3772.0686176 -0.494038E-08  0.120E-04   11.53      14.1  T
   3  -3772.0686176  0.941327E-10  0.186E-05   11.53      90.6  T
     SCC iter.                  ...        3 min, 44.752 sec
     gradient                   ...        4 min, 14.946 sec
 * total energy  : -3716.2465773 Eh     change    :  -0.5137339E-05 Eh
   gradient norm :     0.0020072 Eh/a0  converged?    E=F G=F D=F
   time step     :     0.4871793 fs     power     :   0.1245242E-09
   step length   :     0.0040717 a0     speed     :   0.2021608E-03

........................................................................
.............................. CYCLE   33 ..............................
........................................................................

 iter      E             dE          RMSdq      gap      omega  full diag
   1  -3772.0672235 -0.377207E+04  0.227E-04   11.53       0.0  T
   2  -3772.0672236 -0.139235E-07  0.138E-04   11.53      12.2  T
   3  -3772.0672236 -0.818545E-11  0.342E-05   11.53      49.2  T
     SCC iter.                  ...        3 min, 48.131 sec
     gradient                   ...        4 min, 14.409 sec
 * total energy  : -3716.2465827 Eh     change    :  -0.5374094E-05 Eh
   gradient norm :     0.0015212 Eh/a0  converged?    E=F G=F D=F
   time step     :     0.5358972 fs     power     :   0.1049819E-09
   step length   :     0.0046653 a0     speed     :   0.2105777E-03

........................................................................
.............................. CYCLE   34 ..............................
........................................................................

 iter      E             dE          RMSdq      gap      omega  full diag
   1  -3772.0656501 -0.377207E+04  0.233E-04   11.53       0.0  T
   2  -3772.0656501 -0.173859E-07  0.143E-04   11.53      11.8  T
   3  -3772.0656501 -0.127784E-09  0.380E-05   11.53      44.3  T
     SCC iter.                  ...        3 min, 41.103 sec
     gradient                   ...        4 min, 15.545 sec
 * total energy  : -3716.2465870 Eh     change    :  -0.4372238E-05 Eh
   gradient norm :     0.0017442 Eh/a0  converged?    E=T G=F D=F
   time step     :     0.5894869 fs     power     :   0.6919943E-10
   step length   :     0.0052946 a0     speed     :   0.2172581E-03

........................................................................
.............................. CYCLE   35 ..............................
........................................................................

 iter      E             dE          RMSdq      gap      omega  full diag
   1  -3772.0651893 -0.377207E+04  0.215E-04   11.53       0.0  T
   2  -3772.0651893 -0.799810E-08  0.131E-04   11.53      12.8  T
   3  -3772.0651893 -0.318323E-10  0.213E-05   11.53      78.9  T
     SCC iter.                  ...        3 min, 40.862 sec
     gradient                   ...        4 min, 15.150 sec
 * total energy  : -3716.2465915 Eh     change    :  -0.4455095E-05 Eh
   gradient norm :     0.0020956 Eh/a0  converged?    E=T G=F D=F
   time step     :     0.6484356 fs     power     :   0.7446320E-10
   step length   :     0.0058130 a0     speed     :   0.2168428E-03

........................................................................
.............................. CYCLE   36 ..............................
........................................................................

 iter      E             dE          RMSdq      gap      omega  full diag
   1  -3772.0666692 -0.377207E+04  0.257E-04   11.53       0.0  T
   2  -3772.0666692 -0.316686E-08  0.151E-04   11.53      11.1  T
   3  -3772.0666692 -0.891305E-10  0.150E-05   11.53     111.8  T
     SCC iter.                  ...        3 min, 43.784 sec
     gradient                   ...        4 min, 15.403 sec
 * total energy  : -3716.2465978 Eh     change    :  -0.6268188E-05 Eh
   gradient norm :     0.0018479 Eh/a0  converged?    E=F G=F D=F
   time step     :     0.7132792 fs     power     :   0.1040791E-09
   step length   :     0.0064651 a0     speed     :   0.2192462E-03

........................................................................
.............................. CYCLE   37 ..............................
........................................................................

 iter      E             dE          RMSdq      gap      omega  full diag
   1  -3772.0700416 -0.377207E+04  0.343E-04   11.53       0.0  T
   2  -3772.0700417 -0.148293E-07  0.199E-04   11.53       8.5  T
   3  -3772.0700417  0.982254E-10  0.356E-05   11.53      47.2  T
     SCC iter.                  ...        3 min, 44.241 sec
     gradient                   ...        4 min, 13.821 sec
 * total energy  : -3716.2466050 Eh     change    :  -0.7194847E-05 Eh
   gradient norm :     0.0013836 Eh/a0  converged?    E=F G=F D=F
   time step     :     0.7846071 fs     power     :   0.9512593E-10
   step length   :     0.0074266 a0     speed     :   0.2289574E-03

........................................................................
.............................. CYCLE   38 ..............................
........................................................................

 iter      E             dE          RMSdq      gap      omega  full diag
   1  -3772.0734914 -0.377207E+04  0.340E-04   11.53       0.0  T
   2  -3772.0734914 -0.183272E-07  0.198E-04   11.53       8.5  T
   3  -3772.0734914 -0.351974E-09  0.379E-05   11.53      44.4  T
     SCC iter.                  ...        3 min, 45.099 sec
     gradient                   ...        4 min, 14.050 sec
 * total energy  : -3716.2466113 Eh     change    :  -0.6310524E-05 Eh
   gradient norm :     0.0017394 Eh/a0  converged?    E=F G=F D=F
   time step     :     0.8630678 fs     power     :   0.7035789E-10
   step length   :     0.0084892 a0     speed     :   0.2379231E-03

........................................................................
.............................. CYCLE   39 ..............................
........................................................................

 iter      E             dE          RMSdq      gap      omega  full diag
   1  -3772.0743596 -0.377207E+04  0.267E-04   11.53       0.0  T
   2  -3772.0743596 -0.761884E-08  0.157E-04   11.53      10.7  T
   3  -3772.0743596 -0.291038E-09  0.260E-05   11.53      64.7  T
     SCC iter.                  ...        3 min, 48.814 sec
     gradient                   ...        4 min, 22.378 sec
 * total energy  : -3716.2466189 Eh     change    :  -0.7612228E-05 Eh
   gradient norm :     0.0017079 Eh/a0  converged?    E=F G=F D=F
   time step     :     0.9493746 fs     power     :   0.9220565E-10
   step length   :     0.0094814 a0     speed     :   0.2415735E-03

........................................................................
.............................. CYCLE   40 ..............................
........................................................................

 iter      E             dE          RMSdq      gap      omega  full diag
   1  -3772.0721038 -0.377207E+04  0.336E-04   11.53       0.0  T
   2  -3772.0721038 -0.237524E-07  0.200E-04   11.53       8.4  T
   3  -3772.0721038  0.102773E-09  0.489E-05   11.53      34.4  T
     SCC iter.                  ...        3 min, 43.546 sec
     gradient                   ...        4 min, 14.396 sec
 * total energy  : -3716.2466279 Eh     change    :  -0.9023494E-05 Eh
   gradient norm :     0.0013687 Eh/a0  converged?    E=F G=F D=F
   time step     :     1.0443120 fs     power     :   0.8713289E-10
   step length   :     0.0108772 a0     speed     :   0.2519422E-03

........................................................................
.............................. CYCLE   41 ..............................
........................................................................

 iter      E             dE          RMSdq      gap      omega  full diag
   1  -3772.0702755 -0.377207E+04  0.356E-04   11.53       0.0  T
   2  -3772.0702755 -0.142131E-07  0.211E-04   11.53       8.0  T
   3  -3772.0702755 -0.909495E-11  0.315E-05   11.53      53.4  T
     SCC iter.                  ...        3 min, 43.217 sec
     gradient                   ...        4 min, 15.663 sec
 * total energy  : -3716.2466367 Eh     change    :  -0.8763975E-05 Eh
   gradient norm :     0.0016689 Eh/a0  converged?    E=F G=F D=F
   time step     :     1.1487432 fs     power     :   0.7966898E-10
   step length   :     0.0124270 a0     speed     :   0.2616736E-03

........................................................................
.............................. CYCLE   42 ..............................
........................................................................

 iter      E             dE          RMSdq      gap      omega  full diag
   1  -3772.0725248 -0.377207E+04  0.400E-04   11.53       0.0  T
   2  -3772.0725248 -0.210662E-07  0.232E-04   11.53       7.3  T
   3  -3772.0725248 -0.250111E-10  0.461E-05   11.53      36.5  T
     SCC iter.                  ...        3 min, 46.332 sec
     gradient                   ...        4 min, 16.135 sec
 * total energy  : -3716.2466473 Eh     change    :  -0.1064543E-04 Eh
   gradient norm :     0.0012967 Eh/a0  converged?    E=F G=F D=F
   time step     :     1.2500000 fs     power     :   0.8894733E-10
   step length   :     0.0139845 a0     speed     :   0.2706151E-03
 * RMSD in coord.:     0.0017381 a0     energy gain  -0.1109872E-03 Eh

........................................................................
.............................. CYCLE   43 ..............................
........................................................................

 iter      E             dE          RMSdq      gap      omega  full diag
   1  -3772.0730194 -0.377207E+04  0.684E-05   11.53       0.0  T
   2  -3772.0730194 -0.582077E-09  0.402E-05   11.53      41.8  T
   3  -3772.0730194 -0.150067E-10  0.654E-06   11.53     257.2  T
     SCC iter.                  ...        3 min, 40.798 sec
     gradient                   ...        4 min, 13.663 sec
 * total energy  : -3716.2466492 Eh     change    :  -0.1898993E-05 Eh
   gradient norm :     0.0012831 Eh/a0  converged?    E=T G=F D=F
   time step     :     0.2500000 fs     power     :   0.9771603E-10
   step length   :     0.0027000 a0     speed     :   0.2612437E-03

........................................................................
.............................. CYCLE   44 ..............................
........................................................................

 iter      E             dE          RMSdq      gap      omega  full diag
   1  -3772.0734663 -0.377207E+04  0.649E-05   11.53       0.0  T
   2  -3772.0734663 -0.688033E-09  0.380E-05   11.53      44.2  T
   3  -3772.0734663 -0.864020E-10  0.807E-06   11.53     208.5  T
     SCC iter.                  ...        3 min, 40.287 sec
     gradient                   ...        4 min, 14.194 sec
 * total energy  : -3716.2466513 Eh     change    :  -0.2041111E-05 Eh
   gradient norm :     0.0011988 Eh/a0  converged?    E=T G=F D=F
   time step     :     0.2500000 fs     power     :   0.1041149E-09
   step length   :     0.0026298 a0     speed     :   0.2544455E-03

........................................................................
.............................. CYCLE   45 ..............................
........................................................................

 iter      E             dE          RMSdq      gap      omega  full diag
   1  -3772.0737960 -0.377207E+04  0.716E-05   11.53       0.0  T
   2  -3772.0737960 -0.764430E-09  0.421E-05   11.53      39.9  T
   3  -3772.0737960 -0.163709E-10  0.786E-06   11.53     213.9  T
     SCC iter.                  ...        3 min, 42.318 sec
     gradient                   ...        4 min, 13.276 sec
 * total energy  : -3716.2466533 Eh     change    :  -0.2084664E-05 Eh
   gradient norm :     0.0010833 Eh/a0  converged?    E=T G=F D=F
   time step     :     0.2500000 fs     power     :   0.1053508E-09
   step length   :     0.0025873 a0     speed     :   0.2503370E-03

........................................................................
.............................. CYCLE   46 ..............................
........................................................................

 iter      E             dE          RMSdq      gap      omega  full diag
   1  -3772.0739675 -0.377207E+04  0.799E-05   11.53       0.0  T
   2  -3772.0739675 -0.656200E-09  0.470E-05   11.53      35.8  T
   3  -3772.0739675  0.513865E-10  0.764E-06   11.53     220.0  T
     SCC iter.                  ...        3 min, 46.046 sec
     gradient                   ...        4 min, 13.171 sec
 * total energy  : -3716.2466554 Eh     change    :  -0.2033030E-05 Eh
   gradient norm :     0.0009980 Eh/a0  converged?    E=T G=T D=F
   time step     :     0.2500000 fs     power     :   0.1020677E-09
   step length   :     0.0025669 a0     speed     :   0.2483574E-03

   *** GEOMETRY OPTIMIZATION CONVERGED AFTER 46 CYCLES ***

------------------------------------------------------------------------
 total energy gain   :        -0.0004806 Eh       -0.3016 kcal/mol
 total RMSD          :         0.0021995 a0        0.0012 Å
 total power (kW/mol):        -0.0274316 (step)   -0.0001 (real)
------------------------------------------------------------------------

 FIRE (total)                  0 d,  6 h, 25 min, 29.660 sec
 setup                          ...        0 min,  0.139 sec (  0.001%)
 velocities                     ...        0 min,  0.003 sec (  0.000%)
 propagation                    ...        0 min,  0.005 sec (  0.000%)
 singlepoint calculation        ...      385 min, 28.712 sec ( 99.996%)
 log and printout               ...        0 min,  0.729 sec (  0.003%)
 preconditioner                 ...        0 min,  0.000 sec (  0.000%)
 model hessian                  ...        0 min,  0.000 sec (  0.000%)
 hessian update                 ...        0 min,  0.000 sec (  0.000%)

================
 final structure:
================
3536
 xtb: 6.6.1 (8d0f1dd)
C           58.99859174411034       56.00757109823762       41.93908300816914
C           58.13333217010103       56.75788934000295       40.92724826974501
C           57.08781918792711       55.80740316901525       40.34831406888627
C           59.02488190683427       57.36126797256978       39.83583973759566
C           58.32750981378262       58.33221476324406       38.87215914969615
C           59.19832890468522       58.52074823707949       37.62990070609124
C           58.05250820281867       59.68484323438117       39.54146808319204
C           56.95357251898138       60.51193795317700       38.85668931080544
C           57.08151886431513       61.97200891028203       39.29201983122567
C           55.55458543722861       59.95223130473229       39.17861791059573
C           54.61867043707576       59.85183454484325       37.96780152319820
C           54.29442764845682       61.23089629279193       37.39255792662527
C           53.29733085365341       59.15500040799721       38.32748228853018
C           53.39092001187610       57.70196606703223       38.80716380117043
C           54.12849353086608       56.82158997942798       37.79752876410068
C           51.99207162403017       57.10480486215305       39.02596427002953
C           51.06544031652503       57.82606882580568       40.01628523340499
C           51.68631993380490       57.89179009505177       41.40794794925147
C           49.72092913830542       57.08149145447198       40.01748191977640
C           48.64272638956153       57.57351014202347       40.99430490668404
C           47.40105183497299       56.69858920184308       40.82158493363273
C           48.32042946283842       59.05449037597335       40.77653656323037
C           47.24131743292273       59.65671657465730       41.69238901741571
C           47.13475660006819       61.14853306625353       41.37951963279933
C           47.57941799408110       59.41096427280689       43.16811061447025
C           46.72502269130153       60.14215377337083       44.21630662818595
C           47.22699477346305       59.73664461124826       45.60355930113411
C           45.23305699701503       59.82378706703027       44.06913129978967
C           44.29478397471500       60.65250415992200       44.96200491096282
C           42.91977711877034       59.98516042531414       44.98705531856532
C           44.18472626317186       62.09489842075931       44.45096264776353
C           43.54944117823547       63.09256459648224       45.43232918648268
C           43.01982314941528       64.29512256770634       44.65214123484594
C           44.55624731155839       63.53754140415090       46.50078185009221
C           43.93006630806074       64.35858146627682       47.64599727501572
C           44.43450942299468       65.80261284963862       47.62231695988899
C           44.22909904254858       63.75096815836434       49.02329824765916
C           43.55474986295479       62.40438355786605       49.30899788707188
C           42.03763968203175       62.56012546906343       49.42333307628950
C           44.07556099096429       61.78960581684287       50.61782633270147
C           45.56821652912646       61.44411058770187       50.67181245720686
C           45.95712186145041       60.48170340231985       49.54965230679963
C           45.92823211620576       60.79465289862170       52.01604640560389
C           45.68953291373870       61.63396762148621       53.27849506033312
C           46.29371322838812       63.03399775654983       53.16094227280409
C           46.30549158883231       60.94610303393225       54.50757298853898
C           45.82430441867737       59.52322840053750       54.81052722035593
C           44.33377126041047       59.50748682421051       55.14380757092497
C           46.60551284563751       58.92142798779901       55.98867236714940
C           48.09369306206284       58.64968689845779       55.73821022134480
C           48.29814166775287       57.65512593422177       54.59572718948978
C           48.76615532294451       58.08550287055843       56.99799616623446
C           48.78147994606093       58.99378299164736       58.23310605723407
C           49.33934686881638       60.37949805216330       57.90943914007802
C           49.64004937478182       58.37390160995718       59.34513786461140
C           49.20514724860127       56.99755408537422       59.86683955109726
C           47.79812486625374       57.05590181551480       60.45363923122930
C           50.21854050796412       56.50811840937137       60.92057772982506
C           50.79343710313486       55.09849878723087       60.71511665826945
C           51.42536661389820       54.94802992099272       59.33019398002898
C           49.79458666834178       53.95986756987037       60.95232508499443
C           49.22062761506740       53.83854602419200       62.37191281916395
C           50.29436954079473       53.98186950615084       63.45169041749850
C           48.55089776136668       52.46906823708289       62.56554927765227
C           47.42316145489450       52.09360807325719       61.59830390329286
C           46.32385214170457       53.15329708416374       61.57158428498251
C           46.78459327927857       50.75963998520381       62.01500108716847
C           47.70529053633854       49.53561367023919       62.02541128097523
C           48.22207200750740       49.23424137201977       60.61890012777687
C           46.97300410312341       48.29787793468329       62.56498991827896
C           46.43612077361935       48.39546109233297       63.99895963319945
C           47.54967838423517       48.73944032851564       64.98851840307417
C           45.77707628317164       47.07352669461503       64.42098966926946
C           44.45428830294330       46.72829732876934       63.72104130018513
C           43.33102514121191       47.65300673379618       64.18323242052593
C           44.12763745002160       45.25528490039599       64.01008768408688
C           42.80469239326308       44.71666945715159       63.44587780264860
C           42.61007083084829       43.28086740916767       63.93467513801221
C           42.79242763481240       44.78132492074962       61.91560512394122
C           41.44642896066654       44.48419537148186       61.23842147456484
C           41.68785763073926       44.27564792663654       59.74542952777124
C           40.46521806632374       45.63539554723873       61.48765326070520
C           39.06106357415472       45.50278629211232       60.87785290326146
C           38.26932631218106       46.76167154814482       61.23557839431493
C           38.36695751910091       44.22861080023047       61.37812526257494
C           36.86742659682718       44.09451170538867       61.07080785423187
C           36.34136182633673       42.82719377228940       61.74535193679784
C           36.60536847919619       44.05774970447440       59.56122579457786
C           35.13704977835506       44.18279686330327       59.14994000272568
C           34.54780527037946       45.55994350383538       59.43346663932181
H           58.37802929923665       55.55535430316876       42.70970344776219
H           59.55670873999899       55.21573062670379       41.44392354781691
H           59.70658978544626       56.67875150272279       42.41900036582948
H           33.52957191902176       45.62000296666743       59.05540688291041
H           34.52216790045486       45.76537399220420       60.50069918505554
H           35.13785187736643       46.33451918963919       58.94714286252590
H           37.15313053352317       44.87080746355889       59.08224211377258
H           36.99639079325772       43.11641454747598       59.16693898502431
H           38.87812007230880       43.36176839699619       60.95271241774698
H           38.49015844505821       44.18276582643140       62.46372526584869
H           39.15852864287832       45.45956258382991       59.78907785482373
H           38.05644716400196       46.78606670263894       62.30247794985893
H           38.84446253832906       47.65015478856950       60.98271816957941
H           37.32872176822255       46.80703959028672       60.69405412012959
H           40.34423087100949       45.76628526247684       62.56523106528420
H           40.91673249496801       46.55138034361494       61.09494632520840
H           43.10432857659345       45.77715990487363       61.59703609635658
H           43.53408531103449       44.07091183495685       61.54378727084026
H           36.34498135880262       44.94886591922250       61.50676081260405
H           35.26784306153932       42.72728163715046       61.61013703731118
H           36.82298550697109       41.94491899250890       61.32730338876106
H           36.54339659638881       42.85244680039074       62.81421719612618
H           41.03592340018856       43.56046465715675       61.65215873340320
H           40.77910355600100       43.95995128106794       59.24224229328593
H           42.04048074540714       45.19706474898150       59.28653087149023
H           42.44196643454001       43.50670131657471       59.59172780988003
H           41.98717145233991       45.32093146925190       63.84590841664610
H           42.65287805235086       43.23931680802966       65.02103135906910
H           41.64596964409679       42.88847283543075       63.62260815262622
H           43.38844292329318       42.63248243000333       63.53661336338797
H           44.94221925547487       44.63869641531089       63.61923838214037
H           44.11251600654651       45.12089612692136       65.09509799951056
H           44.58772801699507       46.85511669634597       62.64380059617899
H           43.61400259612396       48.69522630932093       64.06165346184494
H           42.42877231653582       47.48797495015856       63.60096249097084
H           43.10462976615671       47.47969160544830       65.23333939906190
H           46.49034924941241       46.26493741102039       64.24453438543684
H           45.58816426391200       47.10684604692070       65.49698752312378
H           45.68130740662138       49.18468423027939       64.04843937040870
H           47.93543646926100       49.74006976450346       64.81377638597192
H           47.17420545854967       48.70140228922127       66.00915185913246
H           48.36921061767537       48.03033434607681       64.90081172066435
H           46.14441084230364       48.07688752642422       61.88999606229202
H           47.66304459331937       47.45095712412008       62.52025173731926
H           48.56454935614499       49.72988858619679       62.67079189788888
H           48.85949409250075       50.03642069885364       60.25626756696555
H           48.80148279971034       48.31334608865693       60.60830585131389
H           47.39101947152234       49.12332946269926       59.92688715195816
H           46.36768515460935       50.89817725819519       63.01440402926539
H           45.95281075299880       50.54986700973381       61.33768016658294
H           47.83098484564925       51.99475903975427       60.58914844145089
H           46.69464194812313       54.09772321543178       61.18507748601908
H           45.50406731587287       52.82915702787258       60.93370326187813
H           45.93477197197177       53.31832678777184       62.57390702487485
H           49.33569725722659       51.71360449851312       62.49235531721503
H           48.15069743143876       52.42688717124168       63.58243394245078
H           48.47932634329023       54.62552854317359       62.53479158573766
H           49.86228974255457       53.78104078920251       64.43068444622219
H           51.10194466961389       53.27210612925739       63.28401410916631
H           50.70956682890008       54.98558360978708       63.46999328216511
H           48.97142203310557       54.06452388975681       60.24472778650939
H           50.30748234457744       53.02235211944599       60.71922231279088
H           51.59966606594892       54.99161276646622       61.44406514484114
H           52.05263811384098       55.80752359953108       59.10628940766698
H           52.04657577995590       54.05582802102902       59.28850146482330
H           50.67054022052381       54.85911172049111       58.55293946346504
H           51.06842284400351       57.19579884971303       60.93391616684724
H           49.76099922611991       56.55606529960283       61.90866515416162
H           49.19374217037200       56.29425737687468       59.03342112334251
H           47.54436260944063       56.10573074334497       60.91617367428764
H           47.73219460221748       57.83434549813532       61.21109903922070
H           47.06075248875897       57.26429023056211       59.68206968756410
H           50.66523453515644       58.29613513794750       58.97279250808642
H           49.65081267104748       59.06619056174202       60.19194262218608
H           47.76174717440358       59.11803824577790       58.60665532720980
H           48.67802659625736       60.92568739779276       57.24365480997473
H           49.44965899698327       60.96155202965114       58.82144954463369
H           50.31754679366833       60.29711640022663       57.44004681488148
H           48.26256607702650       57.15113811584791       57.25324811209143
H           49.80291160820319       57.84300204861066       56.74776332003218
H           48.59627925157822       59.58041991167905       55.46579465200205
H           47.97114230155213       58.06901116287361       53.64656887562916
H           49.35180240944617       57.40185981589401       54.50353198777464
H           47.74388541088241       56.73800592364849       54.78405815154542
H           46.50526330592199       59.59774746416763       56.83974618008647
H           46.13259713318035       57.97561728267778       56.26598472144023
H           45.98397550892134       58.89374017910032       53.93353781253361
H           43.74146074130368       59.87086479055557       54.30777255404222
H           44.00603807023028       58.49822656931182       55.37736030140371
H           44.13527812235520       60.13534127630673       56.00983081664895
H           47.38790852649882       60.92578281281440       54.36706106233878
H           46.10114568408758       61.56734639541067       55.38405103686852
H           44.61414706035515       61.74329159636283       53.43959170014067
H           45.78256104150397       63.62661552632480       52.40757519207165
H           46.21262596115406       63.55841382485042       54.11140371728639
H           47.34791565024569       62.97555790155089       52.89575748150635
H           45.35373962435808       59.86999089337013       52.09998082343984
H           46.98664965595714       60.52367559478881       51.98407622145314
H           46.16244292617056       62.35410915024020       50.55790859161301
H           45.85969945689666       60.95758571681240       48.57779965987032
H           46.99211804137595       60.16371372981548       49.66201436470043
H           45.32076644588913       59.59946446408924       49.56854513873513
H           43.84559176090841       62.48612870749692       51.42614650271198
H           43.51183460494518       60.87228669528508       50.80884335947591
H           43.75691673328522       61.71523328434835       48.48507339079945
H           41.78401714516833       63.25400649310974       50.22266849467294
H           41.60719081798268       62.93135064883177       48.49728747813393
H           41.57469397942035       61.60095347542244       49.64589011332286
H           45.31189732884815       63.64042583947859       49.10777578089385
H           43.91017370880970       64.46009822091665       49.79224072415929
H           42.84562402478881       64.38445736280848       47.51018344655370
H           45.50119199232803       65.83640218372913       47.83508463900453
H           44.26345867861119       66.25703474415093       46.64954208078488
H           43.92010684684187       66.40015165892297       48.37252196116776
H           45.03945830662180       62.65137877898296       46.91375984095946
H           45.33705557659208       64.12718815824771       46.01594988848201
H           42.70442987950686       62.61131709360316       45.93453974872385
H           42.57399108786546       65.03023828146318       45.31694771663069
H           43.82926935496861       64.77296826471024       44.10344503029733
H           42.26105883248162       63.98262517436581       43.93752613313773
H           45.17609553743243       62.46986127054618       44.18936376405636
H           43.59279674289135       62.07871400204704       43.53227075547166
H           44.68480783723984       60.65860703254012       45.98306136446026
H           42.99577524118281       58.97536649476449       45.38386662940477
H           42.22360841957080       60.53787625191215       45.61247212604795
H           42.50777039775296       59.93167476398404       43.98089461123952
H           44.92553311166375       59.97649769118319       43.03370640129258
H           45.09053842999013       58.76445963539907       44.29778531892924
H           46.88065478878077       61.21826609333363       44.10006213302706
H           46.82550176824075       60.38473247555462       46.37779104866137
H           46.93501758423767       58.71300287174493       45.82981730071399
H           48.31218758710055       59.79455886878714       45.64537523555091
H           47.50629296106656       58.34070469472911       43.36777580438120
H           48.62140067506262       59.70388714851541       43.32717483240945
H           46.28193563463307       59.18716843102701       41.45837517220145
H           48.04202677411841       61.66243960488647       41.69269746302534
H           47.01029792274318       61.29792616008375       40.30871260210530
H           46.28380474491207       61.59950538550847       41.88262087758100
H           49.23481783382833       59.63367141477450       40.91990569342455
H           48.00496794648804       59.19029158280486       39.73861544499383
H           49.01467152552610       57.44050027237358       42.01219276945417
H           46.64744105151854       56.93592963852467       41.56702645757415
H           46.96730891031719       56.84430081098952       39.83438422119725
H           47.66123913860613       55.64689798950869       40.92666189849784
H           49.31044452486977       57.12236804827255       39.00494602344217
H           49.91469340623692       56.02893947055910       40.24241454307905
H           50.89450523038715       58.84455622404700       39.65844282599230
H           51.02924066318270       58.41034314403353       42.10072062062770
H           51.86898354841971       56.89007726983132       41.78714012391698
H           52.63009967109036       58.42943577529172       41.38009911929840
H           51.48767398120143       57.06077692141487       38.05691646704212
H           52.12044753950963       56.07533701312023       39.37159868653262
H           53.93550385462191       57.66537484446298       39.75499410552889
H           53.64758054699735       56.87782949907051       36.82315398865136
H           55.16481591195044       57.12810833360687       37.68426496244977
H           54.11947985146198       55.78331974303888       38.12371637858434
H           52.80869067432645       59.74888707097688       39.10231890818292
H           52.65317512431144       59.17539856883321       37.44433280288432
H           55.12424669517831       59.27539259696635       37.18677549387354
H           55.19202525209006       61.72882295381415       37.03658737627717
H           53.60745827201912       61.13916300246514       36.55350683068830
H           53.82401272192831       61.85787484828072       38.14810565495586
H           55.66686781427652       58.95563480317642       39.60586154042275
H           55.08222327392639       60.57622592150094       39.94126512325286
H           57.10921597490748       60.46357496998482       37.77460907989921
H           58.03125489735474       62.38841306450959       38.96219826953041
H           56.28196190718718       62.58035387213556       38.87903018589734
H           57.04040455763020       62.04507050679160       40.37636022727882
H           57.76262945404459       59.52987544897626       40.58154936721412
H           58.98180557674313       60.25995822903035       39.54672432894627
H           57.37845591431704       57.89265622241330       38.55475445412224
H           58.75068338255824       59.23569417099355       36.94405659608886
H           60.18382036067675       58.88882988003117       37.90987158335441
H           59.32285942105874       57.57799669975685       37.10125995775477
H           59.85495275867699       57.88898320070101       40.31336989249284
H           59.45242317649103       56.53908051229521       39.25633648281663
H           57.61663221551932       57.56783690130749       41.45229324496349
H           56.37983777984831       56.33131571945622       39.71368070319085
H           57.56760824559897       55.03148435221145       39.75579295473108
H           56.52730618992275       55.32795902210592       41.14831190528714
H           35.07103800488679       43.99054035574995       58.07589551873155
H           34.53866351580017       43.42162285072430       59.65225452267420
C           39.20088905881166       51.76201972170394       57.25727671075300
C           38.47834174411297       50.41871004384020       57.31912433919269
C           39.12328507448576       49.53343768012255       58.38537687706308
C           38.50799267207141       49.68951573702557       55.97054582118571
C           37.87182536706011       50.43752287131917       54.79351033089986
C           36.41033593842839       50.78741595297581       55.07472873703195
C           37.93439942265913       49.59568451001934       53.51064499142800
C           39.33200330910554       49.19173683893558       53.02074501063660
C           40.22313543423785       50.41252165971324       52.80993330137910
C           39.18194369926287       48.38665467564442       51.72160184220349
C           40.41695432942585       47.57596129341695       51.30813337632253
[...]
  3286   6 C     3287   6 C                                       1.5328067
  3287   6 C     3288   6 C                                       1.5278190
  3287   6 C     3289   6 C                                       1.5356822
  3289   6 C     3290   6 C                                       1.5329870
  3290   6 C     3291   6 C                                       1.5286652
  3290   6 C     3292   6 C                                       1.5368933
  3292   6 C     3293   6 C                                       1.5340038
  3293   6 C     3294   6 C                                       1.5274524
  3293   6 C     3295   6 C                                       1.5371824
  3295   6 C     3296   6 C                                       1.5368948
  3296   6 C     3297   6 C                                       1.5280841
  3296   6 C     3298   6 C                                       1.5345118
  3298   6 C     3299   6 C                                       1.5338911
  3299   6 C     3300   6 C                                       1.5282373
  3299   6 C     3301   6 C                                       1.5373645
  3302   6 C     3303   6 C                                       1.5288562
  3302   6 C     3304   6 C                                       1.5354044
  3304   6 C     3305   6 C                                       1.5372115
  3305   6 C     3306   6 C                                       1.5293531
  3305   6 C     3307   6 C                                       1.5321841
  3307   6 C     3308   6 C                                       1.5371565
  3308   6 C     3309   6 C                                       1.5279492
  3308   6 C     3310   6 C                                       1.5340607
  3310   6 C     3311   6 C                                       1.5361667
  3311   6 C     3312   6 C                                       1.5292774
  3311   6 C     3313   6 C                                       1.5328776
  3313   6 C     3314   6 C                                       1.5368113
  3314   6 C     3315   6 C                                       1.5292345
  3314   6 C     3316   6 C                                       1.5342783
  3317   6 C     3318   6 C                                       1.5301455
  3317   6 C     3319   6 C                                       1.5357353
  3319   6 C     3320   6 C                                       1.5325428
  3320   6 C     3321   6 C                                       1.5295689
  3320   6 C     3322   6 C                                       1.5363313
  3322   6 C     3323   6 C                                       1.5338398
  3323   6 C     3324   6 C                                       1.5287099
  3323   6 C     3325   6 C                                       1.5370953
  3325   6 C     3326   6 C                                       1.5351675
  3326   6 C     3327   6 C                                       1.5253550
  3326   6 C     3328   6 C                                       1.5359909
  3328   6 C     3329   6 C                                       1.5370335
  3329   6 C     3330   6 C                                       1.5289589
  3329   6 C     3331   6 C                                       1.5329856
  3331   6 C     3332   6 C                                       1.5368414
  3332   6 C     3333   6 C                                       1.5295062
  3332   6 C     3334   6 C                                       1.5336657
  3334   6 C     3335   6 C                                       1.5367506
  3335   6 C     3336   6 C                                       1.5287393
  3335   6 C     3337   6 C                                       1.5342802
  3338   6 C     3339   6 C                                       1.5292238
  3338   6 C     3340   6 C                                       1.5353965
  3340   6 C     3341   6 C                                       1.5320518
  3341   6 C     3342   6 C                                       1.5292683
  3341   6 C     3343   6 C                                       1.5364196
  3343   6 C     3344   6 C                                       1.5377091
  3344   6 C     3345   6 C                                       1.5251772
  3344   6 C     3346   6 C                                       1.5372089
  3346   6 C     3347   6 C                                       1.5333255
  3347   6 C     3348   6 C                                       1.5292957
  3347   6 C     3349   6 C                                       1.5364739
  3349   6 C     3350   6 C                                       1.5395915
  3350   6 C     3351   6 C                                       1.5293667
  3350   6 C     3352   6 C                                       1.5350702
  3352   6 C     3353   6 C                                       1.5266909
  3353   6 C     3354   6 C                                       1.5245514
  3265   6 C     3355   1 H                                       1.0885662
  3265   6 C     3356   1 H                                       1.0865039
  3265   6 C     3357   1 H                                       1.0876842
  3354   6 C     3358   1 H                                       1.0877143
  3354   6 C     3359   1 H                                       1.0881908
  3354   6 C     3360   1 H                                       1.0881691
  3352   6 C     3361   1 H                                       1.0912493
  3352   6 C     3362   1 H                                       1.0929960
  3349   6 C     3363   1 H                                       1.0921802
  3349   6 C     3364   1 H                                       1.0921321
  3347   6 C     3365   1 H                                       1.0949314
  3348   6 C     3366   1 H                                       1.0867769
  3348   6 C     3367   1 H                                       1.0880584
  3348   6 C     3368   1 H                                       1.0875443
  3346   6 C     3369   1 H                                       1.0917953
  3346   6 C     3370   1 H                                       1.0936745
  3343   6 C     3371   1 H                                       1.0937492
  3343   6 C     3372   1 H                                       1.0935074
  3350   6 C     3373   1 H                                       1.0934547
  3351   6 C     3374   1 H                                       1.0883108
  3351   6 C     3375   1 H                                       1.0886372
  3351   6 C     3376   1 H                                       1.0864356
  3344   6 C     3377   1 H                                       1.0936055
  3345   6 C     3378   1 H                                       1.0878788
  3345   6 C     3379   1 H                                       1.0853975
  3345   6 C     3380   1 H                                       1.0857478
  3341   6 C     3381   1 H                                       1.0918522
  3342   6 C     3382   1 H                                       1.0883733
  3342   6 C     3383   1 H                                       1.0869525
  3342   6 C     3384   1 H                                       1.0881330
  3340   6 C     3385   1 H                                       1.0905672
  3340   6 C     3386   1 H                                       1.0933032
  3338   6 C     3387   1 H                                       1.0934622
  3339   6 C     3388   1 H                                       1.0881913
  3339   6 C     3389   1 H                                       1.0881692
  3339   6 C     3390   1 H                                       1.0876146
  3337   6 C     3391   1 H                                       1.0898318
  3337   6 C     3392   1 H                                       1.0924869
  3335   6 C     3393   1 H                                       1.0930767
  3336   6 C     3394   1 H                                       1.0883301
  3336   6 C     3395   1 H                                       1.0872234
  3336   6 C     3396   1 H                                       1.0886585
  3334   6 C     3397   1 H                                       1.0916546
  3334   6 C     3398   1 H                                       1.0934255
  3332   6 C     3399   1 H                                       1.0917623
  3333   6 C     3400   1 H                                       1.0880150
  3333   6 C     3401   1 H                                       1.0865863
  3333   6 C     3402   1 H                                       1.0884846
  3331   6 C     3403   1 H                                       1.0917216
  3331   6 C     3404   1 H                                       1.0933703
  3329   6 C     3405   1 H                                       1.0910331
  3330   6 C     3406   1 H                                       1.0866398
  3330   6 C     3407   1 H                                       1.0882006
  3330   6 C     3408   1 H                                       1.0885262
  3328   6 C     3409   1 H                                       1.0934801
  3328   6 C     3410   1 H                                       1.0939507
  3326   6 C     3411   1 H                                       1.0921670
  3327   6 C     3412   1 H                                       1.0882552
  3327   6 C     3413   1 H                                       1.0863669
  3327   6 C     3414   1 H                                       1.0863465
  3325   6 C     3415   1 H                                       1.0927311
  3325   6 C     3416   1 H                                       1.0936914
  3323   6 C     3417   1 H                                       1.0937651
  3324   6 C     3418   1 H                                       1.0877294
  3324   6 C     3419   1 H                                       1.0880391
  3324   6 C     3420   1 H                                       1.0861196
  3322   6 C     3421   1 H                                       1.0920950
  3322   6 C     3422   1 H                                       1.0934791
  3320   6 C     3423   1 H                                       1.0916151
  3321   6 C     3424   1 H                                       1.0865621
  3321   6 C     3425   1 H                                       1.0883033
  3321   6 C     3426   1 H                                       1.0884469
  3319   6 C     3427   1 H                                       1.0924432
  3319   6 C     3428   1 H                                       1.0936160
  3317   6 C     3429   1 H                                       1.0922949
  3318   6 C     3430   1 H                                       1.0877615
  3318   6 C     3431   1 H                                       1.0883538
  3318   6 C     3432   1 H                                       1.0878885
  3316   6 C     3433   1 H                                       1.0910441
  3316   6 C     3434   1 H                                       1.0930090
  3314   6 C     3435   1 H                                       1.0923933
  3315   6 C     3436   1 H                                       1.0879652
  3315   6 C     3437   1 H                                       1.0871424
  3315   6 C     3438   1 H                                       1.0885614
  3313   6 C     3439   1 H                                       1.0917272
  3313   6 C     3440   1 H                                       1.0931500
  3311   6 C     3441   1 H                                       1.0924999
  3312   6 C     3442   1 H                                       1.0882666
  3312   6 C     3443   1 H                                       1.0880919
  3312   6 C     3444   1 H                                       1.0865149
  3310   6 C     3445   1 H                                       1.0916766
  3310   6 C     3446   1 H                                       1.0927178
  3308   6 C     3447   1 H                                       1.0930417
  3309   6 C     3448   1 H                                       1.0880541
  3309   6 C     3449   1 H                                       1.0880752
  3309   6 C     3450   1 H                                       1.0857715
  3307   6 C     3451   1 H                                       1.0917834
  3307   6 C     3452   1 H                                       1.0937741
  3305   6 C     3453   1 H                                       1.0928945
  3306   6 C     3454   1 H                                       1.0886311
  3306   6 C     3455   1 H                                       1.0880804
  3306   6 C     3456   1 H                                       1.0866446
  3304   6 C     3457   1 H                                       1.0914835
  3304   6 C     3458   1 H                                       1.0937504
  3302   6 C     3459   1 H                                       1.0926448
  3303   6 C     3460   1 H                                       1.0881729
  3303   6 C     3461   1 H                                       1.0883521
  3303   6 C     3462   1 H                                       1.0872174
  3301   6 C     3463   1 H                                       1.0925304
  3301   6 C     3464   1 H                                       1.0912703
  3299   6 C     3465   1 H                                       1.0959230
  3300   6 C     3466   1 H                                       1.0877315
  3300   6 C     3467   1 H                                       1.0871842
  3300   6 C     3468   1 H                                       1.0883416
  3298   6 C     3469   1 H                                       1.0902783
  3298   6 C     3470   1 H                                       1.0914109
  3296   6 C     3471   1 H                                       1.0938192
  3297   6 C     3472   1 H                                       1.0870710
  3297   6 C     3473   1 H                                       1.0885652
  3297   6 C     3474   1 H                                       1.0881117
  3295   6 C     3475   1 H                                       1.0928595
  3295   6 C     3476   1 H                                       1.0922162
  3293   6 C     3477   1 H                                       1.0931649
  3294   6 C     3478   1 H                                       1.0877247
  3294   6 C     3479   1 H                                       1.0883255
  3294   6 C     3480   1 H                                       1.0871031
  3292   6 C     3481   1 H                                       1.0936901
  3292   6 C     3482   1 H                                       1.0933127
  3290   6 C     3483   1 H                                       1.0932292
  3291   6 C     3484   1 H                                       1.0879875
  3291   6 C     3485   1 H                                       1.0864316
  3291   6 C     3486   1 H                                       1.0871324
  3289   6 C     3487   1 H                                       1.0915718
  3289   6 C     3488   1 H                                       1.0937385
  3287   6 C     3489   1 H                                       1.0916242
  3288   6 C     3490   1 H                                       1.0884249
  3288   6 C     3491   1 H                                       1.0862072
  3288   6 C     3492   1 H                                       1.0876003
  3286   6 C     3493   1 H                                       1.0917324
  3286   6 C     3494   1 H                                       1.0934836
  3284   6 C     3495   1 H                                       1.0923046
  3285   6 C     3496   1 H                                       1.0882098
  3285   6 C     3497   1 H                                       1.0884600
  3285   6 C     3498   1 H                                       1.0877461
  3283   6 C     3499   1 H                                       1.0922108
  3283   6 C     3500   1 H                                       1.0921499
  3281   6 C     3501   1 H                                       1.0942910
  3282   6 C     3502   1 H                                       1.0867849
  3282   6 C     3503   1 H                                       1.0885193
  3282   6 C     3504   1 H                                       1.0872293
  3280   6 C     3505   1 H                                       1.0925656
  3280   6 C     3506   1 H                                       1.0919780
  3278   6 C     3507   1 H                                       1.0947104
  3279   6 C     3508   1 H                                       1.0879763
  3279   6 C     3509   1 H                                       1.0871863
  3279   6 C     3510   1 H                                       1.0864629
  3277   6 C     3511   1 H                                       1.0927035
  3277   6 C     3512   1 H                                       1.0940189
  3275   6 C     3513   1 H                                       1.0928359
  3276   6 C     3514   1 H                                       1.0881860
  3276   6 C     3515   1 H                                       1.0878994
  3276   6 C     3516   1 H                                       1.0850035
  3274   6 C     3517   1 H                                       1.0919156
  3274   6 C     3518   1 H                                       1.0921721
  3272   6 C     3519   1 H                                       1.0922404
  3273   6 C     3520   1 H                                       1.0870336
  3273   6 C     3521   1 H                                       1.0880821
  3273   6 C     3522   1 H                                       1.0871878
  3271   6 C     3523   1 H                                       1.0923238
  3271   6 C     3524   1 H                                       1.0943595
  3269   6 C     3525   1 H                                       1.0932504
  3270   6 C     3526   1 H                                       1.0865626
  3270   6 C     3527   1 H                                       1.0881939
  3270   6 C     3528   1 H                                       1.0881734
  3268   6 C     3529   1 H                                       1.0917551
  3268   6 C     3530   1 H                                       1.0934010
  3266   6 C     3531   1 H                                       1.0941977
  3267   6 C     3532   1 H                                       1.0882706
  3267   6 C     3533   1 H                                       1.0877516
  3267   6 C     3534   1 H                                       1.0873735
  3353   6 C     3535   1 H                                       1.0923246
  3353   6 C     3536   1 H                                       1.0912124

 * 2 distinct bonds (by element types)

   Z      Z             #   av. dist./Å        max./Å        min./Å
   1 H    6 C        2366     1.0900722     1.0973065     1.0831862
   6 C    6 C        1110     1.5325294     1.5400098     1.5222441


optimized geometry written to: xtbopt.xyz


           -------------------------------------------------
          | TOTAL ENERGY            -3716.246655379976 Eh   |
          | GRADIENT NORM               0.000998028480 Eh/α |
          | HOMO-LUMO GAP              11.533247518141 eV   |
           -------------------------------------------------

------------------------------------------------------------------------
 * finished run on 2024/10/04 at 21:05:45.473     
------------------------------------------------------------------------
 total:
 * wall-time:     0 d,  6 h, 53 min,  8.811 sec
 *  cpu-time:     1 d, 13 h, 18 min, 23.408 sec
 * ratio c/w:     5.418 speedup
 SCF:
 * wall-time:     0 d,  0 h, 17 min, 48.372 sec
 *  cpu-time:     0 d,  1 h, 55 min, 58.516 sec
 * ratio c/w:     6.513 speedup
 ANC optimizer:
 * wall-time:     0 d,  6 h, 33 min, 53.163 sec
 *  cpu-time:     1 d, 11 h, 20 min, 40.568 sec
 * ratio c/w:     5.384 speedup

