      -----------------------------------------------------------      
     |                   =====================                   |     
     |                           x T B                           |     
     |                   =====================                   |     
     |                         S. Grimme                         |     
     |          Mulliken Center for Theoretical Chemistry        |     
     |                    University of Bonn                     |     
      -----------------------------------------------------------      

   * xtb version 6.6.1 (8d0f1dd) compiled by 'stahn@M-Bot' on 2023-08-01

   xtb is free software: you can redistribute it and/or modify it under
   the terms of the GNU Lesser General Public License as published by
   the Free Software Foundation, either version 3 of the License, or
   (at your option) any later version.
   
   xtb is distributed in the hope that it will be useful,
   but WITHOUT ANY WARRANTY; without even the implied warranty of
   MERCHANTABILITY or FITNESS FOR A PARTICULAR PURPOSE.  See the
   GNU Lesser General Public License for more details.
   
   Cite this work as:
   * C. Bannwarth, E. Caldeweyher, S. Ehlert, A. Hansen, P. Pracht,
     J. Seibert, S. Spicher, S. Grimme, WIREs Comput. Mol. Sci., 2020, 11,
     e01493. DOI: 10.1002/wcms.1493
   
   for GFN2-xTB:
   * C. Bannwarth, S. Ehlert and S. Grimme., J. Chem. Theory Comput., 2019,
     15, 1652-1671. DOI: 10.1021/acs.jctc.8b01176
   for GFN1-xTB:
   * S. Grimme, C. Bannwarth, P. Shushkov, J. Chem. Theory Comput., 2017,
     13, 1989-2009. DOI: 10.1021/acs.jctc.7b00118
   for GFN0-xTB:
   * P. Pracht, E. Caldeweyher, S. Ehlert, S. Grimme, ChemRxiv, 2019, preprint.
     DOI: 10.26434/chemrxiv.8326202.v1
   for GFN-FF:
   * S. Spicher and S. Grimme, Angew. Chem. Int. Ed., 2020, 59, 15665-15673.
     DOI: 10.1002/anie.202004239
   
   for ALPB and GBSA implicit solvation:
   * S. Ehlert, M. Stahn, S. Spicher, S. Grimme, J. Chem. Theory Comput.,
     2021, 17, 4250-4261. DOI: 10.1021/acs.jctc.1c00471
   
   for DFT-D4:
   * E. Caldeweyher, C. Bannwarth and S. Grimme, J. Chem. Phys., 2017,
     147, 034112. DOI: 10.1063/1.4993215
   * E. Caldeweyher, S. Ehlert, A. Hansen, H. Neugebauer, S. Spicher,
     C. Bannwarth and S. Grimme, J. Chem. Phys., 2019, 150, 154122.
     DOI: 10.1063/1.5090222
   * E. Caldeweyher, J.-M. Mewes, S. Ehlert and S. Grimme, Phys. Chem. Chem. Phys.
     2020, 22, 8499-8512. DOI: 10.1039/D0CP00502A
   
   for sTDA-xTB:
   * S. Grimme and C. Bannwarth, J. Chem. Phys., 2016, 145, 054103.
     DOI: 10.1063/1.4959605
   
   in the mass-spec context:
   * V. Asgeirsson, C. Bauer and S. Grimme, Chem. Sci., 2017, 8, 4879.
     DOI: 10.1039/c7sc00601b
   * J. Koopman and S. Grimme, ACS Omega 2019, 4, 12, 15120-15133.
     DOI: 10.1021/acsomega.9b02011
   
   for metadynamics refer to:
   * S. Grimme, J. Chem. Theory Comput., 2019, 155, 2847-2862
     DOI: 10.1021/acs.jctc.9b00143
   
   for SPH calculations refer to:
   * S. Spicher and S. Grimme, J. Chem. Theory Comput., 2021, 17, 1701-1714
     DOI: 10.1021/acs.jctc.0c01306
   
   with help from (in alphabetical order)
   P. Atkinson, C. Bannwarth, F. Bohle, G. Brandenburg, E. Caldeweyher
   M. Checinski, S. Dohm, S. Ehlert, S. Ehrlich, I. Gerasimov, C. Hölzer
   A. Katbashev, J. Koopman, C. Lavigne, S. Lehtola, F. März, M. Müller,
   F. Musil, H. Neugebauer, J. Pisarek, C. Plett, P. Pracht, F. Pultar,
   J. Seibert, P. Shushkov, S. Spicher, M. Stahn, M. Steiner, T. Strunk,
   J. Stückrath, T. Rose, and J. Unsleber
   
 * started run on 2024/10/04 at 12:43:09.175     

           -------------------------------------------------
          |                Calculation Setup                |
           -------------------------------------------------

          program call               : /home/abt-grimme/AK-bin/xtb input.xyz --input input.inp --opt
          hostname                   : boar063.thch.uni-bonn.de
          coordinate file            : input.xyz
          omp threads                :                     8

   ID    Z sym.   atoms
    1    6 C      1-90, 273-362, 545-634, 817-906, 1089-1178, 1361-1450,
                  1633-1722, 1905-1994, 2177-2266, 2449-2538, 2721-2810,
                  2993-3082, 3265-3354
    2    1 H      91-272, 363-544, 635-816, 907-1088, 1179-1360, 1451-1632,
                  1723-1904, 1995-2176, 2267-2448, 2539-2720, 2811-2992,
                  3083-3264, 3355-3536

molecular fragmentation (1/2 indicates fragments):
111111111111111111111111111111111111111111111111111111111111111111111111
111111111111111111111111111111111111111111111111111111111111111111111111
111111111111111111111111111111111111111111111111111111111111111111111111
111111111111111111111111111111111111111111111111111111112222222222222222
222222222222222222222222222222222222222222222222222222222222222222222222
222222222222222222222222222222222222222222222222222222222222222222222222
222222222222222222222222222222222222222222222222222222222222222222222222
222222222222222222222222222222222222222222222222222222222222222222222222
222222222222222222222222222222222222222222222222222222222222222222222222
222222222222222222222222222222222222222222222222222222222222222222222222
222222222222222222222222222222222222222222222222222222222222222222222222
222222222222222222222222222222222222222222222222222222222222222222222222
222222222222222222222222222222222222222222222222222222222222222222222222
222222222222222222222222222222222222222222222222222222222222222222222222
222222222222222222222222222222222222222222222222222222222222222222222222
222222222222222222222222222222222222222222222222222222222222222222222222
222222222222222222222222222222222222222222222222222222222222222222222222
222222222222222222222222222222222222222222222222222222222222222222222222
222222222222222222222222222222222222222222222222222222222222222222222222
222222222222222222222222222222222222222222222222222222222222222222222222
222222222222222222222222222222222222222222222222222222222222222222222222
222222222222222222222222222222222222222222222222222222222222222222222222
222222222222222222222222222222222222222222222222222222222222222222222222
222222222222222222222222222222222222222222222222222222222222222222222222
222222222222222222222222222222222222222222222222222222222222222222222222
222222222222222222222222222222222222222222222222222222222222222222222222
222222222222222222222222222222222222222222222222222222222222222222222222
222222222222222222222222222222222222222222222222222222222222222222222222
222222222222222222222222222222222222222222222222222222222222222222222222
222222222222222222222222222222222222222222222222222222222222222222222222
222222222222222222222222222222222222222222222222222222222222222222222222
222222222222222222222222222222222222222222222222222222222222222222222222
222222222222222222222222222222222222222222222222222222222222222222222222
222222222222222222222222222222222222222222222222222222222222222222222222
222222222222222222222222222222222222222222222222222222222222222222222222
222222222222222222222222222222222222222222222222222222222222222222222222
222222222222222222222222222222222222222222222222222222222222222222222222
222222222222222222222222222222222222222222222222222222222222222222222222
222222222222222222222222222222222222222222222222222222222222222222222222
222222222222222222222222222222222222222222222222222222222222222222222222
222222222222222222222222222222222222222222222222222222222222222222222222
222222222222222222222222222222222222222222222222222222222222222222222222
222222222222222222222222222222222222222222222222222222222222222222222222
222222222222222222222222222222222222222222222222222222222222222222222222
222222222222222222222222222222222222222222222222222222222222222222222222
222222222222222222222222222222222222222222222222222222222222222222222222
222222222222222222222222222222222222222222222222222222222222222222222222
222222222222222222222222222222222222222222222222222222222222222222222222
222222222222222222222222222222222222222222222222222222222222222222222222
22222222
# atoms in fragment 1/2:   272  3264
 fragment masses (1/2) :     1264.41    15172.94
CMA distance (Bohr)    :  25.297
constraining FC (au)   :  0.0500

           -------------------------------------------------
          |                 G F N 2 - x T B                 |
           -------------------------------------------------

        Reference                      10.1021/acs.jctc.8b01176
      * Hamiltonian:
        H0-scaling (s, p, d)           1.850000    2.230000    2.230000
        zeta-weighting                 0.500000
      * Dispersion:
        s8                             2.700000
        a1                             0.520000
        a2                             5.000000
        s9                             5.000000
      * Repulsion:
        kExp                           1.500000    1.000000
        rExp                           1.000000
      * Coulomb:
        alpha                          2.000000
        third order                    shell-resolved
        anisotropic                    true
        a3                             3.000000
        a5                             4.000000
        cn-shift                       1.200000
        cn-exp                         4.000000
        max-rad                        5.000000


          ...................................................
          :                      SETUP                      :
          :.................................................:
          :  # basis functions                7046          :
          :  # atomic orbitals                7046          :
          :  # shells                         4706          :
          :  # electrons                      7046          :
          :  max. iterations                   250          :
          :  Hamiltonian                  GFN2-xTB          :
          :  restarted?                      false          :
          :  GBSA solvation                  false          :
          :  PC potential                    false          :
          :  electronic temp.          300.0000000     K    :
          :  accuracy                    1.0000000          :
          :  -> integral cutoff          0.2500000E+02      :
          :  -> integral neglect         0.1000000E-07      :
          :  -> SCF convergence          0.1000000E-05 Eh   :
          :  -> wf. convergence          0.1000000E-03 e    :
          :  Broyden damping             0.4000000          :
          ...................................................

 iter      E             dE          RMSdq      gap      omega  full diag
   1  -3766.6905467 -0.376669E+04  0.226E+00   11.54       0.0  T
   2  -3771.7715946 -0.508105E+01  0.125E+00   11.54       1.0  T
   3  -3771.9834667 -0.211872E+00  0.559E-01   11.53       1.0  T
   4  -3772.0050854 -0.216187E-01  0.143E-01   11.51       1.0  T
   5  -3772.0248958 -0.198104E-01  0.511E-02   11.51       1.0  T
   6  -3772.0249165 -0.206616E-04  0.728E-03   11.51       1.0  T
   7  -3772.0249495 -0.330638E-04  0.153E-03   11.51       1.1  T
   8  -3772.0249514 -0.189592E-05  0.550E-04   11.51       3.1  T
   9  -3772.0249515 -0.976102E-07  0.184E-04   11.51       9.1  T
  10  -3772.0249515 -0.154146E-07  0.699E-05   11.51      24.1  T

   *** convergence criteria satisfied after 10 iterations ***

         #    Occupation            Energy/Eh            Energy/eV
      -------------------------------------------------------------
         1        2.0000           -0.6269227             -17.0594
       ...           ...                  ...                  ...
      3517        2.0000           -0.3955024             -10.7622
      3518        2.0000           -0.3951834             -10.7535
      3519        2.0000           -0.3948662             -10.7449
      3520        2.0000           -0.3948309             -10.7439
      3521        2.0000           -0.3947678             -10.7422
      3522        2.0000           -0.3947226             -10.7409
      3523        2.0000           -0.3942403             -10.7278 (HOMO)
      3524                          0.0288051               0.7838 (LUMO)
      3525                          0.0294974               0.8027
      3526                          0.0296087               0.8057
      3527                          0.0299283               0.8144
      3528                          0.0300083               0.8166
       ...                                ...                  ...
      7046                          0.3772802              10.2663
      -------------------------------------------------------------
                  HL-Gap            0.4230454 Eh           11.5117 eV
             Fermi-level           -0.1827176 Eh           -4.9720 eV

 SCC (total)                   0 d,  0 h, 17 min, 30.685 sec
 SCC setup                      ...        0 min,  0.486 sec (  0.046%)
 Dispersion                     ...        0 min,  4.203 sec (  0.400%)
 classical contributions        ...        0 min,  0.188 sec (  0.018%)
 integral evaluation            ...        0 min,  7.003 sec (  0.667%)
 iterations                     ...       12 min, 49.973 sec ( 73.283%)
 molecular gradient             ...        4 min, 17.735 sec ( 24.530%)
 printout                       ...        0 min, 11.095 sec (  1.056%)

         :::::::::::::::::::::::::::::::::::::::::::::::::::::
         ::                     SUMMARY                     ::
         :::::::::::::::::::::::::::::::::::::::::::::::::::::
         :: total energy           -3716.247094611253 Eh    ::
         :: gradient norm              0.018681669562 Eh/a0 ::
         :: HOMO-LUMO gap             11.511651779128 eV    ::
         ::.................................................::
         :: SCC energy             -3772.024951529663 Eh    ::
         :: -> isotropic ES            0.587156960994 Eh    ::
         :: -> anisotropic ES          1.295052529110 Eh    ::
         :: -> anisotropic XC          2.077799135481 Eh    ::
         :: -> dispersion             -4.527194311362 Eh    ::
         :: repulsion energy          55.114536055991 Eh    ::
         :: add. restraining           0.000000000000 Eh    ::
         :: total charge              -0.000000000008 e     ::
         :::::::::::::::::::::::::::::::::::::::::::::::::::::

      ----------------------------------------------------------- 
     |              Fast Inertial Relaxation Engine              |
      ----------------------------------------------------------- 

          ...................................................
          :                      SETUP                      :
          :.................................................:
          :   energy convergence        0.5000000E-05 Eh    :
          :   grad. convergence         0.1000000E-02 Eh/a0 :
          :   optimization log               true           :
          :   writing optlog all                1     steps :
          :   Hessian reset                    20     steps :
          :   time step scaling                 5     steps :
          :   maximium step len.        1.0000000     a0    :
          :   initial time step         0.2500000     fs    :
          :   maximum time step         1.2500000     fs    :
          :   power reset thr           0.0000000     au    :
          :   alpha parameter           0.1000000           :
          :   BFGS update                   false           :
          :   preconditioning               false           :
          ...................................................

........................................................................
.............................. CYCLE    1 ..............................
........................................................................

 iter      E             dE          RMSdq      gap      omega  full diag
   1  -3772.0283880 -0.377203E+04  0.251E-04   11.51       0.0  T
   2  -3772.0283880 -0.271534E-07  0.148E-04   11.51      11.3  T
   3  -3772.0283880 -0.458385E-09  0.483E-05   11.51      34.8  T
     SCC iter.                  ...        3 min, 49.167 sec
     gradient                   ...        4 min, 18.772 sec
 * total energy  : -3716.2471340 Eh     change    :  -0.3936257E-04 Eh
   gradient norm :     0.0172993 Eh/a0  converged?    E=F G=F D=F
   time step     :     0.2500000 fs     power     :   0.2009588E-08
   step length   :     0.0021895 a0     speed     :   0.2118412E-03

........................................................................
.............................. CYCLE    2 ..............................
........................................................................

 iter      E             dE          RMSdq      gap      omega  full diag
   1  -3772.0333869 -0.377203E+04  0.367E-04   11.51       0.0  T
   2  -3772.0333869 -0.551486E-07  0.218E-04   11.51       7.7  T
   3  -3772.0333869 -0.916771E-09  0.678E-05   11.51      24.8  T
     SCC iter.                  ...        3 min, 48.434 sec
     gradient                   ...        4 min, 19.225 sec
 * total energy  : -3716.2471862 Eh     change    :  -0.5218070E-04 Eh
   gradient norm :     0.0153194 Eh/a0  converged?    E=F G=F D=F
   time step     :     0.2500000 fs     power     :   0.2598690E-08
   step length   :     0.0032029 a0     speed     :   0.3098950E-03

........................................................................
.............................. CYCLE    3 ..............................
........................................................................

 iter      E             dE          RMSdq      gap      omega  full diag
   1  -3772.0397254 -0.377204E+04  0.469E-04   11.51       0.0  T
   2  -3772.0397255 -0.885411E-07  0.279E-04   11.51       6.0  T
   3  -3772.0397255 -0.135742E-08  0.855E-05   11.51      19.7  T
     SCC iter.                  ...        3 min, 51.224 sec
     gradient                   ...        4 min, 18.864 sec
 * total energy  : -3716.2472437 Eh     change    :  -0.5755118E-04 Eh
   gradient norm :     0.0128706 Eh/a0  converged?    E=F G=F D=F
   time step     :     0.2500000 fs     power     :   0.2777374E-08
   step length   :     0.0040987 a0     speed     :   0.3965729E-03

........................................................................
.............................. CYCLE    4 ..............................
........................................................................

 iter      E             dE          RMSdq      gap      omega  full diag
   1  -3772.0471106 -0.377205E+04  0.555E-04   11.51       0.0  T
   2  -3772.0471107 -0.120502E-06  0.330E-04   11.51       5.1  T
   3  -3772.0471107 -0.177170E-08  0.991E-05   11.51      17.0  T
     SCC iter.                  ...        3 min, 45.503 sec
     gradient                   ...        4 min, 18.474 sec
 * total energy  : -3716.2472987 Eh     change    :  -0.5498578E-04 Eh
   gradient norm :     0.0101587 Eh/a0  converged?    E=F G=F D=F
   time step     :     0.2500000 fs     power     :   0.2540814E-08
   step length   :     0.0048458 a0     speed     :   0.4688531E-03

........................................................................
.............................. CYCLE    5 ..............................
........................................................................

 iter      E             dE          RMSdq      gap      omega  full diag
   1  -3772.0551709 -0.377206E+04  0.620E-04   11.51       0.0  T
   2  -3772.0551711 -0.144471E-06  0.368E-04   11.51       4.6  T
   3  -3772.0551711 -0.219370E-08  0.108E-04   11.51      15.6  T
     SCC iter.                  ...        3 min, 39.148 sec
     gradient                   ...        4 min, 20.351 sec
 * total energy  : -3716.2473442 Eh     change    :  -0.4551064E-04 Eh
   gradient norm :     0.0075375 Eh/a0  converged?    E=F G=F D=F
   time step     :     0.2500000 fs     power     :   0.1960685E-08
   step length   :     0.0054171 a0     speed     :   0.5241365E-03

........................................................................
.............................. CYCLE    6 ..............................
........................................................................

 iter      E             dE          RMSdq      gap      omega  full diag
   1  -3772.0642863 -0.377206E+04  0.731E-04   11.51       0.0  T
   2  -3772.0642865 -0.189169E-06  0.435E-04   11.51       3.9  T
   3  -3772.0642865 -0.273212E-08  0.121E-04   11.51      13.9  T
     SCC iter.                  ...        3 min, 48.737 sec
     gradient                   ...        4 min, 19.507 sec
 * total energy  : -3716.2473781 Eh     change    :  -0.3388558E-04 Eh
   gradient norm :     0.0055692 Eh/a0  converged?    E=F G=F D=F
   time step     :     0.2750000 fs     power     :   0.1094932E-08
   step length   :     0.0064037 a0     speed     :   0.5632644E-03

........................................................................
.............................. CYCLE    7 ..............................
........................................................................

 iter      E             dE          RMSdq      gap      omega  full diag
   1  -3772.0735655 -0.377207E+04  0.817E-04   11.51       0.0  T
   2  -3772.0735657 -0.202882E-06  0.487E-04   11.51       3.5  T
   3  -3772.0735657 -0.274940E-08  0.121E-04   11.51      13.9  T
     SCC iter.                  ...        3 min, 41.496 sec
     gradient                   ...        4 min, 18.446 sec
 * total energy  : -3716.2473948 Eh     change    :  -0.1671918E-04 Eh
   gradient norm :     0.0056830 Eh/a0  converged?    E=F G=F D=F
   time step     :     0.3025000 fs     power     :   0.1931457E-09
   step length   :     0.0071521 a0     speed     :   0.5719049E-03

........................................................................
.............................. CYCLE    8 ..............................
........................................................................

 iter      E             dE          RMSdq      gap      omega  full diag
   1  -3772.0815115 -0.377208E+04  0.844E-04   11.52       0.0  T
   2  -3772.0815117 -0.161145E-06  0.504E-04   11.52       3.3  T
   3  -3772.0815117 -0.212549E-08  0.100E-04   11.52      16.8  T
     SCC iter.                  ...        3 min, 45.897 sec
     gradient                   ...        4 min, 18.398 sec
 * total energy  : -3716.2473964 Eh     change    :  -0.1551115E-05 Eh
   gradient norm :     0.0073122 Eh/a0  converged?    E=T G=F D=F
   time step     :     0.3327500 fs     power     :  -0.3597454E-09
   step length   :     0.0073690 a0     speed     :   0.5356776E-03

........................................................................
.............................. CYCLE    9 ..............................
........................................................................
 * reset velocities

 iter      E             dE          RMSdq      gap      omega  full diag
   1  -3772.0812378 -0.377208E+04  0.293E-05   11.52       0.0  T
   2  -3772.0812378 -0.108093E-08  0.141E-05   11.52     119.4  T
   3  -3772.0812378 -0.541149E-10  0.773E-06   11.52     217.6  T
     SCC iter.                  ...        3 min, 46.481 sec
     gradient                   ...        4 min, 18.390 sec
 * total energy  : -3716.2473977 Eh     change    :  -0.1382874E-05 Eh
   gradient norm :     0.0071939 Eh/a0  converged?    E=T G=F D=T
   time step     :     0.1663750 fs     power     :   0.1088828E-09
   step length   :     0.0001898 a0     speed     :   0.2759076E-04

........................................................................
.............................. CYCLE   10 ..............................
........................................................................

 iter      E             dE          RMSdq      gap      omega  full diag
   1  -3772.0806948 -0.377208E+04  0.449E-05   11.52       0.0  T
   2  -3772.0806948 -0.593900E-09  0.266E-05   11.52      63.1  T
   3  -3772.0806948  0.222826E-10  0.733E-06   11.52     229.4  T
     SCC iter.                  ...        3 min, 43.943 sec
     gradient                   ...        4 min, 17.351 sec
 * total energy  : -3716.2474004 Eh     change    :  -0.2663517E-05 Eh
   gradient norm :     0.0069546 Eh/a0  converged?    E=T G=F D=T
   time step     :     0.1663750 fs     power     :   0.2087897E-09
   step length   :     0.0003765 a0     speed     :   0.5473476E-04

........................................................................
.............................. CYCLE   11 ..............................
........................................................................

 iter      E             dE          RMSdq      gap      omega  full diag
   1  -3772.0798940 -0.377208E+04  0.650E-05   11.51       0.0  T
   2  -3772.0798940 -0.137061E-08  0.386E-05   11.51      43.6  T
   3  -3772.0798940  0.554792E-10  0.107E-05   11.51     157.4  T
     SCC iter.                  ...        3 min, 44.113 sec
     gradient                   ...        4 min, 18.814 sec
 * total energy  : -3716.2474042 Eh     change    :  -0.3774878E-05 Eh
   gradient norm :     0.0066052 Eh/a0  converged?    E=T G=F D=T
   time step     :     0.1663750 fs     power     :   0.2932354E-09
   step length   :     0.0005569 a0     speed     :   0.8097313E-04

........................................................................
.............................. CYCLE   12 ..............................
........................................................................

 iter      E             dE          RMSdq      gap      omega  full diag
   1  -3772.0788522 -0.377208E+04  0.850E-05   11.51       0.0  T
   2  -3772.0788522 -0.223554E-08  0.504E-05   11.51      33.3  T
   3  -3772.0788522 -0.500222E-11  0.138E-05   11.51     122.1  T
     SCC iter.                  ...        3 min, 42.527 sec
     gradient                   ...        4 min, 18.353 sec
 * total energy  : -3716.2474088 Eh     change    :  -0.4644236E-05 Eh
   gradient norm :     0.0061567 Eh/a0  converged?    E=T G=F D=T
   time step     :     0.1663750 fs     power     :   0.3570177E-09
   step length   :     0.0007283 a0     speed     :   0.1058830E-03

........................................................................
.............................. CYCLE   13 ..............................
........................................................................

 iter      E             dE          RMSdq      gap      omega  full diag
   1  -3772.0775921 -0.377208E+04  0.103E-04   11.51       0.0  T
   2  -3772.0775921 -0.317959E-08  0.614E-05   11.51      27.4  T
   3  -3772.0775921 -0.477485E-10  0.165E-05   11.51     101.6  T
     SCC iter.                  ...        3 min, 44.917 sec
     gradient                   ...        4 min, 19.410 sec
 * total energy  : -3716.2474140 Eh     change    :  -0.5217983E-05 Eh
   gradient norm :     0.0056248 Eh/a0  converged?    E=F G=F D=T
   time step     :     0.1663750 fs     power     :   0.3966285E-09
   step length   :     0.0008878 a0     speed     :   0.1290720E-03

........................................................................
.............................. CYCLE   14 ..............................
........................................................................

 iter      E             dE          RMSdq      gap      omega  full diag
   1  -3772.0761422 -0.377208E+04  0.120E-04   11.51       0.0  T
   2  -3772.0761422 -0.427963E-08  0.712E-05   11.51      23.6  T
   3  -3772.0761422 -0.586624E-10  0.189E-05   11.51      88.9  T
     SCC iter.                  ...        3 min, 42.635 sec
     gradient                   ...        4 min, 19.294 sec
 * total energy  : -3716.2474195 Eh     change    :  -0.5477902E-05 Eh
   gradient norm :     0.0050312 Eh/a0  converged?    E=F G=F D=F
   time step     :     0.1663750 fs     power     :   0.4106025E-09
   step length   :     0.0010330 a0     speed     :   0.1501868E-03

........................................................................
.............................. CYCLE   15 ..............................
........................................................................

 iter      E             dE          RMSdq      gap      omega  full diag
   1  -3772.0743585 -0.377207E+04  0.149E-04   11.51       0.0  T
   2  -3772.0743585 -0.644695E-08  0.886E-05   11.51      19.0  T
   3  -3772.0743585  0.522959E-10  0.232E-05   11.51      72.4  T
     SCC iter.                  ...        3 min, 43.661 sec
     gradient                   ...        4 min, 18.138 sec
 * total energy  : -3716.2474255 Eh     change    :  -0.5958775E-05 Eh
   gradient norm :     0.0043384 Eh/a0  converged?    E=F G=F D=F
   time step     :     0.1830125 fs     power     :   0.3971241E-09
   step length   :     0.0012923 a0     speed     :   0.1708009E-03

........................................................................
.............................. CYCLE   16 ..............................
........................................................................

 iter      E             dE          RMSdq      gap      omega  full diag
   1  -3772.0722332 -0.377207E+04  0.181E-04   11.51       0.0  T
   2  -3772.0722332 -0.915543E-08  0.108E-04   11.51      15.6  T
   3  -3772.0722332 -0.272848E-10  0.274E-05   11.51      61.3  T
     SCC iter.                  ...        3 min, 41.694 sec
     gradient                   ...        4 min, 19.824 sec
 * total energy  : -3716.2474315 Eh     change    :  -0.6056593E-05 Eh
   gradient norm :     0.0035963 Eh/a0  converged?    E=F G=F D=F
   time step     :     0.2013138 fs     power     :   0.3520233E-09
   step length   :     0.0015807 a0     speed     :   0.1899235E-03

........................................................................
.............................. CYCLE   17 ..............................
........................................................................

 iter      E             dE          RMSdq      gap      omega  full diag
   1  -3772.0698037 -0.377207E+04  0.213E-04   11.51       0.0  T
   2  -3772.0698037 -0.118553E-07  0.127E-04   11.51      13.2  T
   3  -3772.0698037 -0.813998E-10  0.309E-05   11.51      54.5  T
     SCC iter.                  ...        3 min, 42.581 sec
     gradient                   ...        4 min, 18.832 sec
 * total energy  : -3716.2474371 Eh     change    :  -0.5552483E-05 Eh
   gradient norm :     0.0029388 Eh/a0  converged?    E=F G=F D=F
   time step     :     0.2214451 fs     power     :   0.2772420E-09
   step length   :     0.0018873 a0     speed     :   0.2061490E-03

........................................................................
.............................. CYCLE   18 ..............................
........................................................................

 iter      E             dE          RMSdq      gap      omega  full diag
   1  -3772.0671974 -0.377207E+04  0.242E-04   11.51       0.0  T
   2  -3772.0671974 -0.137825E-07  0.144E-04   11.51      11.7  T
   3  -3772.0671974 -0.632099E-10  0.324E-05   11.51      52.0  T
     SCC iter.                  ...        3 min, 41.339 sec
     gradient                   ...        4 min, 18.522 sec
 * total energy  : -3716.2474416 Eh     change    :  -0.4552057E-05 Eh
   gradient norm :     0.0026199 Eh/a0  converged?    E=T G=F D=F
   time step     :     0.2435896 fs     power     :   0.1865914E-09
   step length   :     0.0021882 a0     speed     :   0.2172966E-03

........................................................................
.............................. CYCLE   19 ..............................
........................................................................

 iter      E             dE          RMSdq      gap      omega  full diag
   1  -3772.0646790 -0.377206E+04  0.261E-04   11.51       0.0  T
   2  -3772.0646790 -0.131117E-07  0.156E-04   11.51      10.8  T
   3  -3772.0646790 -0.113687E-09  0.302E-05   11.51      55.8  T
     SCC iter.                  ...        3 min, 42.356 sec
     gradient                   ...        4 min, 18.761 sec
 * total energy  : -3716.2474450 Eh     change    :  -0.3331579E-05 Eh
   gradient norm :     0.0028527 Eh/a0  converged?    E=T G=F D=F
   time step     :     0.2679486 fs     power     :   0.1091646E-09
   step length   :     0.0024413 a0     speed     :   0.2203903E-03

........................................................................
.............................. CYCLE   20 ..............................
........................................................................

 iter      E             dE          RMSdq      gap      omega  full diag
   1  -3772.0625882 -0.377206E+04  0.268E-04   11.51       0.0  T
   2  -3772.0625882 -0.996124E-08  0.159E-04   11.51      10.6  T
   3  -3772.0625882 -0.264208E-09  0.242E-05   11.51      69.4  T
     SCC iter.                  ...        3 min, 43.038 sec
     gradient                   ...        4 min, 18.820 sec
 * total energy  : -3716.2474476 Eh     change    :  -0.2609594E-05 Eh
   gradient norm :     0.0032576 Eh/a0  converged?    E=T G=F D=F
   time step     :     0.2947435 fs     power     :   0.7401695E-10
   step length   :     0.0026256 a0     speed     :   0.2154726E-03
 * RMSD in coord.:     0.0006558 a0     energy gain  -0.3529692E-03 Eh

........................................................................
.............................. CYCLE   21 ..............................
........................................................................

 iter      E             dE          RMSdq      gap      omega  full diag
   1  -3772.0615130 -0.377206E+04  0.205E-04   11.51       0.0  T
   2  -3772.0615130 -0.360615E-08  0.122E-04   11.51      13.8  T
   3  -3772.0615130 -0.224190E-09  0.133E-05   11.51     126.0  T
     SCC iter.                  ...        3 min, 50.108 sec
     gradient                   ...        4 min, 19.610 sec
 * total energy  : -3716.2474498 Eh     change    :  -0.2192310E-05 Eh
   gradient norm :     0.0035470 Eh/a0  converged?    E=T G=F D=F
   time step     :     0.2500000 fs     power     :   0.9488654E-10
   step length   :     0.0021229 a0     speed     :   0.2054064E-03

........................................................................
.............................. CYCLE   22 ..............................
........................................................................

 iter      E             dE          RMSdq      gap      omega  full diag
   1  -3772.0611359 -0.377206E+04  0.189E-04   11.51       0.0  T
   2  -3772.0611359 -0.213959E-08  0.111E-04   11.51      15.1  T
   3  -3772.0611359 -0.768523E-10  0.108E-05   11.51     155.0  T
     SCC iter.                  ...        3 min, 41.254 sec
     gradient                   ...        4 min, 19.342 sec
 * total energy  : -3716.2474526 Eh     change    :  -0.2839104E-05 Eh
   gradient norm :     0.0036226 Eh/a0  converged?    E=T G=F D=F
   time step     :     0.2500000 fs     power     :   0.1373384E-09
   step length   :     0.0020514 a0     speed     :   0.1984845E-03

........................................................................
.............................. CYCLE   23 ..............................
........................................................................

 iter      E             dE          RMSdq      gap      omega  full diag
   1  -3772.0614137 -0.377206E+04  0.182E-04   11.51       0.0  T
   2  -3772.0614137 -0.230602E-08  0.106E-04   11.51      15.9  T
   3  -3772.0614137 -0.677574E-10  0.133E-05   11.51     126.4  T
     SCC iter.                  ...        3 min, 47.772 sec
     gradient                   ...        4 min, 17.341 sec
 * total energy  : -3716.2474562 Eh     change    :  -0.3615099E-05 Eh
   gradient norm :     0.0034680 Eh/a0  converged?    E=T G=F D=F
   time step     :     0.2500000 fs     power     :   0.1800590E-09
   step length   :     0.0020297 a0     speed     :   0.1963824E-03

........................................................................
.............................. CYCLE   24 ..............................
........................................................................

 iter      E             dE          RMSdq      gap      omega  full diag
   1  -3772.0622784 -0.377206E+04  0.183E-04   11.51       0.0  T
   2  -3772.0622784 -0.381351E-08  0.106E-04   11.51      15.9  T
   3  -3772.0622784 -0.363798E-10  0.184E-05   11.51      91.6  T
     SCC iter.                  ...        3 min, 41.920 sec
     gradient                   ...        4 min, 28.863 sec
 * total energy  : -3716.2474604 Eh     change    :  -0.4162364E-05 Eh
   gradient norm :     0.0031083 Eh/a0  converged?    E=T G=F D=F
   time step     :     0.2500000 fs     power     :   0.2067323E-09
   step length   :     0.0020535 a0     speed     :   0.1986918E-03

........................................................................
.............................. CYCLE   25 ..............................
........................................................................

 iter      E             dE          RMSdq      gap      omega  full diag
   1  -3772.0636439 -0.377206E+04  0.188E-04   11.51       0.0  T
   2  -3772.0636439 -0.586488E-08  0.109E-04   11.51      15.5  T
   3  -3772.0636439  0.654836E-10  0.232E-05   11.51      72.4  T
     SCC iter.                  ...        3 min, 40.582 sec
     gradient                   ...        4 min, 19.399 sec
 * total energy  : -3716.2474647 Eh     change    :  -0.4312716E-05 Eh
   gradient norm :     0.0025996 Eh/a0  converged?    E=T G=F D=F
   time step     :     0.2500000 fs     power     :   0.2082474E-09
   step length   :     0.0021071 a0     speed     :   0.2038755E-03

........................................................................
.............................. CYCLE   26 ..............................
........................................................................

 iter      E             dE          RMSdq      gap      omega  full diag
   1  -3772.0656065 -0.377207E+04  0.215E-04   11.51       0.0  T
   2  -3772.0656065 -0.967293E-08  0.124E-04   11.51      13.6  T
   3  -3772.0656065 -0.222826E-10  0.300E-05   11.51      56.1  T
     SCC iter.                  ...        3 min, 41.701 sec
     gradient                   ...        4 min, 19.112 sec
 * total energy  : -3716.2474690 Eh     change    :  -0.4330358E-05 Eh
   gradient norm :     0.0019878 Eh/a0  converged?    E=T G=F D=F
   time step     :     0.2750000 fs     power     :   0.1791387E-09
   step length   :     0.0024017 a0     speed     :   0.2112530E-03

........................................................................
.............................. CYCLE   27 ..............................
........................................................................

 iter      E             dE          RMSdq      gap      omega  full diag
   1  -3772.0680978 -0.377207E+04  0.241E-04   11.51       0.0  T
   2  -3772.0680978 -0.135719E-07  0.138E-04   11.51      12.1  T
   3  -3772.0680978 -0.827640E-10  0.351E-05   11.51      47.9  T
     SCC iter.                  ...        3 min, 40.990 sec
     gradient                   ...        4 min, 20.430 sec
 * total energy  : -3716.2474727 Eh     change    :  -0.3654784E-05 Eh
   gradient norm :     0.0015577 Eh/a0  converged?    E=T G=F D=F
   time step     :     0.3025000 fs     power     :   0.1228224E-09
   step length   :     0.0027299 a0     speed     :   0.2182909E-03

........................................................................
.............................. CYCLE   28 ..............................
........................................................................

 iter      E             dE          RMSdq      gap      omega  full diag
   1  -3772.0708262 -0.377207E+04  0.251E-04   11.51       0.0  T
   2  -3772.0708262 -0.140117E-07  0.144E-04   11.51      11.7  T
   3  -3772.0708262 -0.668479E-10  0.352E-05   11.51      47.8  T
     SCC iter.                  ...        3 min, 42.291 sec
     gradient                   ...        4 min, 20.718 sec
 * total energy  : -3716.2474753 Eh     change    :  -0.2566370E-05 Eh
   gradient norm :     0.0017283 Eh/a0  converged?    E=T G=F D=F
   time step     :     0.3327500 fs     power     :   0.6489238E-10
   step length   :     0.0030283 a0     speed     :   0.2201416E-03

........................................................................
.............................. CYCLE   29 ..............................
........................................................................

 iter      E             dE          RMSdq      gap      omega  full diag
   1  -3772.0732719 -0.377207E+04  0.235E-04   11.51       0.0  T
   2  -3772.0732719 -0.946375E-08  0.136E-04   11.51      12.4  T
   3  -3772.0732719 -0.125510E-09  0.278E-05   11.51      60.5  T
     SCC iter.                  ...        3 min, 39.514 sec
     gradient                   ...        4 min, 18.866 sec
 * total energy  : -3716.2474771 Eh     change    :  -0.1838732E-05 Eh
   gradient norm :     0.0022183 Eh/a0  converged?    E=T G=F D=F
   time step     :     0.3660250 fs     power     :   0.4217618E-10
   step length   :     0.0032172 a0     speed     :   0.2126091E-03

........................................................................
.............................. CYCLE   30 ..............................
........................................................................

 iter      E             dE          RMSdq      gap      omega  full diag
   1  -3772.0750160 -0.377208E+04  0.208E-04   11.51       0.0  T
   2  -3772.0750160 -0.381078E-08  0.120E-04   11.51      14.0  T
   3  -3772.0750160 -0.445652E-10  0.160E-05   11.51     105.1  T
     SCC iter.                  ...        3 min, 49.746 sec
     gradient                   ...        4 min, 19.780 sec
 * total energy  : -3716.2474794 Eh     change    :  -0.2283230E-05 Eh
   gradient norm :     0.0025316 Eh/a0  converged?    E=T G=F D=F
   time step     :     0.4026275 fs     power     :   0.6196294E-10
   step length   :     0.0033761 a0     speed     :   0.2028277E-03

........................................................................
.............................. CYCLE   31 ..............................
........................................................................

 iter      E             dE          RMSdq      gap      omega  full diag
   1  -3772.0757681 -0.377208E+04  0.190E-04   11.51       0.0  T
   2  -3772.0757681 -0.114642E-08  0.112E-04   11.51      15.1  T
   3  -3772.0757681 -0.418368E-10  0.844E-06   11.51     199.2  T
     SCC iter.                  ...        3 min, 40.215 sec
     gradient                   ...        4 min, 18.828 sec
 * total energy  : -3716.2474830 Eh     change    :  -0.3654007E-05 Eh
   gradient norm :     0.0024504 Eh/a0  converged?    E=T G=F D=F
   time step     :     0.4428903 fs     power     :   0.1009686E-09
   step length   :     0.0036296 a0     speed     :   0.1982345E-03

........................................................................
.............................. CYCLE   32 ..............................
........................................................................

 iter      E             dE          RMSdq      gap      omega  full diag
   1  -3772.0753873 -0.377208E+04  0.199E-04   11.51       0.0  T
   2  -3772.0753873 -0.484124E-08  0.120E-04   11.51      14.0  T
   3  -3772.0753873  0.522959E-10  0.180E-05   11.51      93.7  T
     SCC iter.                  ...        3 min, 50.955 sec
     gradient                   ...        4 min, 19.960 sec
 * total energy  : -3716.2474881 Eh     change    :  -0.5061979E-05 Eh
   gradient norm :     0.0019750 Eh/a0  converged?    E=F G=F D=F
   time step     :     0.4871793 fs     power     :   0.1223441E-09
   step length   :     0.0040563 a0     speed     :   0.2013993E-03

........................................................................
.............................. CYCLE   33 ..............................
........................................................................

 iter      E             dE          RMSdq      gap      omega  full diag
   1  -3772.0740262 -0.377207E+04  0.225E-04   11.51       0.0  T
   2  -3772.0740262 -0.137552E-07  0.138E-04   11.51      12.2  T
   3  -3772.0740262  0.668479E-10  0.334E-05   11.51      50.3  T
     SCC iter.                  ...        3 min, 47.256 sec
     gradient                   ...        4 min, 20.307 sec
 * total energy  : -3716.2474934 Eh     change    :  -0.5261702E-05 Eh
   gradient norm :     0.0015023 Eh/a0  converged?    E=F G=F D=F
   time step     :     0.5358972 fs     power     :   0.1025302E-09
   step length   :     0.0046442 a0     speed     :   0.2096248E-03

........................................................................
.............................. CYCLE   34 ..............................
........................................................................

 iter      E             dE          RMSdq      gap      omega  full diag
   1  -3772.0724706 -0.377207E+04  0.230E-04   11.51       0.0  T
   2  -3772.0724706 -0.171713E-07  0.141E-04   11.51      11.9  T
   3  -3772.0724706 -0.572982E-10  0.372E-05   11.51      45.3  T
     SCC iter.                  ...        3 min, 43.637 sec
     gradient                   ...        4 min, 18.485 sec
 * total energy  : -3716.2474977 Eh     change    :  -0.4341309E-05 Eh
   gradient norm :     0.0017317 Eh/a0  converged?    E=T G=F D=F
   time step     :     0.5894869 fs     power     :   0.6844926E-10
   step length   :     0.0052646 a0     speed     :   0.2160246E-03

........................................................................
.............................. CYCLE   35 ..............................
........................................................................

 iter      E             dE          RMSdq      gap      omega  full diag
   1  -3772.0720127 -0.377207E+04  0.212E-04   11.51       0.0  T
   2  -3772.0720127 -0.796035E-08  0.130E-04   11.51      13.0  T
   3  -3772.0720127 -0.545697E-10  0.209E-05   11.51      80.3  T
     SCC iter.                  ...        3 min, 42.155 sec
     gradient                   ...        4 min, 18.425 sec
 * total energy  : -3716.2475021 Eh     change    :  -0.4410063E-05 Eh
   gradient norm :     0.0020633 Eh/a0  converged?    E=T G=F D=F
   time step     :     0.6484356 fs     power     :   0.7399485E-10
   step length   :     0.0057802 a0     speed     :   0.2156193E-03

........................................................................
.............................. CYCLE   36 ..............................
........................................................................

 iter      E             dE          RMSdq      gap      omega  full diag
   1  -3772.0734981 -0.377207E+04  0.255E-04   11.51       0.0  T
   2  -3772.0734981 -0.316822E-08  0.150E-04   11.51      11.2  T
   3  -3772.0734981 -0.175987E-09  0.153E-05   11.51     110.1  T
     SCC iter.                  ...        3 min, 58.070 sec
     gradient                   ...        4 min, 18.793 sec
 * total energy  : -3716.2475083 Eh     change    :  -0.6165918E-05 Eh
   gradient norm :     0.0018076 Eh/a0  converged?    E=F G=F D=F
   time step     :     0.7132792 fs     power     :   0.1017009E-09
   step length   :     0.0064299 a0     speed     :   0.2180526E-03

........................................................................
.............................. CYCLE   37 ..............................
........................................................................

 iter      E             dE          RMSdq      gap      omega  full diag
   1  -3772.0769050 -0.377208E+04  0.340E-04   11.52       0.0  T
   2  -3772.0769050 -0.144050E-07  0.197E-04   11.52       8.5  T
   3  -3772.0769050  0.604814E-10  0.351E-05   11.52      47.8  T
     SCC iter.                  ...        3 min, 51.005 sec
     gradient                   ...        4 min, 17.969 sec
 * total energy  : -3716.2475152 Eh     change    :  -0.6962808E-05 Eh
   gradient norm :     0.0013694 Eh/a0  converged?    E=F G=F D=F
   time step     :     0.7846071 fs     power     :   0.9160277E-10
   step length   :     0.0073781 a0     speed     :   0.2274613E-03

........................................................................
.............................. CYCLE   38 ..............................
........................................................................

 iter      E             dE          RMSdq      gap      omega  full diag
   1  -3772.0804343 -0.377208E+04  0.336E-04   11.52       0.0  T
   2  -3772.0804344 -0.176296E-07  0.195E-04   11.52       8.6  T
   3  -3772.0804344 -0.317868E-09  0.368E-05   11.52      45.7  T
     SCC iter.                  ...        3 min, 41.511 sec
     gradient                   ...        4 min, 18.365 sec
 * total energy  : -3716.2475213 Eh     change    :  -0.6114639E-05 Eh
   gradient norm :     0.0017184 Eh/a0  converged?    E=F G=F D=F
   time step     :     0.8630678 fs     power     :   0.6844905E-10
   step length   :     0.0084146 a0     speed     :   0.2358335E-03

........................................................................
.............................. CYCLE   39 ..............................
........................................................................

 iter      E             dE          RMSdq      gap      omega  full diag
   1  -3772.0814270 -0.377208E+04  0.267E-04   11.52       0.0  T
   2  -3772.0814270 -0.753380E-08  0.157E-04   11.52      10.7  T
   3  -3772.0814270 -0.349246E-09  0.267E-05   11.52      63.1  T
     SCC iter.                  ...        3 min, 42.360 sec
     gradient                   ...        4 min, 18.716 sec
 * total energy  : -3716.2475287 Eh     change    :  -0.7377555E-05 Eh
   gradient norm :     0.0016586 Eh/a0  converged?    E=F G=F D=F
   time step     :     0.9493746 fs     power     :   0.8880935E-10
   step length   :     0.0093915 a0     speed     :   0.2392829E-03

........................................................................
.............................. CYCLE   40 ..............................
........................................................................

 iter      E             dE          RMSdq      gap      omega  full diag
   1  -3772.0792736 -0.377208E+04  0.336E-04   11.52       0.0  T
   2  -3772.0792736 -0.235209E-07  0.200E-04   11.52       8.4  T
   3  -3772.0792736  0.991349E-10  0.492E-05   11.52      34.2  T
     SCC iter.                  ...        3 min, 39.961 sec
     gradient                   ...        4 min, 19.471 sec
 * total energy  : -3716.2475372 Eh     change    :  -0.8504810E-05 Eh
   gradient norm :     0.0013554 Eh/a0  converged?    E=F G=F D=F
   time step     :     1.0443120 fs     power     :   0.8120772E-10
   step length   :     0.0107549 a0     speed     :   0.2491109E-03

........................................................................
.............................. CYCLE   41 ..............................
........................................................................

 iter      E             dE          RMSdq      gap      omega  full diag
   1  -3772.0774481 -0.377208E+04  0.355E-04   11.52       0.0  T
   2  -3772.0774481 -0.136301E-07  0.211E-04   11.52       8.0  T
   3  -3772.0774481 -0.477485E-10  0.306E-05   11.52      54.9  T
     SCC iter.                  ...        3 min, 44.723 sec
     gradient                   ...        4 min, 17.650 sec
 * total energy  : -3716.2475455 Eh     change    :  -0.8293168E-05 Eh
   gradient norm :     0.0016289 Eh/a0  converged?    E=F G=F D=F
   time step     :     1.1487432 fs     power     :   0.7521143E-10
   step length   :     0.0122363 a0     speed     :   0.2576570E-03

........................................................................
.............................. CYCLE   42 ..............................
........................................................................

 iter      E             dE          RMSdq      gap      omega  full diag
   1  -3772.0795618 -0.377208E+04  0.402E-04   11.52       0.0  T
   2  -3772.0795618 -0.201098E-07  0.233E-04   11.52       7.2  T
   3  -3772.0795618 -0.627551E-10  0.458E-05   11.52      36.7  T
     SCC iter.                  ...        3 min, 45.573 sec
     gradient                   ...        4 min, 16.921 sec
 * total energy  : -3716.2475554 Eh     change    :  -0.9919727E-05 Eh
   gradient norm :     0.0012727 Eh/a0  converged?    E=F G=F D=F
   time step     :     1.2500000 fs     power     :   0.8102052E-10
   step length   :     0.0137399 a0     speed     :   0.2658819E-03
 * RMSD in coord.:     0.0017229 a0     energy gain  -0.1078628E-03 Eh

........................................................................
.............................. CYCLE   43 ..............................
........................................................................

 iter      E             dE          RMSdq      gap      omega  full diag
   1  -3772.0800334 -0.377208E+04  0.679E-05   11.52       0.0  T
   2  -3772.0800334 -0.556156E-09  0.400E-05   11.52      42.1  T
   3  -3772.0800334 -0.909495E-11  0.637E-06   11.52     263.9  T
     SCC iter.                  ...        3 min, 44.006 sec
     gradient                   ...        4 min, 18.558 sec
 * total energy  : -3716.2475572 Eh     change    :  -0.1765146E-05 Eh
   gradient norm :     0.0012693 Eh/a0  converged?    E=T G=F D=F
   time step     :     0.2500000 fs     power     :   0.8993747E-10
   step length   :     0.0026444 a0     speed     :   0.2558617E-03

........................................................................
.............................. CYCLE   44 ..............................
........................................................................

 iter      E             dE          RMSdq      gap      omega  full diag
   1  -3772.0804654 -0.377208E+04  0.647E-05   11.52       0.0  T
   2  -3772.0804654 -0.652562E-09  0.379E-05   11.52      44.4  T
   3  -3772.0804654 -0.227374E-11  0.784E-06   11.52     214.6  T
     SCC iter.                  ...        3 min, 43.032 sec
     gradient                   ...        4 min, 17.997 sec
 * total energy  : -3716.2475591 Eh     change    :  -0.1901744E-05 Eh
   gradient norm :     0.0011888 Eh/a0  converged?    E=T G=F D=F
   time step     :     0.2500000 fs     power     :   0.9691013E-10
   step length   :     0.0025677 a0     speed     :   0.2484414E-03

........................................................................
.............................. CYCLE   45 ..............................
........................................................................

 iter      E             dE          RMSdq      gap      omega  full diag
   1  -3772.0807932 -0.377208E+04  0.722E-05   11.52       0.0  T
   2  -3772.0807932 -0.671662E-09  0.424E-05   11.52      39.7  T
   3  -3772.0807932 -0.140972E-10  0.781E-06   11.52     215.3  T
     SCC iter.                  ...        3 min, 50.673 sec
     gradient                   ...        4 min, 26.757 sec
 * total energy  : -3716.2475610 Eh     change    :  -0.1935978E-05 Eh
   gradient norm :     0.0010683 Eh/a0  converged?    E=T G=F D=F
   time step     :     0.2500000 fs     power     :   0.9870151E-10
   step length   :     0.0025198 a0     speed     :   0.2438061E-03

........................................................................
.............................. CYCLE   46 ..............................
........................................................................

 iter      E             dE          RMSdq      gap      omega  full diag
   1  -3772.0809787 -0.377208E+04  0.813E-05   11.52       0.0  T
   2  -3772.0809787 -0.738510E-09  0.477E-05   11.52      35.2  T
   3  -3772.0809787  0.136424E-11  0.775E-06   11.52     217.0  T
     SCC iter.                  ...        3 min, 42.457 sec
     gradient                   ...        4 min, 17.818 sec
 * total energy  : -3716.2475629 Eh     change    :  -0.1894513E-05 Eh
   gradient norm :     0.0009718 Eh/a0  converged?    E=T G=T D=F
   time step     :     0.2500000 fs     power     :   0.9554492E-10
   step length   :     0.0024955 a0     speed     :   0.2414572E-03

   *** GEOMETRY OPTIMIZATION CONVERGED AFTER 46 CYCLES ***

------------------------------------------------------------------------
 total energy gain   :        -0.0004683 Eh       -0.2939 kcal/mol
 total RMSD          :         0.0021779 a0        0.0012 Å
 total power (kW/mol):        -0.0267304 (step)   -0.0001 (real)
------------------------------------------------------------------------

 FIRE (total)                  0 d,  6 h, 28 min, 31.957 sec
 setup                          ...        0 min,  0.135 sec (  0.001%)
 velocities                     ...        0 min,  0.003 sec (  0.000%)
 propagation                    ...        0 min,  0.006 sec (  0.000%)
 singlepoint calculation        ...      388 min, 30.997 sec ( 99.996%)
 log and printout               ...        0 min,  0.745 sec (  0.003%)
 preconditioner                 ...        0 min,  0.000 sec (  0.000%)
 model hessian                  ...        0 min,  0.000 sec (  0.000%)
 hessian update                 ...        0 min,  0.000 sec (  0.000%)

================
 final structure:
================
3536
 xtb: 6.6.1 (8d0f1dd)
C           63.63081707516246       37.40272610172752       43.90513319738247
C           62.61206778091320       38.05893901679634       42.97319636853891
C           63.27355142362747       39.19880068228619       42.20246459115018
C           61.41338517731438       38.54363301581969       43.79739757663171
C           60.28947189221381       39.25749105600698       43.03196502132657
C           59.23174924963955       39.72357339084747       44.03233280901343
C           59.67539094455358       38.34718510273791       41.96350882344791
C           58.67509097976492       39.00929635762118       41.00281245061669
C           57.97709923065968       37.90485120187488       40.20831412350047
C           59.38723943572917       40.00050282224873       40.07288091436283
C           58.47842540761152       40.83705193988244       39.16046937936468
C           59.31813390113042       41.44452338497558       38.03598756340981
C           57.75763970812172       41.95114141209513       39.93146075684609
C           56.54035263798555       42.52908711163133       39.18189365707435
C           56.62088348550280       44.05500345061290       39.11146981747374
C           55.21260370187810       42.13584205460053       39.84440001271471
C           54.91172501628546       40.63446422926354       39.89497371500092
C           54.62793112293387       40.08326530746278       38.49732152121302
C           53.69957100037637       40.33269061116336       40.79142951961960
C           53.80803792477838       40.77141713426669       42.25674823247519
C           55.05880974260204       40.19836526987773       42.92214555058110
C           52.58060017959339       40.32229022228697       43.06176206156375
C           51.21639910238476       40.82799352383537       42.57502189244043
C           51.22523604932002       42.33770262883248       42.33506627837344
C           50.12791849418031       40.51615160239976       43.61420474232538
C           49.94622995676043       39.04167052988692       43.98851532988517
C           49.50716620063583       38.21586823980469       42.77977371237173
C           48.90463281041112       38.88036628571743       45.10610957822505
C           49.21250561584706       39.59013487323303       46.43281475949376
C           50.56445846638753       39.16411718088580       46.99885210979611
C           48.07582964950321       39.28854261476339       47.41921159924928
C           48.11087773341220       40.04962344402578       48.75233119994576
C           46.92695078245381       39.61443337578043       49.61609521870251
C           48.21020537926201       41.58332698930231       48.66115726465316
C           46.95432886803896       42.40625356860362       48.32770185155884
C           46.49087377754100       42.22793795222544       46.88512019866047
C           47.28848938824906       43.87708711464393       48.62932149032082
C           46.18109813891296       44.91966369605750       48.41206119679990
C           46.71013795085516       46.27294635073523       48.88797681142233
C           44.89900901708619       44.51297842057716       49.14795369860197
C           43.77793010600886       45.56100665243843       49.22095566358307
C           42.58610355246655       44.92923326598343       49.94094894506824
C           43.37952281555638       46.07063019883287       47.83004534344877
C           42.32920579664432       47.19329579019873       47.80282858738840
C           41.93824750179805       47.47311842643682       46.35188308838717
C           42.86331393448367       48.46315931374112       48.47529744924186
C           41.86962793299594       49.62602157713901       48.62649217441211
C           42.59892017779939       50.79156280434757       49.29418499009913
C           40.64425041486525       49.18503379085787       49.43727364525161
C           39.67375271515701       50.28350258590791       49.89666285564008
C           38.57610045828998       49.61906436229681       50.72940302264750
C           39.08433969044682       51.04333202518669       48.70424055091605
C           38.20104949898377       52.24967653968350       49.05372779329296
C           37.60564740034570       52.81315710613416       47.76209568178369
C           38.97198589170731       53.35012952442132       49.80754289612350
C           38.69553212211480       53.40175519475095       51.31597794664151
C           37.29837489036235       53.96337721550808       51.58052884505586
C           39.72727671950385       54.27535165200362       52.04264530881857
C           41.12524713219138       53.66204450556672       52.21202951300420
C           41.10641984874547       52.52833654710641       53.23413407947643
C           42.08537305380282       54.78068056900942       52.63875822662425
C           43.55638560856826       54.39955384909993       52.85207543678595
C           44.28725081264266       55.59620147293040       53.45847226504141
C           44.21776130647061       53.95242068864353       51.54294996257413
C           45.65013986337784       53.40346226768077       51.71484589861628
C           46.68810077234539       54.41483937015191       51.23196892199067
C           45.79193183907388       52.07172491452794       50.96560418955671
C           47.10411849222512       51.31573263164142       51.19467685917752
C           47.20250629733556       50.15460433340590       50.20521078325419
C           47.30279683269972       50.83749189815260       52.64138340445264
C           46.23660166931812       49.88344571026258       53.20945302100941
C           45.21618926745298       50.63967113798750       54.05916688842733
C           46.88338866371611       48.79720873819564       54.07984843748616
C           47.68371933922539       47.74474783706989       53.29955177475739
C           46.77945814197366       46.58585744552972       52.88500000545549
C           48.86723330014947       47.23807757141689       54.13506051911457
C           50.03388959713979       48.23544527687997       54.17665005587317
C           50.91600421163309       48.06129011019762       52.94072842043905
C           50.89016473152329       48.08619350440601       55.43980026196304
C           50.22799070832844       48.52027396373823       56.75232665021984
C           49.87598235774691       50.00530846628816       56.72759914947409
C           51.17073714178560       48.26600300226041       57.93629397373669
C           51.37380245337475       46.79958770602167       58.32986382672946
C           50.11549119078711       46.23528881990714       58.98462782726744
C           52.57582088871111       46.68501630781316       59.28089187250684
C           53.92511413175554       46.67926117176918       58.54942823957298
C           54.24698634070876       45.28753347373647       58.01043299553845
C           55.06346475333758       47.20902991581442       59.43192731946329
C           55.24917135020095       46.46081208392779       60.74904844630932
C           56.48879191806135       46.94218804492741       61.48854378539816
H           64.46979499797007       37.00567828901186       43.33772207130509
H           64.01319518300519       38.12645436384863       44.62061554429526
H           63.17716716252177       36.58320733936036       44.45830925992662
H           56.40581675240707       47.99721152000691       61.73553485068145
H           56.62570344584788       46.38580178025157       62.41189087353624
H           57.37075340897988       46.80661336957589       60.86802718160432
H           55.99465039715546       47.15167914031466       58.86176712387471
H           54.87879701602134       48.26378792515298       59.65156578003650
H           52.54146686258884       47.52478943248200       59.97828570287577
H           52.49090675016113       45.76878603154084       59.86727454389735
H           51.58251788373020       46.20703638413931       57.43463752978683
H           49.26549280312741       46.28276717553894       58.30846926559432
H           50.26729154569361       45.19480530239522       59.26012089331862
H           49.86940763455999       46.79304441199113       59.88525867472926
H           52.13932116144669       48.71060383415836       57.69666590159245
H           50.78373497678996       48.79417206571193       58.81166289758637
H           51.19925171802187       47.04170115677027       55.52036429667410
H           51.79310865896576       48.68914662621661       55.31326386989433
H           53.85240366466502       47.35590240291717       57.68965473602030
H           53.46669550689045       44.95093691456136       57.33525018993496
H           55.18771920535601       45.29836970957755       57.46528148257184
H           54.32622874448632       44.56418751917221       58.81774098690807
H           49.30562501578997       47.95211710793837       56.90194408560333
H           49.13981974586017       50.22836128393206       55.96210475284455
H           49.46475674033180       50.31237117386497       57.68614347875010
H           50.76707721495229       50.59552424294858       56.53133429801314
H           49.63356638279190       49.25139570334066       54.15160360945872
H           50.32100182120189       48.11831660097883       52.03316233083840
H           51.67674321490044       48.83794256062178       52.89542341874068
H           51.41376245098044       47.09438586317037       52.96085071347558
H           48.51196700487163       47.02652518719407       55.14484080476957
H           49.22974808737805       46.29776776243023       53.71511716154793
H           48.07693185066788       48.19686436577525       52.38509495830588
H           47.32498579218701       45.86791053075974       52.27625861230678
H           46.39684942284669       46.06640404277992       53.76127787374912
H           45.93146000009570       46.94881321005025       52.30827778222043
H           47.52803693888539       49.29078730143618       54.80827078879267
H           46.10412059843376       48.28469119083774       54.64877877411027
H           45.70687560227116       49.39403404792553       52.38775216759218
H           44.69214601864761       51.38808731524954       53.47313580274537
H           44.48092525650966       49.95222695085727       54.46836868578035
H           45.71370551623475       51.13796326131975       54.88962678978909
H           48.27667277821065       50.34441258665759       52.67496924564056
H           47.37167096773771       51.70963043939869       53.29405096313037
H           47.93407000616459       51.99503816141711       50.97175431201451
H           46.38150467065257       49.45353642278882       50.33032394208266
H           47.16943143020571       50.52950255847285       49.18558291810189
H           48.13688662770205       49.61335296416151       50.33745136854006
H           44.96559121461952       51.41485611289665       51.24013660719537
H           45.69759045942421       52.27586004405822       49.89564330904593
H           45.82537952249985       53.22237571518194       52.77857577146916
H           47.69509786631605       54.09432730030545       51.48646782821905
H           46.63086275149013       54.53252983623918       50.15156194728607
H           46.52027012681570       55.38264242403879       51.69497330349120
H           43.59598656148810       53.17718742941920       51.09403718922876
H           44.22588818391375       54.79601873684125       50.85062557418818
H           43.60867831334842       53.57481602617480       53.57051686933929
H           45.31926405863378       55.34388076393263       53.68642549661201
H           44.27830368473160       56.43418060064164       52.76415517643544
H           43.80724427229177       55.91332310391267       54.38203900005092
H           42.04844003855472       55.57157163946889       51.88577504581873
H           41.70270209827762       55.20335931892390       53.57114304255817
H           41.45310326635710       53.26046242907019       51.24934096650604
H           40.88125928997518       52.91485865966160       54.22582467275114
H           40.35528770333344       51.78553056949546       52.97942388930059
H           42.06921911075598       52.02482387543753       53.26849972446738
H           39.81755929576235       55.21669840783125       51.49417293822301
H           39.34389567855221       54.51519188407687       53.03762933855742
H           38.73801418055015       52.38908319089018       51.72268189548930
H           36.53877577796489       53.40095345082011       51.04340388003944
H           37.06354917491558       53.92141737216391       52.64214450811246
H           37.24283067580112       55.00170725921085       51.25892431991075
H           40.04054354559880       53.21374540338962       49.63687678411407
H           38.70956189415796       54.32495000282756       49.39000058425049
H           37.37045924757095       51.90372145657153       49.67406809644417
H           36.92863059723411       53.63644752070531       47.97945122861992
H           38.39472717206611       53.17923258119116       47.10792506078023
H           37.04803157436413       52.04663126726916       47.22773704087560
H           39.89744003572620       51.39991508158787       48.06896281798410
H           38.49293899176271       50.34134627173675       48.10992417653155
H           40.21380124490727       50.98354586984765       50.53758079632748
H           39.01436623606150       49.05904112007205       51.55349666898343
H           37.89152257066885       50.35169488482998       51.14776228101093
H           38.00075365083116       48.92761397305952       50.11672952333309
H           40.07449881135368       48.46613800538199       48.84482623119447
H           41.00120836279505       48.66726821495705       50.33177844841592
H           41.54883503507352       49.94458151192303       47.63101804947113
H           43.53874384136985       50.99147065691310       48.78314081560406
H           42.00182460408155       51.69927197520006       49.26647776962798
H           42.81739301252913       50.55262494826220       50.33314559143276
H           43.22247318410933       48.21281362987145       49.47538943318910
H           43.72200331997449       48.81793267712038       47.89805925024589
H           41.44027881873237       46.84728907930983       48.33435390597955
H           41.12566899746450       48.19271555628282       46.29754803056930
H           42.78763243749145       47.87169565236914       45.80122919618181
H           41.60993830642089       46.55890330557902       45.86152355722353
H           44.26730636667690       46.43573262324240       47.31127824900200
H           42.99236930316886       45.22343775621629       47.25752460267925
H           44.13542279858557       46.39770555058234       49.82604792615364
H           41.79161948688041       45.65162421757110       50.10391844398071
H           42.18328420939444       44.10450599504201       49.35627455021587
H           42.89216598859640       44.54381249537539       50.91118156816198
H           44.49204684459587       43.62078260072325       48.66828738451021
H           45.16779342330501       44.24245235401379       50.17266543079663
H           45.97222687219101       44.99226799829172       47.34049505002167
H           46.89827148351647       46.25180472549642       49.95813286124501
H           47.64410982740760       46.51203265148082       48.38370730622682
H           46.00386948792927       47.07145742079754       48.68105394433003
H           47.59957795426538       43.94320494957771       49.67546863407946
H           48.14460633017913       44.16519898007455       48.01404625085443
H           46.14912642016833       42.09529067638182       48.99738299211320
H           45.68195630038395       42.91652873787046       46.65544390270657
H           47.30551064913995       42.41500960958619       46.19039436889817
H           46.11973925026697       41.22191348605566       46.71712165842099
H           48.54999088921102       41.92113859016061       49.64451543340685
H           48.99910233111513       41.84641817082874       47.95438530344811
H           49.02026392355329       39.72804138807859       49.27502048478409
H           46.92486598134402       40.15134237062054       50.56236065448584
H           45.98387198095457       39.80220011199070       49.10907214069954
H           46.98861296494350       38.54913080105085       49.82839898600623
H           47.12502962810630       39.47598532979460       46.92034723612999
H           48.10453683829877       38.22070850941675       47.65539129881969
H           49.22996798418214       40.66668481174790       46.24821256016767
H           50.74854171576121       39.64709335328420       47.95482271107455
H           50.59201796105289       38.08715665919639       47.14693632026196
H           51.37425046975026       39.44058190760204       46.32885932522041
H           47.94339842707614       39.24646819406905       44.73528167154287
H           48.78969343301630       37.81224387562844       45.30992255663879
H           50.89635858848855       38.63857678278204       44.34595615640029
H           49.32898388953643       37.18253078695670       43.07028410222934
H           48.58654205418094       38.61549740337610       42.35920282382018
H           50.26986591936113       38.22071493572041       42.00566786620895
H           50.37155621192051       41.08119930937391       44.51575726386738
H           49.17175531024539       40.89288030310761       43.24103125256798
H           50.96222672148131       40.33337627414384       41.63391557246852
H           51.87805635170987       42.60900883769583       41.51081402309352
H           50.22190257089997       42.68541521980116       42.09518515367795
H           51.56528472166612       42.85686848711096       43.22905199920171
H           52.56841147280589       39.23067733721552       43.07235618666223
H           52.71836376077874       40.66052982976697       44.09302052749604
H           53.86345272927689       41.86119580479137       42.30878934744560
H           55.05736832708864       40.41828110940959       43.98762134664059
H           55.10078056047141       39.11888137371431       42.79692885740683
H           55.95879830095936       40.63079131250849       42.49441836172488
H           52.82477571915904       40.80899125704271       40.34448567284660
H           53.52844469170216       39.25274127598247       40.77316666110182
H           55.78053785621150       40.10930344228646       40.29607337860975
H           55.47855205551517       40.22565915313315       37.83568483732110
H           54.41280681768889       39.01747507383104       38.54511805051254
H           53.76770043139719       40.58443224982440       38.05719197632926
H           55.23168129516853       42.52856396275369       40.86186521998596
H           54.39481978572993       42.63393660114031       39.31576178790792
H           56.54348080700274       42.15253473009836       38.15521848907532
H           57.54823514509259       44.37007521004453       38.63803946617316
H           55.79062372712090       44.45897073167848       38.53523188738487
H           56.57970835114896       44.48445396785615       40.11054381115738
H           57.43561349065389       41.57575788403735       40.90282906531170
H           58.47910545245056       42.74741150837998       40.12826509849121
H           57.73155718594207       40.18082752096259       38.70761033319206
H           59.75961739546434       40.66446427512312       37.41932024427043
H           58.70948747822342       42.07838462387802       37.39546269814125
H           60.12192035175207       42.05052370771735       38.45051188862897
H           59.98374753351276       40.69291496929518       40.67029898241059
H           60.07762305054110       39.43111225324126       39.44478290596135
H           57.91778507954140       39.53679776142754       41.58749529439212
H           57.22225132749546       38.30721212501378       39.53875094124623
H           58.70106246963154       37.35049433997144       39.61419232746815
H           57.48560087542091       37.20879610989548       40.88503781398850
H           60.47349045097579       37.91757599924804       41.35611360850177
H           59.17226583445238       37.52183357767029       42.47317037156738
H           60.71239227793966       40.14437633430499       42.55359802141420
H           58.74225470877814       38.87062655348959       44.49819895050781
H           59.68380150806053       40.32806675192506       44.81545726316372
H           58.47086281954735       40.32567901924280       43.54512414629052
H           60.98309429652499       37.68464162935809       44.32057578612578
H           61.79253744943385       39.23229822921773       44.55789124972175
H           62.27674383765630       37.30049241468819       42.25816334593044
H           64.18330609071185       38.84691293544932       41.72023621522846
H           62.61256182407199       39.58482417955330       41.43054945104611
H           63.53605672858018       40.01017587030358       42.87790328497590
H           54.37259599155144       46.60740600074229       61.37989475826154
H           55.35051141889822       45.39280316199400       60.55833701757552
C           57.84717050281517       45.12240216460620       68.70864180100260
C           58.81339033742314       45.65697323872191       67.65428092202106
C           60.12107435162878       46.08384916742082       68.32116256285930
C           58.22810339395487       46.85177736170483       66.89128695321851
C           56.89396901279810       46.61130193295532       66.17658891729947
C           56.99011729619398       45.44038213522142       65.19874947081233
C           56.44827897375070       47.86443157276232       65.40444571771951
C           56.29157937969385       49.14994304526767       66.22664905979883
C           55.37839097938681       48.93976082425614       67.43338807331462
C           55.71226983330465       50.28339452967789       65.36405042528376
C           56.59305234907901       50.79321336511405       64.21722251757370
[...]
  3284   6 C     3286   6 C                                       1.5343304
  3287   6 C     3288   6 C                                       1.5282054
  3287   6 C     3289   6 C                                       1.5367604
  3289   6 C     3290   6 C                                       1.5325984
  3290   6 C     3291   6 C                                       1.5293920
  3290   6 C     3292   6 C                                       1.5387831
  3292   6 C     3293   6 C                                       1.5370241
  3293   6 C     3294   6 C                                       1.5272239
  3295   6 C     3296   6 C                                       1.5361080
  3296   6 C     3297   6 C                                       1.5271705
  3296   6 C     3298   6 C                                       1.5364559
  3298   6 C     3299   6 C                                       1.5344937
  3299   6 C     3300   6 C                                       1.5292005
  3301   6 C     3302   6 C                                       1.5381383
  3302   6 C     3303   6 C                                       1.5283783
  3302   6 C     3304   6 C                                       1.5332504
  3304   6 C     3305   6 C                                       1.5371995
  3305   6 C     3306   6 C                                       1.5284294
  3305   6 C     3307   6 C                                       1.5332287
  3307   6 C     3308   6 C                                       1.5362507
  3308   6 C     3309   6 C                                       1.5282481
  3308   6 C     3310   6 C                                       1.5399277
  3310   6 C     3311   6 C                                       1.5367959
  3311   6 C     3312   6 C                                       1.5264382
  3311   6 C     3313   6 C                                       1.5324342
  3313   6 C     3314   6 C                                       1.5366020
  3314   6 C     3315   6 C                                       1.5284815
  3314   6 C     3316   6 C                                       1.5344344
  3316   6 C     3317   6 C                                       1.5353440
  3317   6 C     3318   6 C                                       1.5270107
  3317   6 C     3319   6 C                                       1.5318669
  3319   6 C     3320   6 C                                       1.5397877
  3320   6 C     3321   6 C                                       1.5302007
  3320   6 C     3322   6 C                                       1.5346264
  3323   6 C     3324   6 C                                       1.5303660
  3323   6 C     3325   6 C                                       1.5364021
  3325   6 C     3326   6 C                                       1.5322733
  3326   6 C     3327   6 C                                       1.5290857
  3326   6 C     3328   6 C                                       1.5378576
  3328   6 C     3329   6 C                                       1.5335063
  3329   6 C     3330   6 C                                       1.5280064
  3329   6 C     3331   6 C                                       1.5367468
  3331   6 C     3332   6 C                                       1.5329108
  3332   6 C     3333   6 C                                       1.5287214
  3332   6 C     3334   6 C                                       1.5370197
  3334   6 C     3335   6 C                                       1.5334483
  3335   6 C     3336   6 C                                       1.5290437
  3335   6 C     3337   6 C                                       1.5365561
  3337   6 C     3338   6 C                                       1.5334548
  3338   6 C     3339   6 C                                       1.5278962
  3338   6 C     3340   6 C                                       1.5363995
  3340   6 C     3341   6 C                                       1.5323182
  3341   6 C     3342   6 C                                       1.5293787
  3341   6 C     3343   6 C                                       1.5350574
  3343   6 C     3344   6 C                                       1.5336450
  3344   6 C     3345   6 C                                       1.5277201
  3344   6 C     3346   6 C                                       1.5369481
  3346   6 C     3347   6 C                                       1.5357447
  3347   6 C     3348   6 C                                       1.5287281
  3347   6 C     3349   6 C                                       1.5343960
  3349   6 C     3350   6 C                                       1.5345567
  3350   6 C     3351   6 C                                       1.5274440
  3350   6 C     3352   6 C                                       1.5381232
  3352   6 C     3353   6 C                                       1.5272839
  3353   6 C     3354   6 C                                       1.5224880
  3265   6 C     3355   1 H                                       1.0881982
  3265   6 C     3356   1 H                                       1.0875403
  3265   6 C     3357   1 H                                       1.0876874
  3354   6 C     3358   1 H                                       1.0882412
  3354   6 C     3359   1 H                                       1.0879657
  3354   6 C     3360   1 H                                       1.0879338
  3352   6 C     3361   1 H                                       1.0934374
  3352   6 C     3362   1 H                                       1.0929493
  3349   6 C     3363   1 H                                       1.0929418
  3349   6 C     3364   1 H                                       1.0904362
  3347   6 C     3365   1 H                                       1.0922635
  3348   6 C     3366   1 H                                       1.0884523
  3348   6 C     3367   1 H                                       1.0873130
  3348   6 C     3368   1 H                                       1.0873782
  3346   6 C     3369   1 H                                       1.0911463
  3346   6 C     3370   1 H                                       1.0926005
  3343   6 C     3371   1 H                                       1.0916954
  3343   6 C     3372   1 H                                       1.0935838
  3350   6 C     3373   1 H                                       1.0957314
  3351   6 C     3374   1 H                                       1.0871189
  3351   6 C     3375   1 H                                       1.0864843
  3351   6 C     3376   1 H                                       1.0880689
  3344   6 C     3377   1 H                                       1.0944690
  3345   6 C     3378   1 H                                       1.0881326
  3345   6 C     3379   1 H                                       1.0866847
  3345   6 C     3380   1 H                                       1.0883793
  3341   6 C     3381   1 H                                       1.0928906
  3342   6 C     3382   1 H                                       1.0864826
  3342   6 C     3383   1 H                                       1.0871212
  3342   6 C     3384   1 H                                       1.0886590
  3340   6 C     3385   1 H                                       1.0913224
  3340   6 C     3386   1 H                                       1.0927744
  3338   6 C     3387   1 H                                       1.0918357
  3339   6 C     3388   1 H                                       1.0863576
  3339   6 C     3389   1 H                                       1.0881872
  3339   6 C     3390   1 H                                       1.0886176
  3337   6 C     3391   1 H                                       1.0915386
  3337   6 C     3392   1 H                                       1.0943333
  3335   6 C     3393   1 H                                       1.0929152
  3336   6 C     3394   1 H                                       1.0867407
  3336   6 C     3395   1 H                                       1.0882551
  3336   6 C     3396   1 H                                       1.0881278
  3334   6 C     3397   1 H                                       1.0920831
  3334   6 C     3398   1 H                                       1.0935292
  3332   6 C     3399   1 H                                       1.0925940
  3333   6 C     3400   1 H                                       1.0865866
  3333   6 C     3401   1 H                                       1.0880914
  3333   6 C     3402   1 H                                       1.0874999
  3331   6 C     3403   1 H                                       1.0920607
  3331   6 C     3404   1 H                                       1.0941499
  3329   6 C     3405   1 H                                       1.0928901
  3330   6 C     3406   1 H                                       1.0885723
  3330   6 C     3407   1 H                                       1.0854785
  3330   6 C     3408   1 H                                       1.0880512
  3328   6 C     3409   1 H                                       1.0918618
  3328   6 C     3410   1 H                                       1.0940618
  3326   6 C     3411   1 H                                       1.0921436
  3327   6 C     3412   1 H                                       1.0883577
  3327   6 C     3413   1 H                                       1.0864796
  3327   6 C     3414   1 H                                       1.0879639
  3325   6 C     3415   1 H                                       1.0920606
  3325   6 C     3416   1 H                                       1.0938143
  3323   6 C     3417   1 H                                       1.0910920
  3324   6 C     3418   1 H                                       1.0877787
  3324   6 C     3419   1 H                                       1.0882274
  3324   6 C     3420   1 H                                       1.0881233
  3322   6 C     3421   1 H                                       1.0898544
  3322   6 C     3422   1 H                                       1.0929100
  3320   6 C     3423   1 H                                       1.0935650
  3321   6 C     3424   1 H                                       1.0866884
  3321   6 C     3425   1 H                                       1.0882936
  3321   6 C     3426   1 H                                       1.0882185
  3319   6 C     3427   1 H                                       1.0915482
  3319   6 C     3428   1 H                                       1.0938354
  3317   6 C     3429   1 H                                       1.0925796
  3318   6 C     3430   1 H                                       1.0856879
  3318   6 C     3431   1 H                                       1.0875227
  3318   6 C     3432   1 H                                       1.0880252
  3316   6 C     3433   1 H                                       1.0917484
  3316   6 C     3434   1 H                                       1.0931383
  3314   6 C     3435   1 H                                       1.0937320
  3315   6 C     3436   1 H                                       1.0863723
  3315   6 C     3437   1 H                                       1.0882438
  3315   6 C     3438   1 H                                       1.0874006
  3313   6 C     3439   1 H                                       1.0943867
  3313   6 C     3440   1 H                                       1.0925377
  3311   6 C     3441   1 H                                       1.0931124
  3312   6 C     3442   1 H                                       1.0876971
  3312   6 C     3443   1 H                                       1.0875965
  3312   6 C     3444   1 H                                       1.0869734
  3310   6 C     3445   1 H                                       1.0913192
  3310   6 C     3446   1 H                                       1.0924521
  3308   6 C     3447   1 H                                       1.0938979
  3309   6 C     3448   1 H                                       1.0885985
  3309   6 C     3449   1 H                                       1.0877705
  3309   6 C     3450   1 H                                       1.0883360
  3307   6 C     3451   1 H                                       1.0919984
  3307   6 C     3452   1 H                                       1.0929623
  3305   6 C     3453   1 H                                       1.0913205
  3306   6 C     3454   1 H                                       1.0881912
  3306   6 C     3455   1 H                                       1.0862379
  3306   6 C     3456   1 H                                       1.0876283
  3304   6 C     3457   1 H                                       1.0909751
  3304   6 C     3458   1 H                                       1.0933771
  3302   6 C     3459   1 H                                       1.0954345
  3303   6 C     3460   1 H                                       1.0879772
  3303   6 C     3461   1 H                                       1.0859088
  3303   6 C     3462   1 H                                       1.0876250
  3301   6 C     3463   1 H                                       1.0921679
  3301   6 C     3464   1 H                                       1.0921501
  3299   6 C     3465   1 H                                       1.0930025
  3300   6 C     3466   1 H                                       1.0881858
  3300   6 C     3467   1 H                                       1.0870292
  3300   6 C     3468   1 H                                       1.0878185
  3298   6 C     3469   1 H                                       1.0902424
  3298   6 C     3470   1 H                                       1.0939442
  3296   6 C     3471   1 H                                       1.0969547
  3297   6 C     3472   1 H                                       1.0880786
  3297   6 C     3473   1 H                                       1.0888339
  3297   6 C     3474   1 H                                       1.0858513
  3295   6 C     3475   1 H                                       1.0925347
  3295   6 C     3476   1 H                                       1.0917535
  3293   6 C     3477   1 H                                       1.0927358
  3294   6 C     3478   1 H                                       1.0878498
  3294   6 C     3479   1 H                                       1.0885165
  3294   6 C     3480   1 H                                       1.0853617
  3292   6 C     3481   1 H                                       1.0913492
  3292   6 C     3482   1 H                                       1.0937106
  3290   6 C     3483   1 H                                       1.0927423
  3291   6 C     3484   1 H                                       1.0871393
  3291   6 C     3485   1 H                                       1.0885690
  3291   6 C     3486   1 H                                       1.0858970
  3289   6 C     3487   1 H                                       1.0915204
  3289   6 C     3488   1 H                                       1.0936696
  3287   6 C     3489   1 H                                       1.0927662
  3288   6 C     3490   1 H                                       1.0879228
  3288   6 C     3491   1 H                                       1.0881901
  3288   6 C     3492   1 H                                       1.0880438
  3286   6 C     3493   1 H                                       1.0904783
  3286   6 C     3494   1 H                                       1.0926452
  3284   6 C     3495   1 H                                       1.0945160
  3285   6 C     3496   1 H                                       1.0872308
  3285   6 C     3497   1 H                                       1.0882900
  3285   6 C     3498   1 H                                       1.0871466
  3283   6 C     3499   1 H                                       1.0935552
  3283   6 C     3500   1 H                                       1.0921119
  3281   6 C     3501   1 H                                       1.0915923
  3282   6 C     3502   1 H                                       1.0865998
  3282   6 C     3503   1 H                                       1.0874962
  3282   6 C     3504   1 H                                       1.0876946
  3280   6 C     3505   1 H                                       1.0929525
  3280   6 C     3506   1 H                                       1.0930564
  3278   6 C     3507   1 H                                       1.0932258
  3279   6 C     3508   1 H                                       1.0865636
  3279   6 C     3509   1 H                                       1.0865514
  3279   6 C     3510   1 H                                       1.0884399
  3277   6 C     3511   1 H                                       1.0890799
  3277   6 C     3512   1 H                                       1.0923239
  3275   6 C     3513   1 H                                       1.0908577
  3276   6 C     3514   1 H                                       1.0874412
  3276   6 C     3515   1 H                                       1.0879336
  3276   6 C     3516   1 H                                       1.0860895
  3274   6 C     3517   1 H                                       1.0910718
  3274   6 C     3518   1 H                                       1.0931406
  3272   6 C     3519   1 H                                       1.0907048
  3273   6 C     3520   1 H                                       1.0882749
  3273   6 C     3521   1 H                                       1.0884235
  3273   6 C     3522   1 H                                       1.0885408
  3271   6 C     3523   1 H                                       1.0906178
  3271   6 C     3524   1 H                                       1.0937562
  3269   6 C     3525   1 H                                       1.0918771
  3270   6 C     3526   1 H                                       1.0886786
  3270   6 C     3527   1 H                                       1.0866806
  3270   6 C     3528   1 H                                       1.0884522
  3268   6 C     3529   1 H                                       1.0934474
  3268   6 C     3530   1 H                                       1.0931465
  3266   6 C     3531   1 H                                       1.0943901
  3267   6 C     3532   1 H                                       1.0880142
  3267   6 C     3533   1 H                                       1.0880635
  3267   6 C     3534   1 H                                       1.0867574
  3353   6 C     3535   1 H                                       1.0896007
  3353   6 C     3536   1 H                                       1.0901221

 * 2 distinct bonds (by element types)

   Z      Z             #   av. dist./Å        max./Å        min./Å
   1 H    6 C        2366     1.0900681     1.0970882     1.0842685
   6 C    6 C        1109     1.5325200     1.5399467     1.5215899


optimized geometry written to: xtbopt.xyz


           -------------------------------------------------
          | TOTAL ENERGY            -3716.247562940683 Eh   |
          | GRADIENT NORM               0.000971753106 Eh/α |
          | HOMO-LUMO GAP              11.517182583196 eV   |
           -------------------------------------------------

------------------------------------------------------------------------
 * finished run on 2024/10/04 at 19:39:05.934     
------------------------------------------------------------------------
 total:
 * wall-time:     0 d,  6 h, 55 min, 56.758 sec
 *  cpu-time:     1 d, 12 h, 58 min, 51.648 sec
 * ratio c/w:     5.334 speedup
 SCF:
 * wall-time:     0 d,  0 h, 17 min, 30.825 sec
 *  cpu-time:     0 d,  1 h, 53 min,  3.168 sec
 * ratio c/w:     6.455 speedup
 ANC optimizer:
 * wall-time:     0 d,  6 h, 36 min, 58.450 sec
 *  cpu-time:     1 d, 11 h,  4 min,  4.532 sec
 * ratio c/w:     5.300 speedup

