3864
 energy: -5104.228724590924 gnorm: 0.000798677779 xtb: 6.6.1 (8d0f1dd)
C           51.64399877710237       45.06680719012038       53.23474496606676
C           52.67448398777356       44.93814570631440       54.15767328886473
C           53.98430333964004       45.01254239755398       53.69767484757004
C           54.25368498935214       45.21471826195450       52.35720727924492
C           53.21783192530429       45.35345793205634       51.45080718611941
C           51.90916431569273       45.27659423737992       51.89228108903404
C           52.36931069669534       44.66588943113785       55.61053957189246
C           52.79310233192872       43.23448310659902       55.95832200411198
C           53.05813557500773       45.65689383860337       56.55479777643090
C           52.52291127036914       47.09463950250822       56.45376846139769
C           51.06750875855358       47.13400263571938       56.83807178448373
C           50.08987587286049       47.35296094311563       55.87565507307161
C           48.74722636562999       47.35992892919594       56.21156554708556
C           48.36142647930853       47.15318890757302       57.52398346091785
C           49.32512774710813       46.93577246004584       58.49302443012144
C           50.66453104150499       46.92230589621746       58.15152371525636
C           53.39821983830155       47.98717493157096       57.34518588285616
C           52.87716023501482       49.41634874219548       57.56902589315628
C           52.63451274268746       50.11301610717197       56.25797789176202
C           51.34160535794322       50.46719748248086       55.89354155575726
C           51.08588410038374       51.04848158085806       54.66480246530102
C           52.12085393644556       51.28778334142456       53.77918262213982
C           53.41508560000993       50.95519067627626       54.13915374548626
C           53.66896578179337       50.37381615763339       55.36739989343001
C           53.87756917939812       50.14565082844232       58.47681352450832
C           53.52095662337985       51.59783144435705       58.83309108971595
C           52.09435051544212       51.74147103092597       59.29346798451434
C           51.22122666384801       52.55319355464783       58.58020095977226
C           49.91416104321026       52.73586851617484       58.99292352755407
C           49.45241453110482       52.10221712732752       60.13322873957883
C           50.30964913724078       51.28072465215953       60.84491950504339
C           51.61802560901684       51.10125571699935       60.43170309466537
C           54.52039238597118       52.08368839084922       59.89979801073402
C           54.16629239394837       53.42532203148247       60.55260736599649
C           54.05527325200159       54.52930538762333       59.53334209389938
C           52.87324278929336       55.24717514086912       59.40241993547781
C           52.75965031146033       56.27336369009841       58.48101344147859
C           53.83357866503300       56.59635774272738       57.67054686107858
C           55.02186472552503       55.90020169802830       57.80439388067919
C           55.13393045273840       54.87833997145738       58.72928332694524
C           55.20981126323178       53.81689347429741       61.61575916148974
C           55.15450718815148       52.96074542476264       62.88976182344814
C           56.44862459279293       53.07321322108475       63.65871968331203
C           56.84769933361765       54.27598972938848       64.23085333153709
C           57.99782682325618       54.34991076103365       64.99616738373960
C           58.77568166190290       53.22172249664654       65.19816215748730
C           58.40376741388614       52.02346111949197       64.61276027550292
C           57.25200162195734       51.95544906736455       63.84892630831286
C           53.97393962738740       53.34491285805226       63.79431635227134
C           53.92782184693920       52.43938500000025       65.03273373225777
C           53.48146584073027       51.04393494348965       64.67610912423461
C           54.30284917641114       49.95847559693232       64.95751367632370
C           53.91853150630480       48.66522631996710       64.64875812341351
C           52.70317761329435       48.43752919770984       64.02842184734165
C           51.87910291365551       49.51098675103393       63.73256634103146
C           52.25980829392230       50.80170384041578       64.05888262128259
C           53.07584492160613       53.04371059708121       66.15993951268011
C           53.35807938474220       52.34991025695508       67.50160511238224
C           52.31533983790388       52.63268399146658       68.55113249245478
C           51.81024493060506       51.59469971282682       69.32430243508546
C           50.92239688374598       51.84178499620742       70.35555102483858
C           50.51122668239162       53.13568758663561       70.62306940236812
C           50.99493824949481       54.17818338852621       69.85006960320025
C           51.89558057471288       53.92814398116759       68.82984515027913
C           54.73420020945481       52.76040080109920       68.06177397291076
C           55.32783434942328       51.74477611098344       69.05027267573499
C           56.59282174360089       52.29601445306852       69.65896163900240
C           57.70785569072738       52.57342923400524       68.87467053488159
C           58.87582514207135       53.04366891478983       69.44625183740408
C           58.95074946651749       53.24720828380831       70.81378386602911
C           57.84506771981688       52.98372281541737       71.60316685249528
C           56.67748226059667       52.51343510712076       71.02776926478117
C           55.61247842878134       50.40570092564378       68.35666184618890
C           56.42839764725569       49.42140449989194       69.20197176035899
C           55.87923219724858       49.23807341503811       70.59137323691560
C           56.73304793602576       49.27991569552955       71.68669205405202
C           56.25227926633949       49.08883807013132       72.96977319316625
C           54.90297767191808       48.86170737100552       73.17961275978483
C           54.04237904337325       48.81961040319685       72.09566231124755
C           54.52856256408604       48.99942709125639       70.81383152709400
C           56.49243331766365       48.06934447099359       68.47169541512794
C           57.59644643485201       47.15513504745518       69.01755247173014
C           57.35739574112489       45.72248612984850       68.61113670410222
C           57.28425005515870       44.71700681828931       69.56634685949567
C           57.10259582039586       43.39542960175214       69.19501928386921
C           56.99098689778045       43.05913304579489       67.85726630967152
C           57.05294546654638       44.05296347816431       66.89592734143274
C           57.23102197442152       45.37117192196253       67.27127156453570
C           58.97472305349275       47.61210511489800       68.51919183367843
C           60.11268801302823       46.90925593713150       69.27149700745915
C           60.19982130888425       47.45364951000219       70.67548996002149
C           60.49053207135687       48.79406628079394       70.90752362434064
C           60.54052509501439       49.29749251508984       72.19458784747302
C           60.30562028370249       48.46550540418560       73.27646287003151
C           60.03022951017458       47.12660164088273       73.05997515908436
C           59.97963005199217       46.62790357250997       71.76985443954260
C           61.46284792178052       47.05374647768550       68.54608952258614
C           61.83870043194550       45.85336243732313       67.65087033913397
C           62.01604880305404       44.62727401571505       68.51664021117654
C           63.21834341195211       44.44678719042936       69.19277062949506
C           63.41767751156523       43.36089356921821       70.02495107361881
C           62.40989947177830       42.42717138180270       70.19844070504455
C           61.20977465832022       42.59267335834982       69.53064895921733
C           61.01361089260317       43.68083733632689       68.69726662234629
C           60.86247980597935       45.59801244432071       66.49941266142623
C           60.87643353693733       46.67971732427340       65.40367560322071
C           59.54640417919265       46.66975634568190       64.69423292663426
C           59.07372828867759       45.51246729522327       64.08542598574090
C           57.82521952294250       45.48349249455451       63.49092871862312
C           57.02347777171687       46.61233088522621       63.50040492076496
C           57.48563120623240       47.77260402080258       64.09916798856050
C           58.73840301345817       47.79970323285325       64.68761704594101
C           62.03940765183839       46.45344757405496       64.43147045097965
C           62.20292620761297       47.58289812091770       63.40873078470105
C           62.40853249108805       48.93973721574417       64.03328505750886
C           63.29415579610743       49.15174652796679       65.08293768441476
C           63.48814228925440       50.42050315085937       65.60119247206741
C           62.81039326781647       51.50333022562161       65.06732098010892
C           61.93427541646746       51.30740766111661       64.01325910289985
C           61.73300832744737       50.03591804346584       63.50679913634375
C           63.38147173634896       47.28005936432764       62.46275928739056
C           63.00639621735035       46.31098891803046       61.32906621696488
C           64.26302093364023       45.73026464873167       60.73125091144492
C           64.58376857671925       44.39011037442756       60.90611617675752
C           65.73776973378453       43.85626827557820       60.35800211134875
C           66.59259416828263       44.66268049768614       59.62725906662990
C           66.28161208815585       45.99980200502905       59.44283975543163
C           65.12745654473906       46.52782686964241       59.98901165739559
C           62.15909233144107       47.00758813707536       60.24473766020922
C           60.64717332518875       46.73227810164280       60.33581787993155
C           59.83620519710669       47.96985212583100       60.03778754149041
C           60.12903628320453       48.78287805749664       58.94876402443104
C           59.33195453373648       49.87247301450292       58.64922010734820
C           58.22776723838835       50.16665531191079       59.43156490626443
C           57.93521136778065       49.37169771582151       60.52481363086147
C           58.73380158053790       48.28139822710968       60.82241603054322
C           60.19324517688775       45.64289852562493       59.35117969635725
C           60.74178313117731       44.23558237222721       59.64352648955671
C           60.74454940575698       43.44137073171743       58.36283135132614
C           59.59968524437268       43.32017145288716       57.58286303398344
C           59.64636538824688       42.69999892181976       56.34760607581066
C           60.84272646996202       42.19053787156303       55.87298536414801
C           61.98036150592996       42.26529903797091       56.65856046827772
C           61.92591083443338       42.87781329482986       57.89680823235157
C           59.93718453090160       43.56872961557294       60.76581208102540
C           60.60184288185182       42.29861927130196       61.32989519981007
H           51.28568042080549       44.74944116174417       55.76060229671275
H           52.92227923633957       45.31176419571554       57.58217338506203
H           54.13196158097308       45.66865186164505       56.35883625402582
H           52.61567120985192       47.43303909251006       55.41498556593042
H           53.51008737790480       47.51022226403172       58.32110077410123
H           54.39269296935013       48.03229931301816       56.89612883392586
H           51.91961403716716       49.35578372213003       58.09867129424091
H           53.95817963781531       49.56647879853330       59.39959650598574
H           54.86368005649467       50.14256077163995       58.00803084271661
H           53.63793781289205       52.21594906040159       57.93569608051943
H           55.50875452706415       52.15704963974589       59.44185437238097
H           53.19316236562436       53.31995470541449       61.04289319627070
H           56.21047209928953       53.73866479359463       61.18288500401323
H           55.05531205204472       54.86334576058476       61.89060566517418
H           55.02888978765739       51.91105160785298       62.60732324180849
H           54.08339473281295       54.38308227660124       64.11324396326813
H           53.03870686448611       53.27138391731864       63.24016506026376
H           54.95432133531827       52.36866564769165       65.40490298884527
H           53.30359438091926       54.10813828275288       66.24157895787275
H           52.01547660623942       52.95120283455643       65.92085907038840
H           53.35130123206869       51.27405405719904       67.30937405023299
H           54.60397888461312       51.57931030774781       69.85572524991456
H           54.66994977043507       49.93368717388311       68.07936900048796
H           56.17280047209984       50.59830570919849       67.43980618581311
H           57.44278081419987       49.81936562103557       69.30127381202355
H           55.52747263762704       47.56717670836471       68.57567411111201
H           56.66672577920443       48.24507578671840       67.40844305671563
H           57.58101866121496       47.21356768624369       70.11197143973951
H           59.04737501272000       47.40699053137853       67.45291185030194
H           59.07302029010106       48.68989831268593       68.65520420502537
H           59.87428420618442       45.84430958070894       69.34479501176392
H           61.46406300980071       47.96629961266058       67.94764535073115
H           62.25307768035702       47.15852191617235       69.29439902391088
H           62.82046869214312       46.08859943474755       67.22121206311452
H           61.11723717200648       44.63828485572139       66.04376440922829
H           59.85079956965930       45.50430212626458       66.89322408649669
H           61.01012636737575       47.66249834985388       65.86650435625458
H           62.96308096160484       46.34042114061657       65.00204180761550
H           61.87680361319590       45.51442696287059       63.89807577133438
H           61.28859721030236       47.64430894740110       62.81344163490604
H           63.74621624374320       48.21222079153111       62.02432500555872
H           64.20364413491163       46.85546653105062       63.04600851802660
H           62.43345751706533       45.48914965622917       61.76863839660087
H           62.33122632864191       48.08451924704806       60.31119645104249
H           62.51879635098562       46.69119774818306       59.26303750705676
H           60.39329127923744       46.40100767972085       61.34756988237805
H           59.10130165187913       45.60306156034279       59.36203653109384
H           60.50775815735512       45.94184911094705       58.34866006513496
H           50.61766494591995       45.00950761218962       53.57484317266472
H           51.09087463138015       45.38846204797039       51.19341174617350
H           53.43336861821034       45.53533082866402       50.40841494969912
H           55.27813625334596       45.26720241577166       52.01906801980213
H           54.80794783787019       44.91681648895242       54.39123673042035
H           50.38763378416759       47.52171449507189       54.84903014901306
H           47.99638710245350       47.52246400976342       55.45030210138524
H           47.31603644333271       47.16611633626040       57.79384559919951
H           49.02495206345623       46.76934280563079       59.51805572244452
H           51.40755030192233       46.75036466947732       58.91649152455337
H           50.52659544060705       50.27581958195676       56.57928358010342
H           50.07278078965984       51.31125907394738       54.39426566309199
H           51.91951397770047       51.72535832409752       52.81319086073872
H           54.23056367419662       51.13828622363557       53.45329316823098
H           54.68411387584516       50.11497105027803       55.62912591292842
H           51.57238154976552       53.05873857727483       57.69201319565905
H           49.25791822030273       53.37883012657521       58.42418162270203
H           48.43489374099671       52.24718233706621       60.46937214501430
H           49.95013916899110       50.77966646898724       61.73244360430369
H           52.27200611912620       50.46405679261384       61.00943591087322
H           54.57840975088684       51.32728058407334       60.68431072108481
H           52.02821588177113       54.99762688993945       60.02992058517066
H           51.83535029223321       56.82722320517163       58.40646061577978
H           53.74852217272080       57.38639869898236       56.93856838621861
H           55.86950839684487       56.15717344230922       57.18735845091116
H           56.07308292150191       54.35430272866515       58.82826262339564
H           56.25218558904967       55.16553027817220       64.08510568226001
H           58.28854368220621       55.29070484822583       65.44374565061695
H           59.67101216573600       53.27767659871348       65.80146919046861
H           59.01714268108758       51.14425624718326       64.75030150822411
H           56.97050774475836       51.01572131411563       63.39598406008822
H           55.25957740929130       50.13087017351387       65.42895295438954
H           54.56862340104895       47.83798540558284       64.89625146256594
H           52.39139916868522       47.43087653608912       63.78984214769653
H           50.92859562918326       49.33542981577298       63.24896290591194
H           51.60078919851974       51.62692798857389       63.83091530642798
H           52.11360146301507       50.57826610595552       69.12119431660530
H           50.55887059140890       51.01969935702491       70.95591892888943
H           49.82006728633802       53.32934944763100       71.43074337119111
H           50.67694719175153       55.19179583762195       70.05600022294917
H           52.27941497942486       54.75140411216870       68.24634974684373
H           55.44195978673399       52.90164500783848       67.24421795164210
H           54.63401209333376       53.72323147878627       68.57006346423790
H           57.67169585257929       52.41934748322378       67.80590948284501
H           59.73482385980826       53.24973031240935       68.82349744696816
H           59.86491598300179       53.61026450147870       71.26147459297947
H           57.89248047112273       53.14028259717309       72.67159394439244
H           55.82041817016162       52.30296815680621       71.65305208461179
H           57.78783868684156       49.46653962912172       71.53807745635909
H           56.93518611171753       49.11988680501062       73.80711234454533
H           54.52437376110026       48.71930169111477       74.18187678362567
H           52.98645225086961       48.64604520782395       72.24935668991347
H           53.84263633475967       48.95676413644222       69.98141019853611
H           57.37018278606838       44.97307569190873       70.61409804114138
H           57.05085887428242       42.62701055911695       69.95423711655727
H           56.84793328010382       42.02814737361835       67.56692802882880
H           56.96520144382984       43.80429811283721       65.84962017439206
H           57.27154348283186       46.13163757681090       66.50667251668226
H           60.68105250884003       49.45583327587565       70.07487138147117
H           60.75778512420213       50.34423110131570       72.35459935232828
H           60.34038528406234       48.85843352649518       74.28242038572597
H           59.85229418113068       46.46884408232921       73.89906212256916
H           59.76861233378655       45.57942933529487       71.60818743052381
H           64.01322429085566       45.16897661733385       69.06336604159171
H           64.36103456962690       43.24042356515213       70.53827586369749
H           62.56138045930280       41.57674649114004       70.84734768826496
H           60.41610898499350       41.86976709443395       69.65804089256692
H           60.06750938455024       43.77713008263100       68.18667606198407
H           59.67877246077703       44.61842129162937       64.09055617382739
H           57.47864416600303       44.57329694282237       63.02336357914946
H           56.05189619153663       46.59116285534549       63.02952832442968
H           56.87000781373102       48.65967984183620       64.10736316143579
H           59.09468488565300       48.70865869141372       65.15324185637732
H           63.84321671456351       48.32305217803642       65.50512087504178
H           64.17622054422282       50.56561152831190       66.42261540352239
H           62.96860950493023       52.49463884893360       65.46839860987369
H           61.40763031288549       52.14871657100355       63.58579618203393
H           61.04378139649835       49.89001405274685       62.68594547425437
H           63.92635516495422       43.74815096066536       61.47835323817453
H           65.96282791116560       42.80806750386220       60.50204746502664
H           67.49617679652887       44.25281661876813       59.19861571735477
H           66.93996050776558       46.63329802824705       58.86573705745262
H           64.89170962659482       47.56943659337734       59.83244259147292
H           60.98609097952651       48.56492061331989       58.32877034006517
H           59.57279635207526       50.49321707897199       57.79974116139535
H           57.60500056264681       51.01767443906848       59.19934675123244
H           57.08085444103651       49.59749677027339       61.14602077291973
H           58.49434657795913       47.65816634868948       61.67093653186360
H           62.81513401914388       42.91604789159342       58.51266830978510
H           62.91890928733361       41.85699559550373       56.31210453423971
H           60.88321047125747       41.72945320149547       54.89637111226342
H           58.74954038755031       42.62434376657593       55.75032171471896
H           58.66279680577375       43.72063524313130       57.93924852561311
H           52.47811938459508       42.97995826025198       56.96868442970421
H           52.34529133926115       42.52406095574532       55.26561815577149
H           53.87451424474773       43.13003455871534       55.90707812062120
H           61.78105809962943       44.32844608626134       59.97018037712978
H           59.82718137923514       44.29096748321911       61.57761383068499
H           58.93521441956010       43.32903889071950       60.40481359432330
C           60.19892145699546       41.05555898940825       60.52917887674153
C           60.25238142667337       42.14292522498746       62.78923202294662
C           58.94096666008264       41.91518806646588       63.19323429004448
C           58.62340743269836       41.78079769149590       64.53234913123414
C           59.61304465112932       41.87555692753617       65.49632715022378
C           60.92106671498156       42.11174704450992       65.11036667842089
C           61.23338395244421       42.24889827792728       63.76801865920181
H           58.15743848225243       41.84281729818480       62.45378592319222
H           57.59934846827326       41.60009148722833       64.82721183574797
H           59.36847250870133       41.77271308173518       66.54308006330501
H           61.69886297098709       42.18612203049121       65.85881587235727
H           62.25836387649604       42.43950070714079       63.47766947658884
C           60.92712272566219       39.78896755889271       60.99427451798199
H           59.12320026306698       40.89525474828563       60.62219685141480
H           60.42770563977579       41.23058230852780       59.47718712009474
C           62.39602102674229       39.84115977307881       60.68521790419287
C           63.33715930639611       40.03001951405079       61.68840381723895
C           64.68902322199729       40.07459542262857       61.39160543408835
C           65.11896669746774       39.92566618573053       60.08440156837962
C           64.18805559110008       39.74207221293498       59.07551158553137
C           62.83934149316570       39.70308821640752       59.37473529588798
H           63.00891769757441       40.13126898914335       62.71389055394763
H           65.40942064894355       40.21831752005788       62.18550536271202
H           66.17403620771341       39.94559449226237       59.84987040162748
H           64.51863449165977       39.61949390265929       58.05425692272271
H           62.12262592815637       39.55002208779266       58.58116766946586
H           61.68963374834239       42.40867811922362       61.25088730325766
H           60.77638676643458       39.65711393243534       62.06814614563046
H           60.48800617020444       38.92821156006636       60.48262495160790
C           63.79035018030126       60.00620631928425       46.90811754394637
C           63.41365294777937       58.92446380242330       46.12262539454548
C           63.35569884460824       57.66839206222723       46.71609836440244
C           63.67164191306954       57.49867884162341       48.05183454097158
C           64.04852805078912       58.58596621568532       48.82148175862997
C           64.10644917255101       59.84210536315378       48.24518275598061
C           63.08780533841514       59.11946281252093       44.66216457635662
C           63.99305770367352       58.25768725448795       43.77842714099310
C           61.61159516933873       58.81772195372865       44.37337055366547
C           60.65173076861263       59.79632786369499       45.08231943384174
C           59.73480553976921       60.46012214120646       44.08500958042620
C           58.88037309129063       59.70410903724154       43.28874001226524
C           58.03270126298315       60.31259986284487       42.38129940798089
C           58.02608181302578       61.69080088958292       42.25023118234066
C           58.87830696689851       62.45390556980126       43.02828026506626
C           59.72594073028660       61.84062089332421       43.93526722249678
C           59.83364612488681       59.08783106425804       46.17183911707539
C           59.02563708275834       60.08186607282615       47.01820612686367
C           59.95015724900853       60.85841846333626       47.92310169691500
C           60.61498114007338       60.25308657448632       48.98291400350520
C           61.48799134876579       60.97318629254827       49.77724551298056
C           61.72343376662269       62.31304393460246       49.51987011638639
C           61.05696925723762       62.93258506341438       48.47763296089202
C           60.17496580436929       62.21024083552834       47.69361392129949
C           57.91846345691191       59.39327818057821       47.83095349635456
C           56.75946756432241       58.81615069431760       46.99707311374153
C           55.71808790390197       58.26182830900831       47.93670767130342
C           55.52845624688104       56.89227846957279       48.05788408243610
C           54.53709928930011       56.38247337660855       48.87882216550376
C           53.72067535207837       57.23878930132749       49.59619631595638
C           53.91745506567479       58.60627787599069       49.50401815165289
C           54.91107060217522       59.11044848923859       48.68549243256086
C           56.16117002239124       59.87128587505143       46.05303460437825
C           54.78106957043292       59.49634420962582       45.49433257022673
C           54.73931112041357       58.09222060308421       44.94240127814892
C           55.60649793452232       57.67849123782472       43.93727478925239
C           55.52070401962708       56.40220013013604       43.41089019126829
C           54.57208821573143       55.51259280150854       43.88480396561087
C           53.71394192953584       55.90824002019962       44.89451138146659
C           53.79554403872920       57.18820591021942       45.41276358283999
C           54.34985385381020       60.47212545568686       44.38677972305832
C           54.27785518984691       61.95009250606403       44.80210354772515
C           53.99587575267820       62.79313267011008       43.58281395832492
C           52.76447448697607       62.74663454694049       42.93795941594904
C           52.51574725636701       63.53408611534308       41.82923128373841
C           53.49935618081303       64.37191593602086       41.33171780803734
C           54.73500823855491       64.41468449315902       41.95356609720459
C           54.97631454404108       63.63387844407240       43.07065907947309
C           53.23531770063293       62.21753126518198       45.89233103988165
C           53.43524495016423       63.59672434429521       46.54150155961202
C           54.69026360950117       63.58313696103939       47.37391568334293
C           55.81753911062942       64.28966833365536       46.97360064110988
C           56.99032180999112       64.23008474003112       47.70660311475775
C           57.05356596130580       63.46720375336907       48.86021614313375
C           55.92994357221738       62.77634832013253       49.27898334961456
C           54.76248024413965       62.83065334698865       48.53951618883125
C           52.18636057841416       63.98797088979857       47.35628297680050
C           51.32904562623968       65.01685690458751       46.60290499485198
C           51.99543864468706       66.36718931815513       46.67750927928108
C           52.58188639240162       66.93317736273696       45.55311131700518
C           53.21309848258446       68.16331758202308       45.62367299446269