3795
 energy: -5103.064790719545 gnorm: 0.000879269045 xtb: 6.6.1 (8d0f1dd)
C          113.01525439546239      135.16741484205170      116.64925435541072
C          112.29658276896740      133.85968210591838      116.89590510703060
C          114.40940489758495      134.96419111997480      116.03911939017014
C          114.34170127382917      134.28205202108265      114.67393874922011
H          114.87365723212527      135.94607469472041      115.92880596876510
H          115.03055521099317      134.38005205428297      116.71761117930707
C          115.61974198967864      134.44481502522476      113.84186912376123
H          114.12646336368142      133.22046402184623      114.81323630322221
H          113.51659246123000      134.71592694407298      114.10414367426476
C          116.80403547612123      133.66473070155234      114.38180532378915
H          115.43047765924688      134.14350724034222      112.81189550841944
H          115.90565685226225      135.49972270953810      113.84041820672809
N          117.38964541969328      132.85531903572510      113.49389428691485
O          111.38783160273653      133.59621978583891      115.97281739606386
O          112.51871667916488      133.13009227890822      117.83340585325494
H          110.87119115139117      132.76947010354374      116.17670691898152
H          113.12007731725723      135.67617591279159      117.60870861750459
H          112.40516664525624      135.77356146493463      115.97891713076042
C          118.61939937818947      132.13652487661528      113.74536103784249
H          117.00553681915964      132.79108844320331      112.54897911515297
C          118.53537527504309      130.66739972197263      113.32949228063256
H          119.43242055117905      132.62005281113011      113.18893068694189
H          118.83660127188062      132.21789747834697      114.81261340916896
C          117.45748371497544      129.91026531559777      114.10292780464454
H          118.33179580878793      130.62095157923963      112.25897136748161
H          119.51009366444826      130.20896242103450      113.50952293902613
C          117.55760530749325      128.38680903354739      113.99225744987130
H          117.54198564076937      130.16993599299673      115.16045255923265
H          116.47441532079905      130.23518457730890      113.76249068114885
C          117.58373165610928      127.83036104266553      112.56907424762892
H          118.46116868020793      128.05107653706872      114.50731006360500
H          116.69929612986525      127.96052599636893      114.51654154771620
C          116.38460719586757      128.27075864813608      111.73792835143722
H          118.50348947953226      128.12880545336719      112.06418588989276
H          117.58872056247364      126.73981503722463      112.62579750206068
N          116.32077456487879      127.49276626654544      110.51742726912467
H          115.44991786003096      128.11889990334456      112.28836691496963
H          116.47073585539297      129.33601801533251      111.50121777901991
C          115.24693038408599      127.44202866693234      109.72730673037465
H          117.18932319045646      127.07353930681508      110.20147401439957
O          117.19457213361726      133.78539227368054      115.54154358939681
C          115.35902150887657      126.45753863673495      108.57888749519137
C          115.56942125797445      125.02883536296950      109.08382437355856
H          114.45104927506935      126.52088565846144      107.97644694032735
H          116.21500350076903      126.73133861866668      107.95903235952096
C          114.45094961458821      124.54794228001393      110.00543727054848
H          115.63857328567732      124.36049956072640      108.22310176432006
H          116.52184153794873      124.98027589955849      109.61403007999638
C          114.77891859546214      123.16408319890148      110.55583499152254
H          114.33605306924836      125.25412154313754      110.82937788522626
H          113.50453395336774      124.51433212466017      109.46338924859890
C          113.74267984682099      122.59173410943518      111.51634514335127
H          114.87588098133860      122.46203769742714      109.72353120099696
H          115.73765580331009      123.19025718892625      111.07711190157880
N          114.19827083696165      121.52263799737921      112.17211591653283
C          113.42311516944004      120.81035108699625      113.16372062313943
H          115.17476151114663      121.24824185638624      112.06805785649136
O          114.23997452547617      128.12207447599766      109.91346613127345
C          114.14737444061039      119.54876397288115      113.63298799097934
H          113.24608283904246      121.47383822022972      114.02148341092966
H          112.44874374795305      120.56218495864611      112.72973100720017
C          113.59558433700906      119.11832270222263      114.99105797820036
H          114.02994582898685      118.76170304847125      112.88791357184722
H          115.21252525540609      119.77140841194772      113.72471894848901
C          114.34284838608114      117.96701359350349      115.66510748501251
H          113.63572695021108      119.99533283435925      115.63703334714357
H          112.54978878182618      118.83537390580098      114.87375728105468
C          114.16250193373780      117.94252248184648      117.18941385667294
H          114.01299357536837      117.01679522270450      115.24117818210534
H          115.41220725518825      118.06055045296496      115.46101867258977
C          112.72261075651159      117.86750338467263      117.69259953854224
N          112.00102339057946      119.10495086796578      117.48060557193362
H          112.17214913924532      117.06909708771998      117.18489860435618
H          112.73331368306145      117.62860443194353      118.76421479910236
C          110.67376681773955      119.16020721142436      117.38365577774674
H          112.52863130740148      119.95818341569816      117.33188643823894
O          112.61413287218336      123.05152592896091      111.66138995510939
C          110.13429174480136      120.45771512066999      116.82852894785088
C          110.04139320475458      120.29094767930675      115.30632737181199
H          109.14591894790804      120.65200758752511      117.23692168749933
H          110.80589703499710      121.27862992634360      117.06651177620047
C          109.21515042900316      121.36953042676988      114.61836406711913
H          111.04744020470687      120.30431483009647      114.89027811566052
H          109.58998823739303      119.32223222501497      115.08752323926267
C          109.86754317062841      122.75439573171609      114.68057451098819
H          109.09751825760019      121.09388201127949      113.56736140383849
H          108.21726424392868      121.41641237812786      115.05957211405295
C          109.01424662149890      123.66235884075503      113.81936625454775
H          109.88420924579935      123.11963691252745      115.70674025789916
H          110.88440663814035      122.69910527853425      114.29603192535839
N          109.42620391309246      123.76955846048229      112.55168962314643
C          108.61699748997667      124.40600297821651      111.53586622269336
H          110.35143998094193      123.46040283788146      112.28628447401043
H          114.69213790808449      117.07255943806753      117.58307882730732
H          114.62360795622806      118.83202996950651      117.62261973174624
O          109.94760641919578      118.20226294248214      117.65292263348172
O          107.97222748694011      124.15829319094368      114.23091878978673
C          108.96035480448855      123.89682298113776      110.14409288356481
H          107.57009532159771      124.18477060909713      111.75885072093452
H          108.72991236523792      125.49174373145709      111.57646971892686
C          110.30299774489173      124.39342643047448      109.60419156951518
H          108.96142926603017      122.80385902742434      110.15685690299485
H          108.16235803482674      124.21894703776111      109.47451548570940
C          110.36525049480889      125.91161519952279      109.39462356847275
H          111.11007160060905      124.08408573636179      110.27001776436535
H          110.46110909434267      123.90253448202165      108.63991898174189
C          111.00033106725623      126.67816465506272      110.55207923429634
H          110.95731490373362      126.12503833947505      108.50172711034533
H          109.35760188108300      126.29149378448132      109.21037124163348
C          111.10805719609957      128.16357158949808      110.21518176316644
H          110.41929456304004      126.56627885544742      111.46667004210933
H          112.00088005363691      126.28817618272713      110.74220328382339
N          111.51084351691640      128.93494385927968      111.36456043251182
H          111.84800866941308      128.30403426091451      109.42095084927823
H          110.13803755435791      128.55321115332441      109.89285583674101
C          110.79212035732465      129.93840034737133      111.86579953546796
H          112.33590410517429      128.61097658272999      111.85390355593947
C          111.38451022982395      130.60406799089120      113.08668356989659
C          111.85708452493201      132.01793419620267      112.74630541805756
H          110.61147821682435      130.66457564621260      113.85186069267962
H          112.19944643335226      129.99807061320666      113.47355584081713
C          112.93265023066022      132.04943778634637      111.66216257003254
H          111.00237025674642      132.59258814835783      112.38610262175742
H          112.22453102219031      132.49901004466255      113.65320487834825
C          114.22862721257435      131.33381670201965      112.06373149702202
H          112.54083470902749      131.59023422417485      110.75204846644453
H          113.16598550641746      133.09300394567038      111.43383818703212
C          115.24744159156748      131.57815691082297      110.97121238809339
H          114.59945470543236      131.74891198849187      113.00143879768103
H          114.05318800226635      130.26612361630802      112.18134338423033
N          115.12110906703624      130.77242239230830      109.91559790925554
C          115.91173090614687      130.90259040312421      108.71291674712148
H          114.53311039177250      129.94025686035798      109.97980428822807
O          109.74720466364482      130.32782447384113      111.34489996911184
C          115.00938987253099      130.72373871569584      107.49399728227026
H          116.36574051696603      131.89693752468767      108.72439422005115
H          116.71091084556240      130.15182165659837      108.71023550780238
C          115.66599104289340      131.12738150973610      106.17531262761594
H          114.68568634334395      129.68319656571336      107.45335120432028
H          114.12148553566517      131.34398493727184      107.63926983222404
C          116.88499281651164      130.29333656777919      105.78072897230092
H          114.91878038226952      131.05247047143146      105.38154316577601
H          115.96951955137747      132.17444478549254      106.24529406383196
C          116.55547670626176      128.83552635300288      105.46885064813910
H          117.33113938007328      130.74591070138976      104.89154744774625
H          117.63286631051270      130.33413757549218      106.57396350759802
C          117.79861185433569      128.10701670292505      104.95571374876862
H          116.19053457643814      128.32793522204349      106.36104494398123
H          115.76954553342642      128.77961762868819      104.71338629224587
N          117.52358655539059      126.72961069608232      104.61760758897742
H          118.16810954823772      128.61133255385448      104.05556412517682
H          118.58418890946979      128.13500036988322      105.71209253820480
O          116.08136254532059      132.48037460018702      111.03037625662861
C          118.00794404742520      125.65875259900467      105.24662192185222
H          116.91156025601410      126.59569059094407      103.81592535432826
C          117.58964613071961      124.33467254399415      104.64804632008394
C          116.18866180454870      123.94141349026270      105.11860770427484
H          117.60544365495551      124.40874320094782      103.56365025827645
H          118.30653540854014      123.57898240269260      104.97367143403868
C          115.85807197476404      122.49413998261366      104.76627909103163
H          116.14522921203869      124.05198829913414      106.20433428193168
H          115.45390110664806      124.62170339507765      104.68595811339802
C          115.84135041960691      122.20721433090898      103.26501782727232
H          116.59213453214153      121.83131683010129      105.22993918867027
H          114.87967894563248      122.23735703798951      105.17948052034123
C          115.71844218638829      120.71569200195212      103.02676906424125
H          115.03397216703802      122.74006399132196      102.76452605400868
H          116.78827407714267      122.51383078587926      102.81585670985000
N          114.89415084668103      120.36264017556788      102.03640037822518
O          118.74710460134904      125.69899263628750      106.22823157628952
C          114.69800721523673      118.98305082212563      101.64668803866526
H          114.36598322762737      121.07906731113434      101.55108469341883
C          113.22876938230573      118.68519500937614      101.37680579466492
H          115.29246933256019      118.76998934143067      100.75205991598243
H          115.08420150320676      118.36272130840045      102.45745397300148
C          112.34352781642693      118.78074136719931      102.61881419038949
H          112.87521926467014      119.39912627616603      100.62880432034925
H          113.13548079907525      117.68347669452901      100.95433691591536
C          112.63807920773932      117.67927706820203      103.64006575187221
H          112.46957180294893      119.76135496945766      103.08367636425596
H          111.30525348353629      118.69971893143624      102.29403200003362
C          111.46319810211287      117.43311713323854      104.58905353315490
H          112.85375731997480      116.74928204038297      103.11048910442322
H          113.52299069394144      117.94467759882320      104.22062253301159
C          110.33944271289822      116.63331662215737      103.92193415207456
H          111.80521082983923      116.86703334461873      105.45763247229735
H          111.06558936505931      118.38547231796596      104.94337062410584
N          110.74709188063349      115.27589852919786      103.64711473343509
H          109.46237745354404      116.61086534019543      104.57455224945639
H          110.05868246536487      117.08239305099148      102.96709391909116
C          110.94090901530993      114.80163319822643      102.40812512026098
H          110.93529777889991      114.69579442594903      104.46021236428146
O          116.34383969713399      119.89731285050122      103.69190003698336
C          111.33714022696348      113.33736186356211      102.35786119510972
C          110.11668783405521      112.45277150477685      102.62207894740521
H          111.73722445562876      113.11945254956528      101.36648362285092
H          112.10789707881887      113.12569666836683      103.09969149609346
C          110.49474160926964      110.97627060191148      102.58252098825669
H          109.68999836339992      112.70058435407827      103.59610810711995
H          109.35867043261727      112.65273942194207      101.86564538416025
C          109.27459370992621      110.07251776157999      102.78975738908554
H          110.95769536837595      110.74173213112749      101.62149884790827
H          111.22662253386660      110.77888923395238      103.36617048167547
C          109.71305259613770      108.62479733680442      102.78362208408589
H          108.81071792083880      110.29396663304811      103.75185461686361
H          108.54375365006453      110.24879079808041      102.00036491895052
N          109.70800302705052      108.05451611406437      101.56822401639563
C          110.09717399937270      106.68703854020097      101.32866241673975
H          109.55930235804725      108.63702541512505      100.75943055581480
O          110.78210287671058      115.47114071379855      101.39547338822392
C          109.05316978850738      105.89714854083245      100.53691347640826
H          111.05102301579078      106.66385095784865      100.79031613322390
H          110.24011419700281      106.22732955755824      102.31032769307267
C          108.79342481436272      106.45339185786801       99.12979350440695
H          109.41909590303639      104.87157229809804      100.46327124447249
H          108.11788390733535      105.87470947200356      101.09863138878210
C          107.57780612954457      107.37767983840077       99.08253293621482
H          109.67937380797888      106.98679866604964       98.78420290499086
H          108.62075379817745      105.62371568989931       98.44041618636048
C          107.25139739612757      107.88670811518196       97.67806961301206
H          106.70828875428911      106.82828538627676       99.45234941985397
H          107.72768305458897      108.22732891835069       99.74621928080539
C          108.31599451725999      108.79679237478626       97.07362886828916
H          107.10674997847850      107.03897924445336       97.00503319107763
H          106.30952451876404      108.43852497189160       97.72280723063136
N          108.58617615335288      109.93932173128680       97.91827962208529
H          109.25951464515552      108.26423923352195       96.92392626471971
H          107.97791279494112      109.13503492478699       96.08390701231468
C          109.68545307827226      110.69471212791557       97.74999971055693
H          107.86103346182600      110.23186319148242       98.56529831754472
O          110.06547372573201      108.03132101060800      103.79464483237525
C          109.79338257081953      111.86617705120386       98.70950067069904
C          109.78018751985628      113.20286002109337       97.96029983891056
H          108.97009015177738      111.82652789483309       99.42087096225636
H          110.73169989442306      111.76066080789258       99.25552612623935
C          108.53851277093599      113.32588167947961       97.07961170257785
H          109.81179884196115      114.01895812700664       98.68513549692631
H          110.66872237597818      113.26845182517187       97.33047410535580
C          108.36007575665184      114.72450918586252       96.47289789076467
H          108.60973655095060      112.58995636277994       96.27573389842421
H          107.65087650757219      113.09893799358271       97.67186582067133
C          107.65399660877149      115.63114474192665       97.45894714885394
H          109.32110551483810      115.14677558178548       96.18297465417392
H          107.72346754542686      114.64927490194523       95.58928547555122
N          108.39373568380179      116.59517738954941       97.99073714692497
O          110.52606167146386      110.44809523429876       96.89904122341892
C          107.89959993669154      117.54928121776710       98.96102575985398
H          109.34540513758968      116.73149684446800       97.66170153364882
C          109.02716101950409      118.06236785421713       99.85048378352076
H          107.40711074250579      118.37806611822602       98.43900625420893
H          107.14571940428503      117.05280100389437       99.57433579552307
C          109.97933461606470      119.03586814834982       99.15316081102279
H          108.58161765758351      118.55808711564319      100.71537711030648
H          109.60050995189117      117.20591431983453      100.21212268668100
C          109.33164021822341      120.37528624491176       98.80650252478955
H          110.81194910721284      119.20918159286853       99.83301606793542
H          110.37696640726656      118.58043370796820       98.24680248886844
C          110.31022996960131      121.38632919579749       98.20297039596608
H          108.53554985816336      120.21891363178780       98.07569534182268
H          108.87413242570034      120.79726645031549       99.70170565616030
C          111.47600932619146      121.76513067513950       99.10927518473002
H          110.72730600454483      120.97472170919104       97.28134661591102
H          109.76027803668404      122.29258221534707       97.94446144136332
N          111.02779377866636      122.28626674422966      100.38579802202212
H          112.12544590153455      120.89884609793479       99.27661451709952
H          112.08714294577399      122.53470391911677       98.62142106581403
C          111.89270712381790      122.68206375586585      101.32991863327476
H          110.05009717745779      122.19249987107162      100.63010797728381
O          106.46765142277270      115.43647491293282       97.74838000529910
C          111.21714082329493      123.21726721083294      102.57962739000870
C          112.21045540439657      123.61511176571905      103.66429467212855
H          110.60390213900290      124.07646659553771      102.29639264235098
H          110.53524411101581      122.45013104958298      102.95059416586713
C          111.50938088486417      124.06046068928890      104.94453515630678
H          112.85504577972772      122.76216038314961      103.88413668127092
H          112.84836590083061      124.41744467540319      103.29339185285768
C          112.49435658777158      124.68353615381928      105.94166577490385
H          110.72109529539686      124.78193338526910      104.72172396540790
H          111.03694785233053      123.19363652190282      105.41175709961944
C          112.85047228509973      126.11207631224757      105.56746885512545
H          112.05061977839361      124.68754846132254      106.93727738425048
H          113.41276337653058      124.09656223245894      105.96517472750729
N          111.98414916631705      127.01858854835172      106.03328334983053
C          112.14130907716869      128.45200005218987      105.88050871926160
H          111.06953196009883      126.70027635423980      106.33479929968101
O          113.10717119697766      122.63364703394650      101.17657819293250
C          110.86694207448488      129.16508402537283      106.31620053348038
H          112.98694135688521      128.77691356442446      106.49561187837942
H          112.38242392484533      128.69356791008929      104.84054805363728
C          110.92908083260637      130.66950607874639      106.06041534560950
H          110.02830407657531      128.73969693897584      105.76185516247106
H          110.70773806742299      128.97632306855041      107.37813117674273
C          109.70102379650054      131.41374889046011      106.59532313338687
H          111.82761296270660      131.08105721735851      106.52389366036643
H          111.00872377477374      130.83809385672325      104.98391060074412
C          109.75609110338976      131.65228219527299      108.10346207959168
H          109.62734156078187      132.38240748326473      106.09738512791685
H          108.79817238460227      130.85257825153573      106.34276028542740
C          108.48514177462822      132.32141170327424      108.62221663083433
H          109.89157121680161      130.71037439423756      108.63685393292269
H          110.61094393444884      132.29093399300098      108.33544821896947
N          108.60536128449563      132.60408157130880      110.03411118959941
H          108.29972418751775      133.27037309874808      108.11190359503325
H          107.62087221626138      131.66796542274645      108.44083241963888
C          108.02763144238986      133.67289393339917      110.60940197941585
H          109.05697524544067      131.88774039301870      110.59305110593809
O          113.84863425717431      126.40138299480196      104.91314680755870
C          108.27245199092872      133.79936068463675      112.11047940257951
C          107.85831617953660      132.56550977071683      112.91138253585052
H          109.33816746163031      133.99217231694672      112.25802228996818
H          107.72425017319274      134.67723002096534      112.45619821031015
C          108.26988025477043      132.67677510080225      114.37952610000808
H          106.77623644747914      132.43656665331255      112.83825470091199
H          108.33125359838012      131.67704068914838      112.49308566856421
C          107.96026672259102      131.37256603336149      115.12188665334997
H          109.33983962388710      132.88028063680687      114.43828188090076
H          107.74670453941198      133.50752216578138      114.85869985566222
C          108.60435039676075      131.29847689269306      116.48225749362095
H          106.88534431034607      131.22361471690448      115.19017754448411
H          108.37711629388573      130.54374083162958      114.54302574771424
N          107.85692782747670      130.90887717828474      117.52050038139610
O          107.39703132691741      134.50676471795526      109.98493003086620
C          106.43510362266066      130.62369984833302      117.56803678307364
H          108.35039132527827      130.85174719862246      118.40284586706458
C          105.98935923453853      130.33276795844873      118.99982456201634
H          105.88264642907956      131.49256201110177      117.19267033787321
H          106.19923132552590      129.76136598237571      116.93450957720712
C          106.48502547488366      128.97889981667223      119.50931970810723
H          106.34102352545472      131.13039804937259      119.65980325239609
H          104.90022453115705      130.34691265985671      119.01936424086367
C          105.91109727536103      128.60074112642306      120.88293216171198
H          106.21738304104841      128.21328237618087      118.78093789403704
H          107.57439700539904      129.00011325806483      119.57537027655285
C          104.70428105940975      127.66157078607939      120.82573215493672
H          106.69218046770675      128.10305656710210      121.46111496398568
H          105.63569571763233      129.50894735616569      121.42377889064896
C          103.47154675708630      128.27298573057161      120.14293119276525
H          104.98901987212702      126.74854081890751      120.29773090313286
H          104.43205855098874      127.37829854676133      121.84703155518280
N          102.26316286091027      127.47155254884797      120.21093665389597
H          103.24616111629386      129.23718974706017      120.61171682930191
H          103.68220067648802      128.44537604760376      119.08465293006451
H          102.04336256443500      127.26250319510025      121.17972198115133
H          102.38985857487386      126.58210203429958      119.73541239053451
O          109.80162121096758      131.53975176856636      116.65851678392470
C          120.25377403913895      128.90192001693418      109.43473782703147
C          119.61090869105651      127.72718070439545      108.73461419817774
C          121.46271665424619      128.41554892025030      110.24535994130746
C          122.64287679840497      128.02626287191899      109.35868299847310
H          121.77093861632699      129.20983370550604      110.92914631429834
H          121.16359375889257      127.54838858705830      110.83664532238619
C          123.75372601828757      127.41438730120466      110.20548197287906
H          122.32376106881807      127.29926700791550      108.61092131438501
H          123.02327958066984      128.90145940989524      108.82839206709110
C          124.96506990430862      127.01860333765075      109.39994377980571
H          124.07254737863913      128.11632321115880      110.98049157424325
H          123.36027813029038      126.52144660717133      110.69754296680352
N          126.00123250566830      126.53773731878520      110.10912946093023
O          120.01025819799649      127.58691204924642      107.49386790787426
O          118.80836228178356      126.98749801456803      109.26402504962192
H          119.56555563824467      126.79622297513887      107.04426353650413
H          119.52021425968978      129.35252404040278      110.10550647794174
H          120.57075387487657      129.63380873600548      108.69163545001348
C          126.07854597010295      126.40929796609886      111.54871372708138
H          126.84990386283765      126.33530746784680      109.59754143642479
C          127.41227263617935      125.79188188750277      111.95368450312210
H          125.96524011378597      127.39019823887560      112.02578061589598
H          125.25608161355905      125.76796928227982      111.88324329407818
C          127.60293328002136      125.76570920809880      113.46923579483689
H          127.48359961720000      124.77459675779068      111.56335878459439
H          128.22746972412148      126.36424638471065      111.50883958056653
C          126.62389500529699      124.83001724845090      114.17548235313099
H          128.62213877069237      125.43656026510106      113.68033949416758
H          127.48586937356487      126.77711877178871      113.86305485644726
C          126.95032252537416      124.67096832870173      115.65878036400288
H          125.60836433058498      125.21558594333176      114.07312373328227
H          126.65770749080068      123.84775476675298      113.69812497550882
C          125.89999719735103      123.82025922671723      116.37502456144220
H          127.92375831799123      124.18830045750973      115.76175660744786
H          127.00934457813925      125.65352341146372      116.13000310864767
N          126.47659125457368      123.07239861784035      117.47057880538159
H          125.07848598810583      124.45271182097342      116.73379375686024
H          125.48345303659202      123.08454212451218      115.68156649759823