3258
 energy: -3427.559538882022 gnorm: 0.000821325859 xtb: 6.6.1 (8d0f1dd)
C          108.68031528477283       91.17889914850279      104.37833465729284
C          108.65866761193548       91.93256047689594      105.70257181836888
C          108.31216777614016       91.01594844328670      106.87389516083296
C          108.44479623864835       91.69969113174351      108.23510837404621
C          107.40278384787283       92.78946080123764      108.47572731522577
C          107.55525794718382       93.41618792342803      109.86033511479245
C          106.51094380571961       94.49317644252505      110.15843857549834
C          106.62580630719660       95.70479465166569      109.23536491096483
C          105.79269215494026       96.89226446847334      109.71137702583479
C          105.64838953324917       97.94919629635839      108.61972961483318
C          104.78861074901864       99.13081525132856      109.05854909544416
C          104.54083207438534      100.11300980345084      107.91676364578136
C          103.61746882906679      101.25895041265802      108.31950895458718
C          103.33009443695482      102.20689356350712      107.15705250890956
C          102.37214271669791      103.32263421155450      107.56005724667219
C          101.96830435712212      104.25285991993569      106.41612904955899
C          103.11142490448064      105.09645368129145      105.84981683615217
C          102.58570070243525      106.27437572703725      105.03177088159207
C          103.70056042868961      107.14599795123814      104.46237971089947
C          103.16892479744061      108.38096204456741      103.73802392723830
C          104.28047585768508      109.18651325157788      103.06749274358776
C          103.72702298480252      110.41340644974201      102.34760894926566
C          104.79664283374899      111.31169671997823      101.72548122317302
C          105.43503911876023      110.71776869369900      100.47209548248121
C          106.37220301509599      111.70395644144354       99.77837011099595
C          106.96145684756868      111.12749269996691       98.49301808911511
C          107.92769402018176      112.09480208341552       97.81351042593842
C          108.60994125421684      111.46834092945549       96.59960147496851
C          109.70328007601174      112.36045396478167       96.01554057913667
C          110.53556070472106      111.63816853695809       94.95795958934872
C          111.74951881880828      112.45181446137481       94.51416645150266
C          112.58078653725440      111.70713008998288       93.47172769133559
C          113.84693215282704      112.45665522572094       93.05147643433958
C          114.94238379849818      112.43092947530953       94.11557609952176
C          116.21656205082283      113.13588453235248       93.65369100869336
C          117.30292905659452      113.08671236688947       94.72548046191442
C          118.61678856783594      113.71719973743582       94.26892067063416
C          119.70672037839415      113.68322030426154       95.34507528985228
C          119.47163487514810      114.70316438181428       96.45601830792519
C          120.55467410347434      114.68464974520560       97.53380325710030
C          120.29645528970578      115.76650590761649       98.57998634512154
C          121.30417094971156      115.77495339509819       99.72746159104108
C          120.96723910742725      116.87366660166069      100.73332677718410
C          121.90238122292152      116.91391580999120      101.93939121412242
C          121.46396203517018      117.98664637510139      102.93421644367906
C          122.33440987716209      118.04566435377953      104.18676936206090
C          121.78802413586709      119.05225891514590      105.19661218017580
C          122.60973851555943      119.11505076850173      106.48152031436823
C          121.96878195581202      120.03745643150025      107.51553798656731
C          122.75727121163710      120.09460083577380      108.82118698222118
C          122.06944689739038      120.97113031852231      109.86500008450369
C          122.84476481258491      121.02180694193679      111.17868458349837
C          122.16044961850615      121.90121858633697      112.22250910153892
C          122.94134945509367      121.93775850988546      113.53346150225117
C          122.29365471913682      122.83999107686991      114.58123240742972
C          123.07318042091511      122.82029405467080      115.89345280278090
C          122.45876822584781      123.71906502721261      116.96405624437644
C          123.21629908076147      123.60381199924188      118.28608027684894
C          122.83351841251834      124.66729974095628      119.31564233921573
C          121.38309518822302      124.57139302705168      119.78192785536612
C          121.10272070228035      125.51827552046012      120.94769423358257
C          119.65379751320370      125.45869440125462      121.43569026263501
C          118.67133792181899      126.19591285727577      120.52669300979177
C          117.22835174914988      125.97567257432330      120.97575154296065
C          116.20104290230904      126.74631708343406      120.14618850839652
C          116.08244578207231      126.24957061286996      118.70640850675181
C          114.91182699194786      126.91218533810830      117.98356323182092
C          114.71419052488659      126.41300742882569      116.55209012889868
C          115.84058223415205      126.82110977732160      115.60511264229432
C          115.48802415478853      126.60470639512963      114.13290715266197
C          115.42496164823307      125.13313643299171      113.73073209489019
C          115.08707257860503      124.97068479738613      112.25037656533048
C          115.22236619981886      123.52650676284762      111.77662888434222
C          114.81459089791015      123.36334951391039      110.31446465993379
C          115.12537361031164      121.96841550766079      109.77954806763319
C          114.62139761350063      121.77191977322298      108.35227003258186
C          115.05639851440908      120.43127818972684      107.76711040184131
C          114.47936644306345      120.19611807380169      106.37412215859143
C          115.01631693458778      118.91748691098266      105.73709986778114
C          114.38412429971375      118.63868700478557      104.37661942874537
C          115.01828594820627      117.43453677897851      103.68734396824864
C          114.31032584856668      117.06557155730994      102.38659264262621
C          114.97255839118174      115.87654403556623      101.69664243109955
C          114.20405651092385      115.40721895204598      100.46486472476060
C          114.89000278546146      114.21415148262547       99.80498066941780
C          114.19382046965491      113.71857546129969       98.53779025527913
C          112.77482511986381      113.18589033863553       98.74372226867177
C          112.70652130764530      111.96866073793416       99.65979680207886
C          111.29486817405855      111.40008638097775       99.77467748007354
C          111.25958693667981      110.20148670625052      100.71662707437349
C          109.85933030392323      109.63082931662176      100.92240712855434
C          109.86842589776555      108.53086518338768      101.97972984336013
C          108.47644307870607      108.04368503978044      102.36622078650383
C          108.54825583192337      107.04734253468206      103.52025931990478
C          107.16750656338989      106.61647285320107      104.00301131237401
C          107.21317063527617      105.73006258835021      105.24809620779808
C          107.72532460172521      104.32328516987144      104.95791529871178
C          108.02057863817619      103.52766442702664      106.22704027762552
C          108.76499116433298      102.23610818306966      105.90025900913554
C          109.29586223360482      101.52675264566386      107.14084184493646
C          110.20943377621580      100.34543865843219      106.81425137206008
C          111.47560475264258      100.74834791568364      106.05780819487454
C          112.49775759890008       99.61595469549840      106.02548002256125
C          113.68965731170178       99.93400419098668      105.12456380032447
C          114.80748639777221       98.89180448374640      105.20164550313994
C          114.42255543613800       97.53255106250671      104.62041656762931
C          115.43344801803491       96.44255558480353      104.96704874037388
C          115.03337034910197       95.10370964147214      104.35134154311682
C          115.94874284053603       93.94128988763654      104.74021066616871
C          115.86650874809624       93.52622242328734      106.21051173264146
C          114.52181149793090       92.91703796635936      106.60034520109066
C          114.46807279368986       92.56206567044427      108.08516367848911
C          113.06659555231907       92.15344762628611      108.53314105963283
C          113.01641829490715       91.82824511654739      110.02382416569189
C          111.59751472096484       91.54120971228267      110.50680191180446
C          111.54473651156850       91.23247259768669      112.00065372885142
C          110.12312388320497       90.93396356558952      112.47005616746769
C          110.06245237906106       90.60513256417711      113.95928395181012
C          108.64369776309260       90.27463813300709      114.41705097626010
C          108.58334221275378       89.94806466923708      115.90420636897407
H          107.99048349253458       91.12426642878808      114.20701413967606
H          108.27141422601591       89.42138423765286      113.84473952109911
H          110.71573809382801       89.75394649333947      114.16893867995493
H          110.43863287867396       91.45750180750068      114.53051376180777
H          109.48803803111228       91.79892714701965      112.26621464025872
H          109.72596550560063       90.09072924983408      111.89882294740499
H          112.18530945462764       90.37328514219703      112.21569293028381
H          111.93896190183636       92.08425448552853      112.56029126826600
H          110.96425464795043       92.40741572688981      110.30104958728343
H          111.18830024676267       90.69550738796275      109.94852194099973
H          113.65224387137654       90.96312804967795      110.22846126992552
H          113.42126193636773       92.67116287304509      110.58730485636036
H          112.37250888833071       92.97141604945183      108.32384649234807
H          112.73529628252051       91.28539376264750      107.95744578612108
H          115.17038880952263       91.75111515017865      108.29351968315427
H          114.78659330694126       93.42687455748126      108.67295123936272
H          113.72248330832238       93.62702745480736      106.38042121027463
H          114.33725311827425       92.02146266020405      106.00152089220572
H          116.65493615810055       92.79553957194946      106.40996367669671
H          116.06381378794107       94.39081699935565      106.84603182851154
H          115.69765742206977       93.07646416997797      104.11987722747931
H          116.98093233304128       94.21943117443480      104.51276942137072
H          114.00555502497019       94.87226724914986      104.63714844046271
H          115.04978511454296       95.20245897191847      103.26314372294253
H          116.42579818731618       96.72684315899757      104.60693067987923
H          115.48775898221645       96.35050743548396      106.05329337111728
H          113.44874450739110       97.22831057257731      105.00668755759791
H          114.33427712762827       97.60907858343079      103.53467597817259
H          115.68357665844363       99.27115852191268      104.66881888023599
H          115.10132698326882       98.76519129677418      106.24620050914783
H          113.34286895183665      100.02045703716144      104.09154427497536
H          114.10169903928018      100.90415728369419      105.41625508609310
H          112.85076591390974       99.42528363877763      107.04214085685861
H          111.99942735017748       98.71235218862347      105.67099919209588
H          111.22050682510140      101.01872776215663      105.03181151068235
H          111.92108462527132      101.62445302853375      106.53509441349152
H          110.49757142077503       99.86209230999333      107.75254607213897
H          109.65812146315226       99.61032872540687      106.22238658558176
H          109.85377482590991      102.24619823192121      107.74647056427287
H          108.45677518368468      101.17455660463973      107.74534542652894
H          108.10888541418022      101.56297494204676      105.34387254768107
H          109.60487255947270      102.48894338438116      105.25259865749560
H          108.64417484598057      104.13607031106578      106.88769134955319
H          107.09350508110438      103.30920564989680      106.76278685207059
H          106.99504569839189      103.78521022421575      104.34785405232353
H          108.64748936077947      104.39403847024163      104.37861941805669
H          107.86489483356210      106.19921463287820      105.98856359920035
H          106.21266538312125      105.66467115782538      105.68250497508967
H          106.59239856216696      107.51564300099074      104.23232986521489
H          106.65048373591304      106.08971108515418      103.19672228701010
H          109.12376338950521      106.17726698371254      103.19856844413002
H          109.08419588933562      107.51041669892105      104.35316525851999
H          107.86576798927059      108.89956219462820      102.66546175987406
H          107.99340429304443      107.57664796941036      101.50409951532895
H          110.46116223339403      107.68462502051057      101.62201248597998
H          110.35897807449402      108.91457757792570      102.87805370876329
H          109.18610756027014      110.42949933529907      101.24118488976524
H          109.47663038463705      109.23593927929176       99.97783828416287
H          111.91276027475300      109.41903410866492      100.32262962709177
H          111.66360131112511      110.50867681375587      101.68513025722160
H          110.62298504383755      112.17635205783186      100.15201873048609
H          110.93608991911748      111.10046628044432       98.78737225049284
H          113.37064803873345      111.19275003362915       99.27251957916120
H          113.05427645974191      112.23798642752799      100.65884283548540
H          112.13423221405877      113.97663154480917       99.13845564302328
H          112.37484402997833      112.90706866264290       97.76471297543367
H          114.15288280456915      114.54052771379121       97.81912006372065
H          114.80511218305686      112.92491141618100       98.09685621948921
H          115.91211840334300      114.50034495565876       99.54311033053389
H          114.96339844353646      113.39830283253646      100.52656470623756
H          113.19078782666429      115.13359809960707      100.76567421337977
H          114.12778756118117      116.22782465799133       99.74708183435342
H          115.99054365338814      116.14741776824818      101.40887323900105
H          115.04591659839407      115.04542013553673      102.40313966280512
H          113.26555340079140      116.82581520308489      102.59885112149388
H          114.31668521504216      117.92452586192336      101.71220448744428
H          116.06870847184027      117.64840454465968      103.47994338360472
H          114.98632759759394      116.58112012004773      104.36886268304640
H          113.31412518837880      118.46089232905319      104.50754757896189
H          114.49289612555917      119.51967847225984      103.73893397448522
H          116.09946611644538      118.99995291595664      105.62314398959164
H          114.81772846235600      118.07293597653891      106.40204352101910
H          113.39008252765329      120.14224016018001      106.43866694058120
H          114.72506267037876      121.04799821221137      105.73360682559660
H          116.14706227378420      120.39645250183059      107.71843232005202
H          114.72978793361881      119.62653678064791      108.43059869424508
H          113.53039918402547      121.83573207510059      108.34098157043674
H          115.00095858197047      122.58021958668436      107.72064050249195
H          116.20501870451254      121.80500458645983      109.80787307882389
H          114.66163676770714      121.22325594559958      110.43030984650558
H          113.74464049507613      123.56221823628903      110.21282912686152
H          115.34176575576974      124.10559564253924      109.70816886322282
H          116.25870179897676      123.20427936266928      111.90156530564502
H          114.59820681383391      122.88182629614465      112.39988447771080
H          114.06618933805562      125.31921736584597      112.07239877925824
H          115.75340211165066      125.60377765556215      111.65723944551334
H          116.38970194841805      124.66279393300350      113.93622231533902
H          114.67017751379242      124.61821272023454      114.32740430626320
H          114.52736075375560      127.08110106045298      113.91896636254023
H          116.24125396544538      127.10172047367503      113.51465165500906
H          116.05814122620976      127.88182746680809      115.75781866235738
H          116.74372958952308      126.25552906515139      115.84114381643467
H          114.62390983547954      125.32513679873871      116.56404193142426
H          113.77438711373387      126.82197094311826      116.17230415974441
H          113.99600861993630      126.71710267527463      118.54907581796392
H          115.06123832157387      127.99514176234590      117.96930874406566
H          117.00786669045073      126.45775646167981      118.16975157600741
H          115.93302609009915      125.16797767563020      118.71065636689271
H          115.22498476911545      126.64949469989908      120.63012952518257
H          116.45957626293104      127.80829794627911      120.14394379320294
H          116.99643676550654      124.90935030697509      120.92698740632659
H          117.13672941163419      126.28397562445261      122.02104304310819
H          118.89694945815322      127.26523095256394      120.54282676614007
H          118.78921698291047      125.84827304300114      119.50032388802308
H          119.35293535029759      124.41127426300037      121.51790529777608
H          119.59504219364558      125.89403280918992      122.43676988380632
H          121.76555564248558      125.25455995308189      121.77625026122305
H          121.34489914586258      126.54258618123765      120.65324331955964
H          120.72178211033685      124.80745335734603      118.94901676338375
H          121.17276079552269      123.54656647016884      120.09738684607338
H          123.49033201547273      124.55953290579157      120.18354585760655
H          123.01048116252080      125.65944286301242      118.89335099424513
H          123.04564492526967      122.61203235985769      118.71216391119638
H          124.28738181460295      123.69324519764258      118.08369233872514
H          122.48202831518414      124.75585574520366      116.62163607445417
H          121.41448271857014      123.43843563184379      117.11169820581587
H          123.11388007972106      121.79545848317144      116.26809424285834
H          124.10158921388079      123.14008065208587      115.70367997936526
H          122.24692721693600      123.86261477198552      114.20023223440317
H          121.26822400018213      122.50903852431726      114.76330839391883
H          123.02222596317262      120.92344495684696      113.93301321909028
H          123.95745168989916      122.29059535912876      113.33658905094333
H          122.06311713591336      122.91647406057949      111.83099728034897
H          121.15296530672920      121.52237910886087      112.41052765856172
H          122.95214407218073      120.00851115099235      111.57513160798450
H          123.85150503837021      121.40449264797078      110.98953900946834
H          121.96157512802894      121.98442479491818      109.47073262165071
H          121.06649010686019      120.58238476046233      110.05401734393813
H          122.87136795509937      119.08291075787304      109.21987342211089
H          123.76095388625259      120.48134342566004      108.62468153096671
H          121.88597173450351      121.04481953626836      107.10024105850611
H          120.95739914416758      119.68384336919540      107.72580059519426
H          122.69692550598353      118.11054433086261      106.90402438735433
H          123.62146920618513      119.46209543584926      106.25496911845353
H          121.75900298139015      120.04459660710417      104.73940672608789
H          120.76201162942428      118.77560015772062      105.44709520241645
H          122.36630111911117      117.05623499696331      104.65002608104078
H          123.35859107237943      118.31360090076376      103.91361280923385
H          121.47888128067386      118.96234419225303      102.44122094454650
H          120.43319696488850      117.78581283695972      103.23319232673261
H          121.89767961969530      115.93943862529169      102.43379397348470
H          122.92547729377137      117.11147619591971      101.60839690905431
H          120.99653135008469      117.84256706002846      100.22730309692754
H          119.94579345302637      116.72104560351046      101.08844073126895
H          121.29154784777680      114.80570485269645      100.23086689885913
H          122.31171356706555      115.93079999605135       99.33293876078476
H          120.30987904775877      116.74364718809443       98.08947782523457
H          119.29530755296258      115.62357772699403       98.99329890920052
H          120.57041349965452      113.70559408269550       98.01711889034551
H          121.53395841155630      114.84394995670981       97.07472868360414
H          119.42840081323929      115.70070475717627       96.01150814505233
H          118.50672382101550      114.51328017058454       96.92856318369141
H          119.75867372251230      112.68037091361158       95.77334966017793
H          120.67250884471549      113.89249126192917       94.87717109055960
H          118.97301298770019      113.17779237394230       93.38729718127948
H          118.43989981129748      114.75333572150167       93.96949167660271
H          116.93744368754109      113.59992095854004       95.61633625654905
H          117.48806383417835      112.04361243870569       94.98936432579698
H          116.58400803948794      112.65894332292230       92.74114948251174
H          115.98860045751138      114.17706891303172       93.41292963682251
H          114.58449440298926      112.91163368493724       95.02770398716646
H          115.17875949043999      111.39209207406664       94.35994964749366
H          114.23865256985900      111.99927997658469       92.13894778411449
H          113.59241315507144      113.49306723031349       92.81664528818578
H          112.86200068439693      110.72872088749462       93.87026721110209
H          111.96033404619499      111.53298020394438       92.58893181377758
H          111.41978477964287      113.40789383901817       94.10014019857601
H          112.36914716770215      112.66684418192419       95.38687857321221
H          110.88171319972861      110.68633778998399       95.36862486366385
H          109.90999738699084      111.41059550613564       94.09127845289488
H          109.25809725262779      113.25935100816470       95.58201838982465
H          110.36323212883171      112.67800313823192       96.82664405267184
H          109.05809842051758      110.52012230327307       96.90410786708176
H          107.86517990183262      111.24555024244042       95.83170534340275
H          107.39341959211352      112.99941908466961       97.51241173125942
H          108.69434397472995      112.38858163491668       98.53403806267966
H          107.49172021657083      110.20200810147718       98.72898635495433
H          106.15235027095014      110.87624943125896       97.80316693545736
H          105.82533006026904      112.62151935482584       99.54515828052807
H          107.18441062740655      111.97172817120435      100.45918674449513
H          105.99311798587725      109.81513852269710      100.72892223279683
H          104.64352838830129      110.43397942253772       99.77433246804218
H          104.33305990473109      112.26519657666759      101.45710845612366
H          105.57200427945848      111.52289742204336      102.46631336858653
H          103.03732822734672      110.08970566880622      101.56458168017639
H          103.15141329162277      111.00253916436702      103.06390839404995
H          104.99934854434346      109.51111954149039      103.82456881412877
H          104.80986234234156      108.54649274979295      102.35883782726106
H          102.44515733052525      108.07595372081896      102.97812724581031
H          102.64290010012178      109.01895123802007      104.45211553783621
H          104.35353312637055      107.46622792004806      105.27781348685539
H          104.29939551270232      106.55184145943234      103.77019908088012
H          101.97380717445753      105.88963054666658      104.21150898465933
H          101.94249256469975      106.89281460377937      105.66368542083860
H          103.72178737774678      105.48335394502710      106.66853631141498
H          103.75365636106768      104.47805630780175      105.22047392550282
H          101.52152852090890      103.66451269846937      105.61156837754622
H          101.19228106425969      104.92552611659760      106.79332354118239
H          101.46514981137629      102.87094873240270      107.97022508521715
H          102.82935657544229      103.91272982140563      108.35703898757457
H          104.26961796522978      102.63617003718556      106.80267440841052
H          102.89221071877834      101.64015608718884      106.33296079213939
H          102.67401870576849      100.84819196233369      108.68829851875404
H          104.07340657206856      101.81607941971571      109.14105446985739
H          105.49646464342172      100.51814378977892      107.57279458324842
H          104.09524861887313       99.57462647820144      107.07648159876541
H          103.82823023910673       98.75865591977626      109.42624915839978
H          105.27821323304454       99.64679111260487      109.88715376750190
H          106.63854335270425       98.30604332655550      108.32376552029525
H          105.19403787447021       97.48531981820251      107.73975853271028
H          104.80077272591970       96.54257546735970      110.00212538981967
H          106.25732697282710       97.33381172855069      110.59581845626981
H          107.67326906772982       96.00807713828546      109.16743785737218
H          106.29618433186700       95.42539793872189      108.23213664238479
H          105.51085043020373       94.06037820454713      110.06990810705214
H          106.63007014462438       94.82223281797461      111.19397872764429
H          107.47749623175615       92.62745096892755      110.61425999328216
H          108.55429398551975       93.85261533883795      109.94643869300108
H          107.51140597572221       93.56205100681821      107.71475158327374
H          106.40099568158580       92.36239420316167      108.37939197207163
H          108.35184552929502       90.94449042767454      109.02034043303134
H          109.44393018805982       92.13409855915961      108.31663549402285
H          107.29270546561175       90.64151858143556      106.75110078619703
H          108.98345243345612       90.15304466270013      106.85127730858257
H          109.63906504475233       92.38212769094631      105.87861410811810
H          107.92612068037148       92.73926942056305      105.64147636790382
H          107.71046437066961       90.72749902947849      104.18012305734399
H          108.91944078199289       91.85088074294829      103.55692739543284
H          109.42692320545451       90.38756142468760      104.40047257925738
H          107.56574562731718       89.70802207698392      116.20358927840472
H          109.22014543643694       89.09673575746648      116.13580014690598
H          108.92144617077787       90.79665968439262      116.49550704256841
C           97.77434713577668      117.46224623602875      107.35489875884083
C           96.80426643729324      116.35109009544321      106.97074758529334
C           97.53262290133102      115.05099539768067      106.63873025372604
C           96.56590143225135      113.92657165803965      106.27363691852307
C           97.25397324377019      112.57188877917795      106.10275221887676
C           98.17690484462406      112.50566371016740      104.88804141756843
C           98.82666084628343      111.13080385588260      104.75478418546386
C           99.77319682756969      111.02264975127032      103.55966121227834
C           99.06189400673000      110.95149264769174      102.21066169728260
C          100.06610374783800      110.80340354640398      101.06989961970915
C           99.39640023155599      110.72927837574053       99.69865244243371
C          100.37083844946993      110.96968790191423       98.54430100008109
C          101.44371165476483      109.89214718888509       98.40093408506085
C          102.38152899613694      110.20150604001007       97.23603350831876
C          103.52348414326785      109.19811982287597       97.07624389486047
C          103.06289075799269      107.80095822394354       96.66768491789033
C          104.24391257526301      106.92396425786195       96.25895412278982
C          103.81219309405594      105.51765199067707       95.84486014839031
C          104.93036670710933      104.74802241268237       95.14058586207426
C          106.02026079769240      104.21959547019998       96.07703449302322
C          105.67572654748004      102.85866489136892       96.67901929753549