3864
 energy: -5104.238520125699 gnorm: 0.000789067732 xtb: 6.6.1 (8d0f1dd)
C           57.28615455877385       65.05335173970829       33.48420468995295
C           57.30041523420098       63.75421426821530       33.97935865667777
C           56.13259633624750       63.24756936744107       34.53858812693215
C           54.98155975270473       64.01458040994106       34.59800149606018
C           54.97878790516103       65.30339549148454       34.09483519538916
C           56.13656544659384       65.82120845914817       33.53851821831135
C           58.54219390379981       62.89893025299532       33.88572909244470
C           58.88434235299081       62.64885818980550       32.41397481816260
C           59.70748936936619       63.54444179103382       34.65219082973090
C           60.92420094658637       62.61856840310160       34.83736173977785
C           62.14316993097918       63.44370420508025       35.16654330941704
C           63.20861813823782       63.50483135053756       34.27693606965236
C           64.32734947902505       64.27020975903008       34.55520969661503
C           64.39328973445843       64.99927897858947       35.72982118831769
C           63.33471226173648       64.95310331755178       36.62060335537220
C           62.22250984849526       64.18013299197607       36.34273792544759
C           60.67367451875547       61.55368646858052       35.91051875344246
C           61.74440386140405       60.45157944884838       35.91599121827834
C           61.78150333832097       59.75644809495599       34.57952846001858
C           62.87956211210631       59.88630978213192       33.73959113550303
C           62.90277240854171       59.26761728704129       32.50131335284717
C           61.82936710318309       58.49688550484760       32.08915664829828
C           60.73242306867527       58.35225458097894       32.92276764951708
C           60.70853967033203       58.97943510945505       34.15472856798662
C           61.47294885290903       59.44659302968331       37.05411294608130
C           62.52105579167355       59.49174620764284       38.17417374577701
C           62.59331585714659       60.85893808187900       38.80315586886995
C           63.73733667500044       61.63347891903533       38.66030835108484
C           63.82498100269703       62.88917605731108       39.23478005347079
C           62.76351964051704       63.39275719490944       39.96538636522001
C           61.61581900164345       62.63285592448659       40.11121827663823
C           61.53072859317690       61.38020398897085       39.53299438401489
C           62.19534384742797       58.40830167633006       39.20990568353425
C           63.21040041434829       58.34306456878950       40.35843542237109
C           64.57336514183501       57.92055315766710       39.87785974247422
C           65.66885047118079       58.75807726537500       40.04665534630805
C           66.93142857196689       58.36835148313271       39.63423286946732
C           67.12056003471243       57.12694203206273       39.05077408451055
C           66.03637362389520       56.28380634918970       38.87462252367892
C           64.77533707330257       56.68196945505128       39.27850761155977
C           62.69295202568848       57.38714505241070       41.43971208981277
C           63.55638566821789       57.35357108408012       42.70855305778638
C           63.71520193728919       58.71897108912430       43.32389547043880
C           64.98167698670179       59.19097428687976       43.64786614478933
C           65.15031189809818       60.42358299290360       44.25338579271372
C           64.04858934216550       61.21212187691985       44.53731980473029
C           62.78257493388416       60.75538780106629       44.21427057470086
C           62.61654657564833       59.51785483370998       43.62042461362125
C           62.89493035007879       56.38553104409360       43.70060697175026
C           63.47190184684163       56.38901313177035       45.11941169771574
C           64.84032556212877       55.77243905520141       45.24188360685001
C           65.12747442930863       54.51237407048929       44.73034858892555
C           66.36099617475642       53.92207216134013       44.94628821204999
C           67.32643901302168       54.57651844461514       45.69186199125907
C           67.05517856011595       55.83378360042165       46.20408877958715
C           65.82485526196440       56.42461121663909       45.97627185662899
C           62.49489725959221       55.63468639447964       46.04164624164479
C           61.33747128364066       56.53214540935662       46.50798459820955
C           61.77507030503703       57.34069309490457       47.70146565785603
C           62.08152613346197       56.71856252860979       48.90619624728373
C           62.51261598862308       57.45306328361904       49.99355370689666
C           62.65037412712114       58.82660996781919       49.89575332074924
C           62.34919013763599       59.45864274573598       48.70338926522427
C           61.91706175583057       58.72001933677994       47.61521517104747
C           60.08879578848448       55.69658179265485       46.81168510052576
C           58.85192453542114       56.56466665041530       47.09274026780876
C           57.80554880309178       55.71172123334900       47.76334091193313
C           57.50023695071873       55.90481455213054       49.10409087995264
C           56.57349915973710       55.09908176280972       49.74230719418786
C           55.93999322563711       54.08487545402775       49.04799122997186
C           56.23476344141741       53.88655076504005       47.71062224634321
C           57.16002516117669       54.69212671387940       47.07224465371434
C           58.32575180752734       57.23498195399405       45.80720692643148
C           58.28126022402450       58.76384698277040       45.92880381984113
C           58.17822774224408       59.44593091460669       44.58902105700002
C           57.32287858871622       58.97940031177408       43.59738829513700
C           57.24145875741501       59.61951134864459       42.37397568516857
C           58.00458022368191       60.74734188530730       42.12249466229328
C           58.84733533861605       61.23244138596848       43.10698741260373
C           58.93291375770984       60.58350070525655       44.32649835003824
C           57.10402520393347       59.17813805720787       46.82405553436489
C           57.23190400604317       60.59721324810472       47.39831380650426
C           55.86964159170098       61.05125100145971       47.86048316542961
C           55.22509807251303       60.43163777579041       48.92573460670168
C           53.95418509213899       60.82140937279914       49.30924431114381
C           53.29177078034748       61.82026863519349       48.61554398901904
C           53.91830353034211       62.43585109100979       47.54700645532448
C           55.20038569658895       62.06276554120302       47.18368349148383
C           58.26219264060982       60.63742570682139       48.53314806603915
C           58.50755616762301       62.05914231028605       49.04060696662479
C           59.16615765703765       62.95224842419163       48.01834428828698
C           60.32078589538059       62.57897619879937       47.34067519146573
C           60.94525324284854       63.45128788347798       46.46643026911003
C           60.43034358590387       64.71877835367323       46.25493898092333
C           59.28628845286444       65.10388355851182       46.93022178439303
C           58.66073065971458       64.22761812694948       47.79801982345768
C           59.36440409670190       62.06732262938618       50.32129496636851
C           58.55917737538540       61.69703790144320       51.58142939802850
C           58.48397760474419       60.20866225992371       51.80246975616213
C           57.25278487352318       59.57218000369819       51.89997020433817
C           57.17643584775009       58.20564147956095       52.10270866022982
C           58.33083874922543       57.45291369391225       52.21888535805477
C           59.56325015413980       58.07676773636774       52.13156164378645
C           59.63674600055741       59.44150840370031       51.92604563294510
C           59.11172151254221       62.40903677085748       52.83104140115617
C           58.03934255981527       62.61733249691667       53.92109567317583
C           58.25933022009585       63.96674520223836       54.55978502101202
C           57.32129239518429       64.97879842530249       54.40248368848182
C           57.54690178678236       66.24789617791897       54.90619821497197
C           58.72284064467598       66.52720482486482       55.57811067703406
C           59.66573194138257       65.52605584839225       55.74324764963871
C           59.43789440837385       64.25908192932383       55.23838319288621
C           58.00870426095061       61.48213515547837       54.95297357240193
C           56.67752085570944       61.44841296730039       55.72349213728709
C           55.55624410870576       60.96771280010015       54.83188749822472
C           55.39264996486622       59.61239711000992       54.56273258259753
C           54.32156962540621       59.16342781149053       53.81178923843535
C           53.41358840116768       60.06570888614411       53.28479031483040
C           53.57892050155012       61.41843993343964       53.52127035127592
C           54.63714203425549       61.86052098292108       54.29707466161634
C           56.75347296134645       60.54089942702746       56.96253337471526
C           57.10824700964374       61.24541744424112       58.28059389848632
C           58.58388888908383       61.53533713333567       58.37076808828252
C           59.51094719432095       60.50553051112845       58.50130511172109
C           60.86641471615896       60.76882633452827       58.56196202336844
C           61.32421900661529       62.07363682596303       58.49566659120689
C           60.41326130454777       63.10746013252481       58.37474282001369
C           59.05636569707908       62.84002308472845       58.31235606439598
C           56.62961864072361       60.35660788978573       59.43752711298734
C           56.88031013083831       60.96895752762899       60.81853631056773
C           55.98949337838823       62.16296564156084       61.05084846723861
C           54.60799998879033       62.02210622002135       61.14222782635827
C           53.79886444102179       63.11292510755537       61.40368075552132
C           54.35390423717269       64.37129997805633       61.56338489225536
C           55.72556955915877       64.52783910947967       61.45826490153204
C           56.53365691152726       63.43201187702714       61.20470327666698
C           56.65286288419593       59.90906891313476       61.90450318057228
C           57.00480020212459       60.44274127851063       63.29685407396386
C           58.46309935300969       60.83294394688433       63.35189424957395
C           59.47073138808809       59.90918461856841       63.09587268148840
C           60.80064378518092       60.28668752247555       63.11506767722382
C           61.15057016535621       61.59506974297942       63.40126649852655
C           60.15862121452839       62.52104954937054       63.67230009778651
C           58.82815227651355       62.14035930456546       63.64634943776634
C           56.70488788678392       59.43300389593305       64.41515705865248
C           55.26362094461538       58.89397832854223       64.46429040233316
H           58.31597238899451       61.93355537854387       34.34475686392269
H           60.03316389668292       64.43835253367992       34.11500919976550
H           59.34858723890795       63.86448602480098       35.63232535181410
H           61.11489024793661       62.10797081497865       33.88885780791163
H           60.65683852672528       62.02440806459344       36.89471217942747
H           59.70237161770719       61.09124487495352       35.73392577066953
H           62.71667773181601       60.92836978897034       36.08026145575118
H           60.48971580289129       59.63877200828769       37.48560266771944
H           61.45975134231183       58.43295200162345       36.65013927922959
H           63.50018643848750       59.27110924017501       37.73477787849788
H           62.14650766857780       57.44109096453430       38.70518392801978
H           63.29542729730715       59.34377327191903       40.79762099762941
H           61.68004103240494       57.69380793000300       41.70712846305128
H           62.63031632363698       56.37613556063381       41.03340772928419
H           64.55335729328536       56.97568282496226       42.45351857716567
H           61.83970921318623       56.65676243301915       43.77463541801182
H           62.95162063359835       55.37784711943009       43.28384282238009
H           63.54213262255995       57.42441375723133       45.47028490174163
H           62.09750756037037       54.77885457097123       45.49532453542214
H           63.03167531545340       55.25015547120660       46.91059623402476
H           61.08829586763815       57.22648243462470       45.69978662532662
H           59.15610167816165       57.34052931783049       47.80456319322874
H           58.95925689193529       56.96266247786059       44.96119621169198
H           57.32263504252925       56.86553439040142       45.58832461378849
H           59.21471293222475       59.09173020961617       46.39706167877871
H           56.18316386656510       59.11041521326245       46.23877256761390
H           57.02067031512545       58.47265360386348       47.65221353804984
H           57.56324905094891       61.27069517575938       46.59882597823808
H           57.91067215740495       60.02613291144532       49.36438956532356
H           59.20442587254375       60.20343820890611       48.19571394304472
H           57.53340075808303       62.50233809269884       49.28116046412065
H           60.21307285127198       61.39415586066237       50.19193667867835
H           59.76661029760938       63.07715279563971       50.44636217323551
H           57.53695190177648       62.06433445233004       51.42707785699977
H           59.96018000074152       61.85867264136329       53.24156977045676
H           59.47865690898904       63.39477046482131       52.53073749772100
H           57.06081300686841       62.64048526082870       53.42894906309220
H           58.14641530266275       60.52704446666078       54.44074375519930
H           58.83108966566020       61.60862679981936       55.66022867225945
H           56.44473511933874       62.47057011139771       56.04555435154230
H           55.77354797358435       60.08379926968993       57.10736593100020
H           57.47493200432897       59.74389177621939       56.78247105068475
H           56.56313779754886       62.19527578251151       58.33073530807415
H           55.56054020729123       60.17168701192428       59.31933295966969
H           57.12951218452372       59.38884666862159       59.38099922150475
H           57.92470931452459       61.29907348547238       60.86971129662754
H           55.61117535983214       59.59281556209110       61.87521211896873
H           57.26583363356507       59.03612655730677       61.68554490490932
H           58.18022734636187       65.47305611224502       33.04693932650822
H           56.14460461677736       66.82857010418800       33.14615322286846
H           54.08048913453705       65.90108577650341       34.14484479616386
H           54.07972818774515       63.61431471711663       35.03927264898559
H           56.11779237212031       62.23840671721648       34.92615772385002
H           63.16247097395683       62.94473308719088       33.35284445954399
H           65.14799660947769       64.30040271071962       33.85218663052209
H           65.26379049715516       65.60153415343370       35.94752854998536
H           63.37495329050734       65.52324187962363       37.53745811019274
H           61.41084901198884       64.15510146735301       37.05381338532931
H           63.72860427245361       60.47511311040967       34.05881891642811
H           63.76380459483498       59.38754799939255       31.85924404758140
H           61.84796346564723       58.01198321898397       31.12338595654243
H           59.88870206196476       57.75342130624478       32.60954235308999
H           59.84323468366811       58.86215967133577       34.78999143007951
H           64.57569643844367       61.24729056327388       38.09522957288593
H           64.72613890787781       63.47354559874253       39.11177151447551
H           62.83002339448753       64.37163307257815       40.41880788341614
H           60.78442169450658       63.02035561982169       40.68142818991164
H           60.62775820139077       60.80184942675955       39.66023387784446
H           61.20767223795162       58.60234396517667       39.63032641654915
H           65.52924822739065       59.72621863926609       40.50905319833629
H           67.77226220680090       59.03426173095121       39.77178702537429
H           68.10654016108111       56.82024035252213       38.73208814563106
H           66.17536415691985       55.31096407637795       38.42360363159015
H           63.94007870014112       56.01480437409712       39.12285930583559
H           65.84733512812861       58.58001347480005       43.42843187278384
H           66.14369071863949       60.76890911052502       44.50579311258415
H           64.18104983742403       62.17702455530739       45.00721297945903
H           61.91668447807906       61.36603356765522       44.42359976058957
H           61.61666073036381       59.18161230189516       43.38862413097595
H           64.38350802185306       53.97272754205098       44.16276833083177
H           66.56519730681975       52.93728831294558       44.54820687942275
H           68.28159695634142       54.10809428437277       45.88161635222794
H           67.80423102444649       56.34892398412328       46.79048698846617
H           65.62149595058999       57.40685792536208       46.38201970488790
H           61.99993156528293       55.64518259411993       48.99884793887843
H           62.75153705069493       56.94186565981543       50.91524179357585
H           63.01491829058081       59.40562658525083       50.73168528418654
H           62.47138265445106       60.53029066089299       48.62243793914669
H           61.70670368683666       59.22035020822537       46.67784433205889
H           59.88012300948186       55.04883085462443       45.95867051993925
H           60.28207134636666       55.06232610696001       47.67905672397307
H           57.99482799328796       56.69354065369369       49.65633429085148
H           56.34587840162521       55.26418712052316       50.78432706647784
H           55.21897215258793       53.45237296850922       49.54343024654806
H           55.73706502679219       53.09841040068136       47.16426322540607
H           57.38072536799527       54.52887151113882       46.02716592532954
H           56.71792084940914       58.10412761528910       43.78179752626321
H           56.57911911417585       59.23802769515478       41.61066354163621
H           57.94306393318969       61.24438900887636       41.16451084017200
H           59.44619838906803       62.11512786850960       42.92582572039269
H           59.59593961343544       60.97086269039245       45.08882525206293
H           55.71598433389605       59.63075038447941       49.45826353546321
H           53.47520505401872       60.33584640965311       50.14756036133907
H           52.28756326452759       62.10921821055251       48.89177672698055
H           53.40171368328120       63.20300618044576       46.98686381026162
H           55.68875696308476       62.56125017163717       46.35735681320503
H           60.74756700493010       61.60050300362714       47.50200766194111
H           61.84723745744208       63.14664732336374       45.95411144016907
H           60.91880429824717       65.40181594299769       45.57352418474862
H           58.88410229986708       66.09635459347820       46.78538259091555
H           57.77222035942951       64.54234850960054       48.32802907772516
H           56.34549777557331       60.15442656719958       51.81862536579354
H           56.20929820077660       57.73111802192700       52.16581410294663
H           58.27848533060882       56.38676846871841       52.37870497249808
H           60.46770812890028       57.49239695395433       52.21584051727910
H           60.60324976581511       59.91891362676884       51.85576110100952
H           56.40495513635465       64.77438132700347       53.86783487263953
H           56.81112075216353       67.02746373111812       54.76208684343665
H           58.90855295666230       67.51852415112316       55.96603398617638
H           60.59399605658723       65.74273757278705       56.25349293488223
H           60.19304806633541       63.49533008366904       55.36286178045640
H           56.10756241161724       58.89904166512480       54.94343990303860
H           54.19062016027672       58.10393222831845       53.64127626243810
H           52.58136326602079       59.71424128370049       52.69250672364036
H           52.87408696622074       62.13182617135964       53.11932029954158
H           54.73971274150596       62.91566597679430       54.50553568361734
H           59.16898344799854       59.48302771221575       58.56154174125713
H           61.57602687324297       59.95951915594222       58.66791985144997
H           62.38411843002130       62.28097601989597       58.53781935707796
H           60.76408390874438       64.12902692950227       58.32601780212003
H           58.35591790999361       63.65810716947533       58.20854492375159
H           54.15300495833189       61.04960939998576       61.01474779559199
H           52.73091968501174       62.98176369882961       61.49809032947967
H           53.71987549696010       65.22253042858489       61.76886123617943
H           56.16913375917674       65.50625622689890       61.58441507351342
H           57.60580995997053       63.56083289233071       61.13173560586213
H           58.05956815167122       62.87368054407576       63.85031808628203
H           60.42117298024733       63.54469442104146       63.90060858795444
H           62.18975245961040       61.89128098835688       63.41353514994370
H           61.57098943735847       59.55940925576928       62.90186589736472
H           59.22247074358918       58.88098227195622       62.87760601688752
H           58.00190704980486       62.29774372851198       31.88154189411912
H           59.22999659276285       63.56173831013290       31.93462626415229
H           59.66117559330394       61.89369711676995       32.31759400632528
H           56.41294167061952       61.34588693189339       63.47827380262885
H           57.37739352285698       58.57740509998239       64.31416458542013
H           56.94166367418297       59.91232843663546       65.36813111475273
C           54.20866549715404       60.00769713281901       64.48344885421034
C           55.14869447740585       57.97855344735355       65.66003829858499
C           55.31193609116065       58.45687189408935       66.95518727252984
C           55.27503054749145       57.59815334631278       68.03841461140706
C           55.08185226899118       56.24063653800938       67.84606986245375
C           54.90195620415863       55.75429199363536       66.56431384993806
C           54.92636740722266       56.61919108563237       65.48461911358653
H           55.47292104630274       59.51196610638002       67.12550627780925
H           55.40622577524957       57.98793662310398       69.03825409106743
H           55.07085099378416       55.56786854330622       68.69138253041443
H           54.75065311757646       54.69533462910081       66.40925277022180
H           54.76700235876149       56.23131980618511       64.48823824628204
C           52.79147024791983       59.43222580932839       64.49889017793225
H           54.36486380750491       60.64847299876792       65.35285522382024
H           54.32564168987853       60.62003532439759       63.58831266346579
C           51.71303588618321       60.39183288192776       64.06733348281882
C           50.51434669424246       59.87937756074307       63.57856630225508
C           49.48513468789446       60.71451548692539       63.18698436223749
C           49.63973713660869       62.08937726190965       63.26276401742764
C           50.82836917445436       62.61301027873146       63.73912421341588
C           51.85280747971538       61.77171067052887       64.14436455279122
H           50.39317468507340       58.80689019790460       63.50809277577812
H           48.55956730898455       60.29500041071566       62.81914445117351
H           48.84028567776497       62.74760648954685       62.95414633856195
H           50.96160868521003       63.68514278494839       63.79567453100668
H           52.76708675522363       62.20636148471348       64.51884476334514
H           55.09353017884247       58.29120117558945       63.56569933584574
H           52.75428906870582       58.56213900745889       63.83700428540996
H           52.55744577561134       59.06803517616743       65.50504964284836
C           56.12954737162419       66.25207985683312       37.39663154768289
C           56.52534623248200       65.43429176150067       38.44674461192958
C           56.42753896346336       65.93023796495351       39.74163807928329
C           55.94125799537446       67.20192431843336       39.98349223767816
C           55.54913263967539       68.00735360985931       38.92761971223601
C           55.64694110496245       67.52761260247154       37.63288477313554
C           57.11185369357537       64.07324111286445       38.16960885451358
C           58.60008672698196       64.09280832281161       38.53565413283432
C           56.40584920757739       62.93021640296097       38.91089414584059
C           54.91165666553314       62.78609520870548       38.55587970180330
C           54.55275800476394       61.33085436840900       38.38202354249911
C           54.71474990971937       60.43030399915288       39.42923986387924
C           54.40804857121537       59.09217042096817       39.26230540154469
C           53.93147853353042       58.63088696214162       38.04718143472008
C           53.76367673151346       59.51740460363960       36.99757275154256
C           54.07501260273708       60.85511875289357       37.16792980017023
C           54.02732629460655       63.43708740639503       39.62851616006092
C           52.54161190050941       63.41789900124827       39.25769693831975
C           52.26882922505983       64.19763696010850       37.99623629424971
C           51.55046939252874       63.60975472807102       36.96328707565738
C           51.23263667766265       64.31432078428045       35.81602968407384
C           51.63862111251563       65.63078564099969       35.68316492681539
C           52.35860105688782       66.22938189380578       36.70347414552440
C           52.66608417885145       65.52178334827116       37.85134565629876
C           51.66090087629442       63.96607251738313       40.40292188778768
C           50.98792956124551       62.85831893810412       41.22548777142408
C           52.00064324218367       62.02338520368049       41.96930764102898
C           52.78321145659827       62.57848464665299       42.97611022169554
C           53.69380612224985       61.80638316107616       43.67356198387863
C           53.82982533685093       60.45886743230552       43.38732140409365
C           53.05076022602795       59.89250717095770       42.39438851810515
C           52.14953814764838       60.67132267261776       41.68896656972250
C           49.97460737614713       63.43770333533727       42.22814119843080
C           48.64537108896793       63.89181445858637       41.59764963880820
C           47.95900131142211       64.83548107133417       42.55709832071615
C           47.85676820067788       66.19288830712928       42.27733818700599
C           47.21057855567616       67.05522970214933       43.14648474073596
C           46.65995681818643       66.57551543114762       44.32210935424413
C           46.78535366455715       65.23160280095313       44.62862587830026
C           47.43437870929934       64.37443171789464       43.75991336966304
C           47.75467281609141       62.68714662965555       41.25706134223002
C           46.78382072402365       62.89850422109009       40.08148197345090
C           45.81733793504030       61.73803460214164       40.03988765307893
C           45.86699410882390       60.82029420865148       38.99928255274659
C           44.99124803417723       59.74964683825444       38.95076310933089
C           44.04681549424669       59.57899027233234       39.94753144948255
C           43.98740450251045       60.48564608765600       40.99251234169846
C           44.86794321958563       61.55156549565334       41.03909320330431
C           46.04350864168283       64.23933652728695       40.16934685147579
C           45.00936580883415       64.42620851466340       39.04767240213171
C           45.71116798624903       64.29955713328329       37.71677194543570
C           46.67213692045387       65.22569886558006       37.32554099176889
C           47.34251140407501       65.09038371268230       36.12325592625969
C           47.05858495477653       64.02472679777128       35.28629203433697
C           46.09990832703961       63.10016851091205       35.66031602251483
C           45.43399262290472       63.23851769695482       36.86569373264211
C           44.28952009638707       65.78737252950953       39.14303157748751
C           42.95854859435860       65.76490645303788       39.91311291961001
C           42.14943829362429       67.00692140730492       39.62798532405395
C           42.70811637607246       68.27648638358193       39.71882110261499
C           41.94475633109666       69.40688066024603       39.48815507444651