3864
 energy: -5104.223508374509 gnorm: 0.000775300361 xtb: 6.6.1 (8d0f1dd)
C           54.91841962615863       60.39350135275180       33.82049418947137
C           55.87754935440201       60.29628956846430       32.81848180391313
C           55.73692787040439       59.29755280676419       31.86335721576652
C           54.67486034047754       58.41129353124025       31.90998816569223
C           53.72716933005220       58.51654625580557       32.91218729919852
C           53.85254260251300       59.51277625855142       33.86568947080029
C           57.04457177461671       61.24994656785783       32.75584396122419
C           56.55235987277575       62.67993308357735       32.51593318458826
C           57.89286240109153       61.18503704955009       34.03395362171718
C           58.40564534504270       59.76921673785977       34.32767669232322
C           59.17652342571076       59.20737304316407       33.15672797376781
C           58.76572861409677       58.02949706715660       32.54452409133618
C           59.46937914376607       57.49549608744493       31.47915314237395
C           60.59967036476248       58.13642865518445       31.00340026000868
C           61.01758985257855       59.31352489744513       31.60112210554814
C           60.31358084519692       59.84117439826311       32.66844020486236
C           59.29767272593379       59.71994019703538       35.58058314765108
C           58.63417241949362       60.18102572988530       36.88923412536028
C           59.66645063694226       60.18854101307199       37.99232339896698
C           60.07197357419579       61.38720121019340       38.56534170707067
C           60.99411351002045       61.40881091052084       39.59723515351497
C           61.52742142527433       60.22488898143214       40.07465232427101
C           61.14037521160519       59.02468387285166       39.50404636210380
C           60.22250523203114       59.00763212536103       38.47088951577619
C           57.43974828715358       59.30512994529965       37.28232055610977
C           56.77693842213603       59.79519746230437       38.57900518024824
C           55.89240757225576       60.98652502429047       38.31695992966904
C           54.76468734447037       60.88156609704832       37.50882881077111
C           53.95272959581877       61.97734820468008       37.27946765973486
C           54.25145355734539       63.20074783589602       37.85565542709077
C           55.36935637322069       63.31715417031456       38.66393609584806
C           56.18097901664161       62.21851825928355       38.89020073282853
C           55.98433363933540       58.66228912424495       39.24055321164575
C           55.35633633851334       59.09831623161946       40.56973370428741
C           56.39745014756303       59.62641297452220       41.52743228204783
C           56.20719695250131       60.84131040710438       42.17155478357218
C           57.12886778149673       61.31222845866017       43.09000903290966
C           58.26083362296215       60.57315000002570       43.38440915495107
C           58.46655310552099       59.36398865829995       42.74178248549869
C           57.54339339977947       58.89649964495322       41.82451192919424
C           54.63945871632256       57.92856426210949       41.25958968544112
C           53.41652389636993       57.37634395389133       40.50024892936890
C           53.40994739456193       55.87650132097000       40.63762484100694
C           53.24835267770594       55.26943256799654       41.87813330390092
C           53.33351517919908       53.89539651238138       42.00445730002181
C           53.58828539362021       53.10389233184919       40.89657074500454
C           53.74385435093185       53.70045049749220       39.65758468655250
C           53.65211473197679       55.07535047501172       39.52984300515072
C           52.10553431533828       58.00496916758647       40.98496861040384
C           50.89068217265434       57.38132594998317       40.28653104108188
C           50.98430558875226       57.45143401735048       38.78317525323499
C           50.81136497359014       56.30525944557474       38.01706772904152
C           50.80296224585494       56.36685073035027       36.63495070506030
C           50.97011591604173       57.58255825449884       35.99343684524974
C           51.15827203163898       58.72968197248048       36.74649882057047
C           51.16701834967153       58.66362959453280       38.12785722476950
C           49.56884099803138       58.04906542344267       40.70342567926954
C           49.18642439380501       57.80542022106180       42.16785701546181
C           49.21838040391947       56.33368340119674       42.50052468695503
C           50.06869522478171       55.86254215765577       43.49030040309714
C           50.10235766140923       54.52150324709047       43.82377136960575
C           49.28038220438354       53.62197876378343       43.16918978834432
C           48.43326187998130       54.07724436866362       42.17318715028286
C           48.40027806975623       55.42059044405402       41.84441625767065
C           47.79411730338445       58.35962975795763       42.50760691901726
C           47.64303350204454       59.88104696969260       42.30942861445954
C           46.87824913484457       60.48995209417414       43.45789015189170
C           47.38727081737662       61.57103478486252       44.16583348382832
C           46.67772257521344       62.12712513008724       45.21660184833643
C           45.44808669308876       61.60348233190351       45.57158183245257
C           44.92620209760407       60.53075346655677       44.87118385542748
C           45.63661292704359       59.98051559178036       43.82210540813509
C           46.90668427441427       60.18291473379997       40.99574463591288
C           46.84264746715415       61.68024504563608       40.67800725643467
C           48.21504462062293       62.26493536447445       40.44797012087551
C           48.65204715818607       63.34534830672136       41.20527665002216
C           49.89873689578079       63.90841497582011       40.99463313800190
C           50.73202912247548       63.40056913421884       40.01319470580233
C           50.30650495157925       62.32955006204978       39.24656443953030
C           49.06060509145320       61.76740405491410       39.46182324971603
C           45.95930530542741       61.96142508971441       39.45104290044281
C           44.48234942231634       61.56163437103196       39.65963487970878
C           43.56403096197968       62.68117620630637       39.23770763811148
C           43.51396780521171       63.11079181799953       37.91620407600921
C           42.66051592964802       64.12913511975964       37.53331664023779
C           41.84261754286624       64.74104921333546       38.46831370095382
C           41.89504122770806       64.33394078048062       39.78979923133667
C           42.75134432957051       63.31497190680248       40.16901132894690
C           44.14101373326567       60.27297103207431       38.89776816941581
C           42.70935259919128       59.79150527781565       39.17187716640289
C           42.53278599885243       59.38506837865860       40.61280873160435
C           43.17669294004754       58.27367688612139       41.14411174305726
C           42.99159873967818       57.91548149562779       42.46836338687068
C           42.16712617126873       58.66543352790614       43.28809521585685
C           41.53135411185206       59.78104162303412       42.77320595252728
C           41.70859865419297       60.13130794004566       41.44709534348311
C           42.34702461683961       58.65302248009306       38.20920719807840
C           40.90906933182454       58.15590997842195       38.40062152630820
C           39.92669330567461       59.29802573175289       38.34234018927009
C           39.82153150413319       60.10134365518284       37.21249229421867
C           38.92288045428199       61.15154243276466       37.17095172108796
C           38.10766337558955       61.41446053849270       38.25901655453646
C           38.19456658376413       60.61465365487508       39.38490082862542
C           39.09634571670699       59.56583113709628       39.42317799957799
C           40.55060395534765       57.09563945290727       37.34476369318936
C           41.01320866554340       55.67575818502021       37.71689913511739
C           41.10249430320151       54.83308409787779       36.46874925683964
C           42.32149573314306       54.31092120580681       36.05264102690352
C           42.41891954939509       53.57469182530796       34.88448585177282
C           41.29315133769330       53.34860605787382       34.11153436540028
C           40.06969481074510       53.85119207288139       34.52174931834290
C           39.97757973446205       54.58807147235901       35.68876529704315
C           40.05517390261723       55.05881301992018       38.74283042330177
C           40.44192647617456       53.63231035218651       39.14801207009334
C           41.84240819139891       53.57404835994868       39.71040312704619
C           42.79832530244368       52.74972837775408       39.12846973548015
C           44.07820143630904       52.65916515464532       39.64677467691038
C           44.42330018043221       53.39907019905976       40.76340571872329
C           43.48418925707865       54.22904031918043       41.34948592507414
C           42.20569534339132       54.31671005177674       40.82843244907932
C           39.46495694207027       53.06218478371937       40.18913437656248
C           37.99413865049784       52.96060791914471       39.74368232630820
C           37.18469224124478       52.63598034094549       40.97434728070882
C           36.94033797523075       51.33544414608143       41.39367377123909
C           36.22569751505240       51.08872829955313       42.55327937279644
C           35.77063588943785       52.13659253608156       43.33286671405267
C           36.03396024492229       53.43736111558039       42.93987426275033
C           36.72445267594195       53.68120670118981       41.76796210887817
C           37.83915709903665       51.95947851610458       38.59316196484647
C           36.37897942714480       51.65825497283731       38.21820673748966
C           35.57213932653102       52.93076732100399       38.14303504901969
C           35.90308505458906       53.94049471062689       37.24580195695461
C           35.17006680620069       55.11153485286851       37.19282569162814
C           34.08795682795778       55.29355000652019       38.03802821275578
C           33.74927450383737       54.29711941151675       38.93642033537019
C           34.48770447191163       53.12763861994623       38.98792515708605
C           36.26584280214855       50.90065010427677       36.88073830812383
C           37.14569009085583       49.64497983616982       36.76448071705163
C           37.15377011095444       49.15009893461831       35.33776556722941
C           35.99843968446466       48.67558540085481       34.72653472605162
C           36.02681150163507       48.19693832875558       33.42940356536457
C           37.21426614021380       48.18016507558870       32.71723577603939
C           38.36700032907208       48.66668473840492       33.30641216464841
C           38.33193540191934       49.15140266238205       34.60242401580366
C           36.71523721623551       48.51945125213675       37.71479453307138
C           37.84968258648342       47.50161605238299       37.94660057175280
H           57.67686443856206       60.95921974690423       31.90897418088947
H           58.73659993989128       61.87034166966199       33.93104045995001
H           57.28774262372594       61.52761874164999       34.87438039014433
H           57.53712112303560       59.12461481374621       34.48851469703052
H           59.65039009199188       58.69304793861311       35.70506847058707
H           60.17859195710506       60.34426291973575       35.41144787421897
H           58.27824969958581       61.20858149794596       36.76174402001473
H           56.70335394180952       59.31453917824811       36.47998281214068
H           57.77231262254701       58.27490747259913       37.41549717127598
H           57.56620799075193       60.09844758107240       39.27588853233863
H           56.65382473193444       57.81829634282012       39.41581067526935
H           54.63093032787395       59.89579672727136       40.37131986761266
H           55.37314864772336       57.12977401687095       41.38040425237358
H           54.33542749044580       58.24690075323409       42.26057003291050
H           53.51856892681899       57.60969797814347       39.43668116000773
H           52.01072552756919       57.85761996667435       42.06146154433480
H           52.13819450902652       59.08176230961692       40.80319373349819
H           50.84649654305311       56.32470743688513       40.57400956910148
H           49.64751481677657       59.12280859329690       40.52523351800927
H           48.77648478602084       57.65888996261353       40.05845740773630
H           49.91317556767740       58.32100637342226       42.80567446002000
H           48.63607827847166       60.34281358212107       42.27352830364352
H           47.39201826038501       59.65866891117682       40.17301470316399
H           45.88976335565261       59.80133520801949       41.09072444994250
H           46.39350197929998       62.19255903157240       41.53709283589024
H           46.01556873702422       63.03227529684762       39.23758686664129
H           46.36503845227700       61.43727154139856       38.58414357881562
H           44.31443153951568       61.38352469250174       40.72730233563671
H           44.24776231569941       60.45286817492557       37.82610943261689
H           44.84665640875518       59.48855340558992       39.17247484470259
H           42.03119337043520       60.62896494087782       38.97021389148831
H           42.47060054804773       59.01589254510636       37.18655961917883
H           43.03363082909399       57.81606915356526       38.34581977887912
H           40.83697738990167       57.70539602110414       39.39533426256799
H           39.46699714896691       57.08786235368117       37.20450866630217
H           40.99827719742429       57.37896098319501       36.38919012517592
H           42.01205643863166       55.73196496764418       38.16140755775736
H           40.02411679441545       55.69171394854526       39.63127637621897
H           39.05189758492892       55.04837397336703       38.31489424337786
H           40.41375890854686       53.00228993260471       38.25289737709143
H           39.80360365199448       52.06117315922086       40.46870407073156
H           39.50443554652657       53.68627609344782       41.08522900672899
H           37.66040276913971       53.94370989905382       39.39758620561287
H           38.34918322356320       52.36501980232168       37.71708112736946
H           38.33983240792005       51.03027844248251       38.86725675537119
H           35.93925837856692       51.04260497460046       39.00793380052841
H           35.21793179769343       50.63095160929155       36.72552650241253
H           36.54691084567867       51.57572424294553       36.06864741794100
H           55.00446779182357       61.15927194365257       34.57829048953955
H           53.11979752421219       59.59683276570689       34.65485352067777
H           52.90008341692540       57.82283280768146       32.95352745582559
H           54.59246290123830       57.63549738115500       31.16206545595288
H           56.47341675587471       59.20921859658147       31.07641058358720
H           57.87395527937657       57.52933887969823       32.89401929545677
H           59.13005019435552       56.58008252185473       31.01515225096063
H           61.15014238137937       57.72497644051633       30.16968451199143
H           61.89649242249080       59.82347625872987       31.23259479484080
H           60.65504686015844       60.76110522119403       33.12037478769953
H           59.65457217734237       62.31761423892874       38.20379717790980
H           61.29241595130890       62.35210605317169       40.03301729098140
H           62.24015526979884       60.23822969964561       40.88646063127505
H           61.55474909114833       58.09775886774993       39.87236543081773
H           59.93309856506024       58.06250438410949       38.03749927103075
H           54.51202412210259       59.93334839839638       37.05613939820794
H           53.08194781508296       61.88184810585231       36.64529651004581
H           53.61663002988444       64.05706864928078       37.67549025261057
H           55.60959587142928       64.26773825474126       39.12027523843715
H           57.04958664584860       62.31365795193852       39.52798963108430
H           55.20686596335837       58.32321290659723       38.55516149714302
H           55.32272970205038       61.42441996272823       41.95704886211775
H           56.96219362759681       62.26048016848372       43.58195698164528
H           58.97418719547944       60.93668270476113       44.11144530953597
H           59.35131570870329       58.78097412471209       42.95826968286849
H           57.72521787594145       57.94997075018744       41.33986154148140
H           53.07344182210440       55.87849174770509       42.75281291599045
H           53.21398580950156       53.44029980565837       42.97578131428040
H           53.67800666254710       52.03264877920468       41.00530704913232
H           53.95011125002159       53.10277853073224       38.78244936025044
H           53.78767597664654       55.53232626841434       38.55859180680170
H           50.67679107671748       55.35364477641096       38.51206546992633
H           50.66146609535848       55.46647511061511       36.05415868403175
H           50.95267502837868       57.63634434253757       34.91354277886079
H           51.28573340969910       59.68449060632155       36.25396557325488
H           51.31241542747146       59.56713481762488       38.70121954343490
H           50.71109946834584       56.56072235579408       44.00607434971636
H           50.77439942472305       54.18480960705603       44.59881463825097
H           49.29527581463056       52.57472260700993       43.43310778158689
H           47.79485055657923       53.38203087936770       41.64582255632634
H           47.72727557338966       55.75551832871658       41.06793310128625
H           47.04304464935412       57.84204221757944       41.90827976747136
H           47.59299938992740       58.11933029666968       43.55509369701844
H           48.34635635148861       61.98815274322056       43.88610634972650
H           47.08192047451312       62.97376047795280       45.75493135632419
H           44.89005752662798       62.02810561934962       46.39002579805681
H           43.96088716861378       60.12889923192587       45.14400088577308
H           45.21697076608493       59.14654647235824       43.27960448328145
H           48.00527449906268       63.75248985944584       41.97053354972890
H           50.22204181358511       64.74399104844272       41.59944894078745
H           51.70736513383965       63.83453959939467       39.84625192895425
H           50.95263147984772       61.93614680648558       38.47468146030295
H           48.74649675416452       60.93587065471876       38.84765682131304
H           44.15185298752199       62.64867060557335       37.17706784593401
H           42.63145719913327       64.44815402702564       36.50112886069199
H           41.17198910651178       65.53335536537641       38.16864561584490
H           41.26592939843442       64.81181585648788       40.52759446807047
H           42.78985105103757       63.00500999840844       41.20431650125165
H           43.82241844745655       57.67208021687526       40.52031792813339
H           43.49370206914550       57.04310471152782       42.86132668916935
H           42.01042500012804       58.38665313527228       44.32010623956934
H           40.89459514395161       60.37663043845969       43.41065848503214
H           41.19560656726158       60.99439479331555       41.04432524960750
H           40.44911390590581       59.90814670584959       36.35508629887065
H           38.85836433026097       61.77018097936653       36.28716203764901
H           37.40793716075452       62.23714751788216       38.22737855238320
H           37.55853355530846       60.81019147304657       40.23672767311363
H           39.16132274106563       58.95050776796668       40.30985812234245
H           43.20476536118226       54.48334623018845       36.65202309571993
H           43.37317259039806       53.17641255990426       34.56668516627050
H           41.37029995712585       52.78624494574019       33.19206338965667
H           39.18574313330133       53.67278194769354       33.92476641436377
H           39.01893985623353       54.98610401843857       35.98890956209537
H           42.53442593799024       52.17983214244758       38.24769244480823
H           44.81190240849340       52.01697571991852       39.18169955684349
H           45.42034823001258       53.32911900843946       41.17140070756555
H           43.74737540930589       54.80802032757873       42.22260387985504
H           41.48789286790968       54.96992672675134       41.30386529285587
H           37.31664059231608       50.50384907552711       40.81831479445228
H           36.02495471812093       50.06986066420962       42.85051078511955
H           35.20746056950016       51.94327605705003       44.23471771331288
H           35.69837890062415       54.26460559419301       43.54793827086917
H           36.91352600370951       54.70219888526461       41.46348864697227
H           36.74690216787502       53.81363423020720       36.58261689749286
H           35.44190832204951       55.88804678808690       36.49124056359452
H           33.51455393179264       56.20840119758287       37.99627318787416
H           32.90782254298946       54.43282007363867       39.60109495275186
H           34.22109888184735       52.36083177478046       39.70228784073841
H           39.23789930792942       49.53828384048144       35.04906104859588
H           39.29916733838518       48.66562227436768       32.75934432446938
H           37.23628326512080       47.79317303629939       31.70850010401890
H           35.11922089628255       47.83131548765485       32.96972431108424
H           35.06157150099676       48.68006015430658       35.26573551874985
H           55.94323194180062       63.02376824661496       33.34868924351716
H           57.39675638390516       63.35681450960524       32.40538783857775
H           55.95230652004481       62.72638038720024       31.60943815216246
H           38.16881029689572       49.93462598639071       37.01629549842720
H           36.42306994982339       48.94432586106338       38.67604326592475
H           35.84742242017970       48.00632015141234       37.29607640104597
C           37.28913985119601       46.18690294050518       38.50357323322367
C           38.87424336245590       48.13872872237844       38.85263650657382
C           40.03889950189505       48.68771748367575       38.32700836586649
C           40.92710883017959       49.37391293085226       39.13673043279200
C           40.67867366470224       49.50611666417472       40.49126264130219
C           39.53535400893536       48.94415044262936       41.03209369584701
C           38.63887882012313       48.27743303635987       40.21640583427661
H           40.25441208737089       48.58403568518916       37.27232375267531
H           41.81528053796632       49.81736980137178       38.71090385656429
H           41.37525832655785       50.04399663951182       41.11729110274907
H           39.33038253324985       49.04117937865412       42.08878717113411
H           37.74082010239730       47.86337987953739       40.65148705502302
C           38.37816493238884       45.13704225354838       38.74199495410588
H           36.76512653645912       46.36753081545788       39.44286785737661
H           36.55918408349016       45.79194884687220       37.79276800047495
C           37.84588927832816       43.91477002532510       39.43844791066810
C           36.84827732718409       43.13893519408061       38.85676770713700
C           36.37747000628059       42.00253487209017       39.49116873230266
C           36.90736920546836       41.61879700114437       40.71209120956536
C           37.89000364221116       42.38961670237035       41.30737297100916
C           38.35011118750062       43.53125792971838       40.67528182613678
H           36.44296955492518       43.41296518667518       37.89207554131901
H           35.59588665934209       41.41481545294770       39.02771956801715
H           36.56580697817443       40.71350403237062       41.19353341371539
H           38.29962350789099       42.09895387759759       42.26417483930639
H           39.12392113653745       44.12226727374108       41.14431232738450
H           38.31748842294341       47.28849396894196       36.97796619325098
H           38.80734593999971       44.84576460786371       37.77875549827765
H           39.17542836275912       45.57544012507390       39.34674659734406
C           55.49103503511221       42.26699406816105       30.00243475038487
C           54.61840336903149       41.24323121268520       30.35433046911693
C           54.34842625138312       40.25414407320527       29.41667568553147
C           54.93661010817497       40.28142670992435       28.16398382164833
C           55.81024022874322       41.30142904037912       27.82924599505161
C           56.08495308618366       42.29463427872684       28.75415289949864
C           53.96577740503004       41.20249614215633       31.71577954442968
C           55.02585357576067       41.21811028579221       32.81722339371532
C           52.97644794997159       42.37468274256825       31.81983985464754
C           52.17477115721517       42.47718696155912       33.12802901803586
C           51.30848734792299       43.71378310710131       33.06853567997863
C           50.34631610734722       43.87645402020077       32.07769352667377
C           49.59430259839609       45.03477644163444       32.00092097458086
C           49.77558872937909       46.04634379124390       32.92917280046152
C           50.71374874890935       45.88760425930744       33.93380642108800
C           51.47563953671776       44.73370104115418       33.99644681979353
C           51.33987650490742       41.22397192876353       33.41593293308215
C           50.69126033729370       41.25710829008424       34.80848317664676
C           51.69482533237663       41.54034537369842       35.89419250904648
C           51.47337454462549       42.57952028883717       36.78766119760740
C           52.36298353735241       42.82993599102225       37.81567731353758
C           53.49814703519582       42.05297015051684       37.96163519690703
C           53.74010449932889       41.02890560897957       37.06312818425099
C           52.83863661004892       40.76547107515115       36.04818938646223
C           50.01376676952837       39.90764163352671       35.08322816675319
C           49.23626971871644       39.82845313273506       36.39849005127790
C           47.96335989672285       40.64191455962897       36.45930635876108
C           47.29502544147636       40.70085973202433       37.68114113077212
C           46.09054201398626       41.36346283812767       37.80884815092957
C           45.53591895533119       42.00985363814461       36.71695594601882
C           46.19333129009953       41.97120220628690       35.50182307562241
C           47.38964629957899       41.28381808836416       35.37168656912358
C           48.89798485867271       38.35160137401628       36.71442191258010
C           49.71075426377805       37.78538013713248       37.88210622838599
C           51.17646466727042       37.64148640977186       37.56214048774978
C           51.60822274525962       36.84784104345982       36.50426650614205
C           52.95700650434556       36.65098237681151       36.27273865255058
C           53.89964361093551       37.23827015154534       37.10025149668294
C           53.48373791051780       38.03181346970006       38.15458104866862
C           52.13281014910622       38.23551169599881       38.37517752507020
C           49.15567352367629       36.41294898171636       38.30087894557906
C           47.93558414559798       36.48726654367630       39.23559619680228
C           47.23408207597478       35.15439147802832       39.19253120777942
C           47.81407447730636       34.00725794750856       39.72136282085606
C           47.17514334813150       32.78352127590908       39.62715244332528
C           45.94530765388713       32.68557602845333       38.99807986464563
C           45.35958448332389       33.82144255099470       38.46672001114744
C           46.00115946146734       35.04280952858611       38.56183891813370
C           48.36796964047815       36.89814605846125       40.64855900789829
C           47.28339812123891       36.72991887905498       41.72110525076152
C           46.01917894252648       37.46430492579637       41.35232487839887
C           45.97680597325171       38.85317055055211       41.29006919821471
C           44.79709526333082       39.51243985482534       40.99315171234181
C           43.64371467200696       38.79386069493327       40.72956136495232
C           43.67931517220165       37.41141444031728       40.77102284699316
C           44.85405139367104       36.75383205370316       41.09115126940349
C           47.81456334630182       37.21780771935129       43.07939524322928
C           48.74800266611717       36.20293219347589       43.75088991014243
C           47.96556316817489       35.04873883110206       44.32430097022807
C           48.14584860016370       33.76152159401173       43.83562276943179
C           47.46919355992449       32.68949584171125       44.39097208681773