3258
 energy: -3427.714972341353 gnorm: 0.000701071142 xtb: 6.6.1 (8d0f1dd)
C          119.49540469409789      111.08297915736929      116.85309203912757
C          119.53435066950196      109.61962353359394      117.27436546300054
C          119.53553108370309      108.67787191321852      116.07302707725412
C          119.57876190282417      107.21191114502268      116.49493781488252
C          119.56954783459551      106.26018501601405      115.30178335281890
C          119.62842022768102      104.79921660529023      115.73974862446622
C          119.60521484018838      103.83391658037314      114.55801045661669
C          119.70233725865455      102.37834234480304      115.00765057452071
C          119.65943281026739      101.40556966745925      113.83267636676605
C          119.81937010757463       99.95391495455617      114.27755099555081
C          119.75305073355563       98.98496142268573      113.10027823445962
C          120.00324864161914       97.53785320840200      113.51723162194997
C          119.92175679682286       96.58311627823244      112.32875282519153
C          120.29609743433615       95.15028277982032      112.69816530716146
C          120.23547364161101       94.21702816391431      111.49069123973273
C          120.70953684643322       92.80588239220091      111.82934812075440
C          120.81748583154760       91.89103014061052      110.60827365191956
C          119.46922926302672       91.57142140831898      109.96729478393796
C          119.60092903675182       90.53717281062684      108.85179293095716
C          118.25407213050495       90.07618224612756      108.29339163961670
C          117.51774521905128       91.15249840420887      107.49906874897098
C          116.22561854814059       90.60743893373866      106.89659677879989
C          115.50069559525468       91.59861293343086      105.98815051212264
C          114.92788276564774       92.81196411185503      106.71811481183231
C          114.10442958187151       93.67450947373324      105.76624526752587
C          113.38822162780568       94.84962924407837      106.42801757740727
C          114.30358864159808       95.98091420487189      106.89020403035197
C          113.48534116964399       97.21360916033477      107.26829511433334
C          114.33603560859511       98.38114141648440      107.76119007187258
C          113.48154084592176       99.61562785333007      108.03909368985342
C          114.29342272891878      100.79899921545002      108.55964367263377
C          113.41472152289538      102.01850607624137      108.82780840329471
C          114.20271041228550      103.20364549265042      109.37990109885803
C          113.30356542413755      104.40142731515186      109.67590932180688
C          114.07926485959979      105.58974256468400      110.23810439934255
C          113.16951406035497      106.77167459171596      110.56306171593759
C          113.94593653945218      107.96378079250429      111.11571215216267
C          113.03751933650537      109.13881445098552      111.46760823501243
C          113.82654413809736      110.32938750273541      112.00518192518331
C          112.93155353414838      111.50632438824351      112.38332056203237
C          113.74132134880968      112.68498317047687      112.91655493562209
C          112.86537360712256      113.86496888208075      113.32701637402330
C          113.69231806950839      115.02367515656606      113.87868702941775
C          112.82273568774596      116.18977162210540      114.33733474298496
C          113.63850963899077      117.33330999143065      114.93731456466236
C          112.73292212108302      118.44792913113579      115.44860919418078
C          113.47771745578693      119.60984619630155      116.10368115449761
C          112.47601312731651      120.63865142689426      116.61914229427235
C          113.07119732142453      121.75100710596827      117.47592928702946
C          112.00034423620936      122.75144045088946      117.92023696864437
C          111.05645384886172      122.17866421387815      118.97689738244931
C          109.79705597512670      123.02157687760004      119.16409116473709
C          108.76239562813696      122.35594424901787      120.07507287010624
C          108.09269605870598      121.13797208572251      119.43856275110603
C          107.04702936798076      120.50536635452644      120.35382955451824
C          106.34880300135100      119.29263102636773      119.73402435948925
C          107.22743556820247      118.04659745026535      119.62097416031799
C          106.45241900384396      116.87244682535172      119.02356190532592
C          107.31313368322314      115.62969065987757      118.80283106911463
C          106.51625292339955      114.49894615574699      118.15328108601884
C          107.36775435854740      113.26977201647374      117.84191554386364
C          106.55628335123383      112.16847588016904      117.16110782068411
C          107.40167461004461      110.94676334204517      116.80673113713198
C          106.58287945548038      109.85378116741093      116.12167459898511
C          107.42823186787300      108.63642638167542      115.75237858545668
C          106.60803795746472      107.53653817918270      115.08028775207674
C          107.46131127445778      106.32756646241219      114.70218129054393
C          106.64738120095541      105.21056109242230      114.05092564001025
C          107.52085324536800      104.02140247016840      113.65723434078895
C          106.72975016020033      102.88680274420088      113.00830708592774
C          107.63857077345598      101.73143905289746      112.59427042350239
C          106.89552557481639      100.60395693201308      111.88026978670364
C          107.84801643314196       99.49446651873448      111.43710332322401
C          107.16633443887903       98.41957744966328      110.59404267455307
C          108.15836039010685       97.38104822902906      110.07212537512817
C          107.48257768126504       96.33336904648311      109.19029321641480
C          108.42852460236969       95.23726136170504      108.69516694725972
C          109.37949857594838       95.65930728922356      107.57194836044123
C          108.68952434581271       95.80571346726761      106.21814051528125
C          109.67658600731046       96.12369189800012      105.09705234490977
C          109.01110044719022       96.13546312259861      103.72146753913825
C          109.93268227054874       96.69727067587337      102.64077406158995
C          109.26566397330649       96.71602134985298      101.26621745638927
C          110.09342398887304       97.42120795642249      100.18892922473164
C          110.18635232851921       98.93305016265876      100.38505549384381
C          110.95628950737085       99.62416111012368       99.25901509905945
C          111.46084163192653      101.01594591355230       99.64497548594342
C          110.35470546207392      102.02822315887873       99.93544189059658
C          110.93050370267876      103.37548297714355      100.36763815744541
C          109.84832897620259      104.40723158033650      100.67709991098255
C          110.43285913951846      105.71635801727452      101.20345556046286
C          109.35530937442257      106.76193293291750      101.48109968471108
C          109.92651292726221      108.03228163634004      102.10659936306890
C          108.85563049279965      109.09279880563392      102.35435505023383
C          109.42096010300183      110.33184457786113      103.04443856656198
C          108.35582783613785      111.39647141321134      103.29782827386791
C          108.92596941919301      112.61986101530361      104.01135051239720
C          107.86510125106700      113.68161298268983      104.29163746851216
C          108.44730732499923      114.89942255001667      105.00479506450476
C          107.39206193377369      115.96058826774582      105.30598168398417
C          107.98753125385075      117.18396711647428      105.99815828169980
C          106.93728537624966      118.24899078672698      106.30164697785835
C          107.54233527025764      119.48752339185333      106.95718341016762
C          106.49402295744632      120.55793587347759      107.24721303893286
C          107.10484461747517      121.81677707676488      107.85621564725568
C          106.05626959771129      122.88960477430584      108.13582364171286
C          106.67314149045562      124.16205517564062      108.70829572454365
C          105.62962302060758      125.24112952141594      108.98241286000538
C          106.26003062077928      126.51020788200366      109.54664697647496
C          105.24234020169898      127.62596351280251      109.76415527557894
C          105.89006003960733      128.86766069409512      110.36992843088832
C          104.87918445859189      129.97501622564761      110.65973712198060
C          105.46275375469885      131.11794688268867      111.49018622937207
C          106.49808287178008      131.95825811041277      110.74710789642756
C          107.04720972266409      133.07631714311873      111.63081765136408
C          108.04001813605058      133.96433221337898      110.88498984682120
C          108.58409553272534      135.11511120744450      111.73258451434788
C          109.46733382194689      134.65352092997409      112.89023135778740
C          110.10722951290326      135.82990642046107      113.62391571139617
C          110.95463869001793      135.36954717224435      114.80419505036916
H          110.73155158508678      136.39473790847148      112.92703956849742
H          109.32333830118753      136.50197671018881      113.98192214951753
H          108.87339720437441      134.07719470664483      113.60105226565177
H          110.25443640255159      134.00144288546207      112.50432229197803
H          109.17089283689805      135.77451645124970      111.08728011361154
H          107.74924161876621      135.70085202405949      112.12615596581567
H          108.87507770141748      133.35679556249428      110.53013005305496
H          107.54341039330799      134.38279216883592      110.00530688500869
H          106.21887274550140      133.69027763314742      111.99413065124932
H          107.53392784334905      132.62907548041676      112.49935864681611
H          107.32613152839323      131.32466155465869      110.42302992441056
H          106.04020314779125      132.39042810869361      109.85351218687738
H          104.64775343187321      131.77234021733241      111.81052825486930
H          105.92147134209372      130.70403764538619      112.39184670964444
H          104.48763750634839      130.37290707766508      109.71988291131856
H          104.03968249553377      129.54643069489435      111.21260011288288
H          106.38219506646709      128.58430306546208      111.30313912860946
H          106.66011045114789      129.23722548968783      109.68925669892994
H          104.77970124044650      127.88742188538785      108.80854686479653
H          104.45111470999100      127.27031028428104      110.42725060229785
H          106.74854980120620      126.27767948316027      110.49650895764823
H          107.03402642890647      126.86174350971753      108.86258193924451
H          105.10610256907302      125.48230582586774      108.05294888387289
H          104.88489253139227      124.85955396782236      109.68366264273756
H          107.20030507712642      123.92429627580159      109.63585827229807
H          107.41540641711481      124.55052563245354      108.00716126003682
H          105.53209712977474      123.13179177598499      107.20682446940184
H          105.31376023580954      122.49854711329201      108.83430878159042
H          107.61472410774816      121.55893100436532      108.78844129117503
H          107.86023522398948      122.21840407936335      107.17636941423720
H          105.98366602393070      120.82252706132162      106.31671259820477
H          105.74102964259404      120.15390696051600      107.92708088558349
H          108.03299650847063      119.20034565139606      107.89123918601676
H          108.31266089762426      119.90377655093017      106.30305783750163
H          106.44293016621926      118.54235079894148      105.37117433918807
H          106.17234462149293      117.82802545711907      106.95771225361057
H          108.46592816363318      116.87364241194190      106.93097548196587
H          108.76690589066568      117.61470029327440      105.36422996904281
H          106.91684906944877      116.27258147396303      104.37162591167267
H          106.61349644205927      115.52879526631654      105.93882599569346
H          108.91171678025003      114.57853199242111      105.94115595080791
H          109.23617548550963      115.33753060711999      104.38777524093609
H          107.41191382988836      113.99862186579669      103.34799059931289
H          107.07100265681176      113.24843324288835      104.90425818154148
H          109.37660191103092      112.30444531415083      104.95636161245662
H          109.72345831148245      113.05518328445702      103.40362641186476
H          107.91747679302213      111.70479766254991      102.34422933515049
H          107.55098400599076      110.96882309782210      103.90058144016095
H          109.86777723577498      110.03663459723748      103.99776614877655
H          110.21992907326425      110.75607968850881      102.43135547310202
H          108.40438037301919      109.38054900247397      101.40083785895054
H          108.05896657373428      108.66993185629444      102.97147666428990
H          110.40795773444516      107.77850727912453      103.05500761738263
H          110.69693852283780      108.44375616923483      101.45027938543141
H          108.84703717435168      107.01370166699770      100.54723595519231
H          108.60816890319349      106.33383209080486      102.15379629611355
H          110.98602592022934      105.51618982346862      102.12508104783115
H          111.14454927103935      106.11425976199632      100.47543244592163
H          109.26978975439317      104.60819792266632       99.77305989295859
H          109.16100602582335      103.99725846455550      101.42246135193936
H          111.54880167192178      103.22708080230295      101.25732656236070
H          111.57917757709438      103.76187563129456       99.57739677811725
H          109.74099466314676      102.16485367860177       99.04213758865049
H          109.70757950097195      101.64997266033191      100.72866689273357
H          112.09862352910223      100.92330846886279      100.52823368966611
H          112.08186526310170      101.40173178685991       98.83255348017629
H          111.82260453196828       99.00926770287971       98.99833192547251
H          110.32398157908183       99.69411913650109       98.37027470003059
H          109.17904972095845       99.35015836310434      100.45049566820884
H          110.69483358697583       99.13962430590499      101.32869004257623
H          111.10228067759928       97.00108647067847      100.17902404495439
H          109.64945378600207       97.21709084824695       99.21062029797662
H          109.08142103255094       95.68523375262411      100.95108539092153
H          108.29047458814176       97.20329938801819      101.34460758823163
H          110.21787424442205       97.71108025644033      102.92677793188902
H          110.84466060356263       96.09804601985752      102.59034184107779
H          108.70848807552559       95.11876572975969      103.45627078531179
H          108.10553586326473       96.74540019914606      103.76470785267489
H          110.13065110466415       97.09987521280486      105.28781138916435
H          110.47826677827406       95.38090845176539      105.10079114589094
H          108.16449653261049       94.87572199065742      105.98294621963927
H          107.94459254603849       96.60082436962453      106.27047924931999
H          109.87293543881493       96.59779328778075      107.83210517948574
H          110.15637122777969       94.89654612438382      107.47293312750710
H          109.01624123939060       94.87897175351100      109.54382308362695
H          107.83043977045477       94.39417779034429      108.33751518625765
H          106.68345650716032       95.86151419711496      109.76815454061152
H          107.01997336140592       96.82716913762560      108.33492699600970
H          108.93739282844403       97.89409736515736      109.50423155940327
H          108.63823717472758       96.88373168420502      110.91862104466779
H          106.39451472652809       97.92074317685233      111.18654143343447
H          106.66810923410615       98.89466125581160      109.74520218221524
H          108.65464514176296       99.93905939007556      110.85038579100205
H          108.29998273183215       99.03153334103315      112.31795334771196
H          106.12719176708642      100.19002821806529      112.53998211223411
H          106.38429840003701      101.01036292434139      111.00392765465547
H          108.41430849873197      102.11661688771278      111.92893309342686
H          108.13559630417626      101.32994317461028      113.48082817428215
H          105.96920849394672      102.52320613377496      113.70558099138475
H          106.20515634526970      103.26813996034294      112.12856700237226
H          108.28996048036325      104.36098609896179      112.96007478679857
H          108.02832498510834      103.64006077196755      114.54709511439445
H          105.86954588595188      104.87618495371079      114.74341050300235
H          106.14292092147022      105.59975057686206      113.16285378638719
H          108.24653926075830      106.64549553684692      114.01310573618220
H          107.94834201360912      105.93810115227423      115.60024572980284
H          105.80855838336171      107.21803266475835      115.75511425544146
H          106.13103861093077      107.93811412627934      114.18254514460413
H          108.22965221524714      108.94748388378275      115.07917194577203
H          107.89373296313452      108.23488939493184      116.65677987898127
H          105.77075667629438      109.54206295062583      116.78423181507198
H          106.12275015276180      110.26134601601973      115.21777849795662
H          108.21444253086229      111.25307485065518      116.14505488698174
H          107.85175280400937      110.54257703257986      117.71793728056853
H          105.73820980658004      111.86326239585125      117.81912059061193
H          106.10424148927649      112.56845269587168      116.24974468384251
H          108.19298940735132      113.56174098778865      117.18913670296938
H          107.80096660690755      112.88231602332188      118.76861951171475
H          105.69336020185139      114.21121509129239      118.81282421958208
H          106.07057740361240      114.86651067387315      117.22526797294309
H          108.15773837181983      115.88726489356854      118.16053277769731
H          107.72006436132268      115.28964233855672      119.75982656293587
H          105.61557286886014      116.62029390115768      119.67979235383893
H          106.02589734382886      117.18059142049241      118.06537356813308
H          108.09263419638671      118.25755864521263      118.99088293384779
H          107.60199605271893      117.77209811132366      120.61152163950794
H          105.47458280027155      119.04623681011692      120.34184524422369
H          105.98327853950840      119.56374728841148      118.74035421465921
H          107.51934060050235      120.21090251240449      121.29420595716607
H          106.29047525096135      121.25818063594988      120.59347339291507
H          107.61456952415908      121.44198426467638      118.50453747575128
H          108.84841326094509      120.39027754201399      119.19682256585189
H          109.24666246905907      122.06180873807412      121.01029956712665
H          107.99031808810540      123.08903376805051      120.32447129215724
H          110.07503399184921      123.99242629891309      119.58481232646353
H          109.33974238325295      123.20852120759039      118.18930255495533
H          110.76321430236540      121.17329030259610      118.68009594839936
H          111.58298447597133      122.09646146407140      119.93128870016987
H          112.48148027101011      123.64878647222923      118.31488437225767
H          111.42005772322540      123.04957120267021      117.04369407519351
H          113.55223483746015      121.32021047293424      118.35722860619551
H          113.83749266323085      122.28004091780937      116.90226631468018
H          111.96946400696268      121.09231433102605      115.76507054363998
H          111.72420390331212      120.10708746106681      117.20217477782766
H          114.08321880384813      119.23724837277477      116.93467094240116
H          114.15448207983793      120.07374224430767      115.38140009970850
H          112.14373487115130      118.83596588214782      114.61445665559108
H          112.03522795163252      118.02516572636129      116.17570231462025
H          114.24666119625361      116.95176367150074      115.76227913221165
H          114.32331221383471      117.73004261428433      114.18329485453307
H          112.24852373307600      116.56591185970048      113.48627728208031
H          112.10786360123166      115.83265100356792      115.08283241579986
H          114.28832039382989      114.66773849474369      114.72391709738295
H          114.38975594427716      115.36874776568821      113.11138956090311
H          112.29234063562424      114.20900098939158      112.46175654820033
H          112.15017194059513      113.53849900696643      114.08597140022297
H          114.32474676982748      112.35573256015151      113.78084152436568
H          114.45160235080454      113.01059690204536      112.15293390964308
H          112.36276950541472      111.82500405057566      111.50572423881994
H          112.21316545851752      111.18713832604629      113.14205266944194
H          114.39594082377499      110.01504352054896      112.88389219695297
H          114.54979869558497      110.65378761143381      111.25337795104663
H          112.48322079664074      109.44543785578738      110.57672849171250
H          112.30741191821870      108.82077443312403      112.21541027779845
H          114.49555324062459      107.65352434837767      112.00813981424336
H          114.68633425648473      108.28764679582697      110.38029667769396
H          112.63904542375805      107.07642117856446      109.65744796319976
H          112.41999540209785      106.45917661910303      111.29390811454937
H          114.60732693354254      105.28088158885660      111.14385597713562
H          114.83783728112398      105.90375598060295      109.51677259490516
H          112.79816052179683      104.70614918461679      108.75640626968857
H          112.53407846049616      104.10366871471363      110.39230024550969
H          114.71542254082387      102.90162137796946      110.29671809937784
H          114.97382822536579      103.49518302233706      108.66224109840776
H          112.92630814023495      102.31758365319098      107.89751649530820
H          112.63227449465140      101.74577212554915      109.54055073706895
H          114.80293519447457      100.51020145897323      109.48247382472242
H          115.06667169280691      101.05923528264431      107.83248913379464
H          112.97526633554686       99.90868471976587      107.11625671294590
H          112.71179337034621       99.35969694924354      108.77137755894593
H          114.86440120107360       98.09026442623005      108.67270848567674
H          115.09295526407416       98.62421355400437      107.01152271117328
H          112.91570311900800       97.53692107851072      106.39327757475502
H          112.76662097943876       96.94029583449900      108.04391400767636
H          114.89852571604510       95.65843663750954      107.74745273947855
H          114.99564199233478       96.23899191138946      106.08566720856471
H          112.68218550965493       95.26481584299806      105.70370106119583
H          112.80808944319610       94.48797132729017      107.27989081492809
H          114.75142258449293       94.05374980049618      104.97306713328921
H          113.35059542102387       93.03557108462566      105.29676176479309
H          114.29409440137043       92.47267454348422      107.54037587380442
H          115.74109373513153       93.40378290445391      107.13895395978393
H          116.18913321643413       91.93744884717509      105.20959424924874
H          114.68075978298123       91.07389695475445      105.48919702599731
H          116.46365388647904       89.71409209064045      106.31182848083728
H          115.55429991072469       90.30033356907914      107.70310597129075
H          117.28826642129729       91.99485996820131      108.15003724744741
H          118.16607976979330       91.51184565929560      106.69758680414590
H          118.42475940666010       89.21410703271926      107.64148449975013
H          117.62150455751383       89.73772892027146      109.11845580007581
H          120.20662601058457       90.95170160858541      108.04233713669612
H          120.13229388740515       89.66494319818260      109.24379436058815
H          118.79191330334218       91.18483937055011      110.73357768243532
H          119.03649221262084       92.48616737390424      109.56199910484887
H          121.46817970636079       92.35703484191602      109.86505004293055
H          121.29111705493941       90.95460947578569      110.91723310534273
H          121.69407236031013       92.87181466023496      112.30159727110873
H          120.02873447585850       92.35834050909868      112.55831343806031
H          119.20905190333900       94.18205185521786      111.12125876683187
H          120.86550484761456       94.62122469202446      110.69497331366360
H          121.30848255982544       95.13958238826363      113.11227054338819
H          119.62179254221041       94.78391916579110      113.47664324280085
H          118.90649554556616       96.59819530601884      111.92661023967781
H          120.59662326170421       96.93263365278391      111.54379139325101
H          120.99341300363130       97.46115105683106      113.97572434016824
H          119.27064208813208       97.24286558002578      114.27310658747109
H          118.76969897536627       99.05921718015557      112.63201892673797
H          120.49913722615298       99.27420072638570      112.35614490290519
H          120.77881247734588       99.83699176903336      114.78977423206479
H          119.03411551230710       99.70572254701068      114.99662566391898
H          118.70818799449705      101.51834725620816      113.30914432150749
H          120.45776365220421      101.65504302986817      113.12920660740494
H          120.63348357131069      102.23392594798128      115.56322901291631
H          118.87808668196749      102.15591062812112      115.69060989974174
H          118.68007087742974      103.97604583219075      113.99623459555180
H          120.43869677359879      104.06143944425212      113.88829676208377
H          120.53883295235995      104.63424065144430      116.32318116615494
H          118.77923042649610      104.58610109967925      116.39447028710943
H          118.66186117710174      106.42440977741489      114.71787731101139
H          120.42394447870178      106.47994219542521      114.65579090345234
H          120.47796614342901      107.03443584400929      117.09183041109073
H          118.71697973332523      106.99638455208010      117.13216795256051
H          118.63644274995701      108.85409620478697      115.47911532706982
H          120.39999249957967      108.90018075774016      115.44121415567153
H          120.42823860421821      109.43804918394153      117.87705283744798
H          118.66636241640467      109.40053155518166      117.90124205947491
H          119.49403218030938      111.73475396246805      117.72412506650889
H          120.36222713615359      111.32862826896262      116.24222393121789
H          118.59797926955933      111.28470772605814      116.27329125206947
H          111.41669134624711      136.21949989402282      115.30125725831557
H          110.34012745923617      134.84101931350335      115.52967009429673
H          111.74283071583208      134.69864179974610      114.46827000151151
C          115.68600690278880      111.74881109982812      100.20950717660567
C          116.32234578404913      111.04079064742054       99.02140104251038
C          116.43385800383622      109.53344247318195       99.23870435757824
C          117.03059762205248      108.83642393271099       98.02000469600580
C          117.23145267566875      107.33551061885896       98.21805671364299
C          117.83045075653222      106.69989831374430       96.96617575132478
C          118.10010428864796      105.20320866834442       97.10331757372425
C          118.74414456318040      104.65747567980814       95.83030876636388
C          119.08976123253021      103.16990132356010       95.88765331193126
C          117.86008734592247      102.26290341933134       95.94148773535461
C          118.15824849249915      100.83052001725591       95.49756887208979
C          119.13044788294891      100.10058753957689       96.41996436833833
C          119.33620403919326       98.64631227775216       96.00146849120894
C          120.17881108693787       97.87880839166766       97.01587463812515
C          120.34514927392355       96.40693842751149       96.64530026510423
C          121.06279328555448       95.62954994088527       97.74571805663970
C          121.14362529967445       94.13045744739642       97.46698705846403
C          121.63335294551669       93.35431043730614       98.68717165553775
C          121.58200312516028       91.84272415281541       98.48062434741358
C          121.89166001917428       91.08276390479520       99.76842423186375
C          121.77099165911144       89.57080478493275       99.59501621750087