3258
 energy: -3427.709302121530 gnorm: 0.000903664411 xtb: 6.6.1 (8d0f1dd)
C          119.49535496208466      111.08247999696597      116.85201163397907
C          119.53465633874809      109.61931568555697      117.27394078959730
C          119.53596248640598      108.67766634854775      116.07238994924826
C          119.57956623773329      107.21175371620076      116.49495623352304
C          119.57024766062607      106.26006559647735      115.30156156526657
C          119.62947889759394      104.79907145684859      115.74000897459504
C          119.60590734319526      103.83385009656371      114.55795248611474
C          119.70350342590157      102.37821109766998      115.00797026761325
C          119.66017400004853      101.40553586373846      113.83265350146078
C          119.82058635206579       99.95380701907665      114.27783167220092
C          119.75374389163636       98.98495822903170      113.10022709089768
C          120.00426199842461       97.53777435491980      113.51747929577992
C          119.92236860023438       96.58319305568418      112.32866346213099
C          120.29669741054164       95.15021122934272      112.69826105523232
C          120.23574905217245       94.21741426613956      111.49026138068105
C          120.70977328082562       92.80607024540444      111.82890541415209
C          120.81824087437660       91.89179199538926      110.60755871380226
C          119.46949667965828       91.57195950623351      109.96727445135632
C          119.60157691359905       90.53772838289038      108.85158338692952
C          118.25477997843892       90.07591596222706      108.29379541153983
C          117.51837546824815       91.15260144645038      107.49954841576464
C          116.22604472737991       90.60706259664650      106.89741053287867
C          115.50099210178064       91.59804504294046      105.98853097172882
C          114.92836261947937       92.81172829728943      106.71880725937876
C          114.10501326668142       93.67436565359512      105.76652089919490
C          113.38840951680713       94.84964812072667      106.42834582079215
C          114.30425705916961       95.98111223634147      106.89012984746880
C          113.48531484860318       97.21376118587544      107.26821135877135
C          114.33675331748704       98.38131686909207      107.76079272422996
C          113.48127968650422       99.61559067289835      108.03863656335605
C          114.29386306021468      100.79887397425551      108.55939662768424
C          113.41457212447709      102.01846629062186      108.82746358590597
C          114.20342804594412      103.20356080722377      109.37956065860867
C          113.30360265761125      104.40137664311041      109.67549554986672
C          114.08007612519293      105.58973307621902      110.23762669266958
C          113.16963189822874      106.77164208947890      110.56264125899719
C          113.94680363940270      107.96381725400802      111.11517542532715
C          113.03771014486868      109.13879715535622      111.46723428331984
C          113.82746714590319      110.32943279537041      112.00467929742354
C          112.93179425637376      111.50628680914240      112.38303394858453
C          113.74229549953664      112.68497929057490      112.91615899911271
C          112.86564479816295      113.86488034835247      113.32682883886297
C          113.69330877741240      115.02355299837646      113.87852181675915
C          112.82304518992412      116.18963374045441      114.33723370407751
C          113.63941625807463      117.33314265925293      114.93736539024765
C          112.73324679762355      118.44783031065332      115.44863438354869
C          113.47853479058411      119.60979132701783      116.10387541023981
C          112.47619238642257      120.63845074829379      116.61941400468889
C          113.07154918493785      121.75101577225438      117.47645594296318
C          112.00040099767395      122.75153033663808      117.92037004113035
C          111.05664182248131      122.17826739919695      118.97732826807255
C          109.79726720217766      123.02190625642837      119.16397813312261
C          108.76280578626273      122.35632128807622      120.07547772423507
C          108.09290819513680      121.13820037734673      119.43860018236002
C          107.04745109430974      120.50545706522529      120.35454468449309
C          106.34887070682623      119.29289494578134      119.73410392425720
C          107.22797240655269      118.04676489770669      119.62080715759494
C          106.45234088223306      116.87262104314365      119.02332852608821
C          107.31362275279038      115.62979808842248      118.80266652149473
C          106.51604849411275      114.49907056117344      118.15309542611520
C          107.36822806999886      113.26983359639600      117.84188074654115
C          106.55602213702329      112.16857684983576      117.16102197803507
C          107.40207856546662      110.94676304673652      116.80683028884060
C          106.58255775752578      109.85387429931593      116.12161683637891
C          107.42854560715078      108.63637734736452      115.75254550522466
C          106.60763500301221      107.53660210381544      115.08023411357641
C          107.46154553998304      106.32747414204759      114.70238047310997
C          106.64690443240265      105.21059389863490      114.05085084186804
C          107.52105412615950      104.02130343001085      113.65745622943248
C          106.72927330268350      102.88683739822621      113.00818623824269
C          107.63883654121423      101.73138478343672      112.59451509033239
C          106.89516504648903      100.60407890804902      111.88005952833134
C          107.84831502037484       99.49445439475468      111.43734918097680
C          107.16613942228742       98.41986191810467      110.59365638249976
C          108.15888801201174       97.38129903053644      110.07216005326336
C          107.48238000328026       96.33382005633815      109.19001565714558
C          108.42817062422208       95.23724184987316      108.69499524322765
C          109.37931339975773       95.65995488284646      107.57180111396552
C          108.68840374942627       95.80593266140039      106.21805226194483
C          109.67578303304336       96.12403731207965      105.09686459502487
C          109.00973127106298       96.13541026868722      103.72117781370839
C          109.93230831024704       96.69720865489366      102.64085593108746
C          109.26487401741873       96.71618896376729      101.26611126902779
C          110.09308593916734       97.42143634616650      100.18888466061486
C          110.18593688922179       98.93360279748998      100.38530477215851
C          110.95570850144388       99.62420003434879       99.25837308435716
C          111.46063272041955      101.01607828581639       99.64441554506453
C          110.35398666703985      102.02821762896620       99.93526470656103
C          110.93067664692238      103.37559112127710      100.36710361466017
C          109.84795998146949      104.40718292935838      100.67678665403301
C          110.43333220410102      105.71641724839321      101.20285616164753
C          109.35500670931518      106.76164978115590      101.48067650430998
C          109.92673213295480      108.03211652512880      102.10632685880860
C          108.85516150734145      109.09244224490243      102.35425048596382
C          109.42117377216867      110.33162173980999      103.04437661470305
C          108.35541559118971      111.39617947050057      103.29778249213712
C          108.92625015195927      112.61964514125029      104.01143807690624
C          107.86478887967789      113.68139413645557      104.29161754015156
C          108.44769430836061      114.89923362459930      105.00496713123836
C          107.39188868672301      115.96044447482370      105.30595823469200
C          107.98804500875092      117.18382992016620      105.99835759224626
C          106.93724956984047      118.24891188050947      106.30161733692519
C          107.54299544139025      119.48742615143344      106.95740998777562
C          106.49416847673515      120.55789269834928      107.24728410016633
C          107.10567201654212      121.81671765654292      107.85656279651937
C          106.05654668771329      122.88954760786616      108.13597271795375
C          106.67400888431149      124.16204381707676      108.70865420627734
C          105.62989748996876      125.24112579151756      108.98238570991268
C          106.26069752362008      126.51050490999788      109.54641999070253
C          105.24242536172005      127.62628162832820      109.76352770362382
C          105.89034143526990      128.86809183026045      110.36959108034949
C          104.87918878591049      129.97572782556142      110.65891839181496
C          105.46350456631691      131.11834518075045      111.48956615075200
C          106.49972352475568      131.95759291897679      110.74631450451010
C          107.04846734402663      133.07557814137036      111.63047645006165
C          108.04125456451642      133.96342821441678      110.88434547743286
C          108.58477914094726      135.11378721791280      111.73257452875950
C          109.46722552718224      134.65191811786318      112.89068579404437
C          110.10667302633614      135.82870226319292      113.62400821177920
C          110.95348563965150      135.36830714428740      114.80443575346010
H          110.73116148765432      136.39290201020989      112.92721440709775
H          109.32258441232196      136.50040515518012      113.98152829711242
H          108.87266353785049      134.07605557555758      113.60145249902715
H          110.25440004549577      133.99939840362782      112.50561651268646
H          109.17200981409147      135.77266256562837      111.08769838423373
H          107.74973311900966      135.69888895603307      112.12580226758696
H          108.87602136132924      133.35585156600567      110.52911001051919
H          107.54389111807268      134.38163431231854      110.00538404231109
H          106.21986704877644      133.68905420099821      111.99287357642075
H          107.53460635941626      132.62799536196684      112.49920476762451
H          107.32737320695533      131.32318403021031      110.42304142541228
H          106.04186430232960      132.38923531695653      109.85302715603380
H          104.64826438284602      131.77252836535999      111.80836814803925
H          105.92083058106780      130.70414651463065      112.39181460637882
H          104.48961191127219      130.37322402903069      109.71866592210965
H          104.03916263094915      129.54708912847190      111.21102601270891
H          106.38254475043415      128.58408063607339      111.30261354637638
H          106.65965312493667      129.23691501696487      109.68851394677668
H          104.78134777668322      127.88720387952844      108.80767512413284
H          104.45090562297862      127.27002039022925      110.42597895395697
H          106.74964543782927      126.27763372292002      110.49596002470403
H          107.03370350465831      126.86145585494852      108.86158571407917
H          105.10758597382117      125.48186547266245      108.05278436447833
H          104.88496728406052      124.85942119876394      109.68332657723295
H          107.20130653843434      123.92416659767360      109.63607140523472
H          107.41526252592278      124.55017291936433      108.00705799324879
H          105.53363630103149      123.13182535388087      107.20696173673301
H          105.31380017197463      122.49839405132761      108.83407231347353
H          107.61547094373344      121.55883115685245      108.78866991382273
H          107.86007621583748      122.21813870956007      107.17639064069219
H          105.98506998666547      120.82264016188468      106.31683899425815
H          105.74102675359200      120.15383237258776      107.92683099650625
H          108.03347657445924      119.20012917953964      107.89133170068696
H          108.31242929964128      119.90348176346883      106.30305762450999
H          106.44417601634127      118.54240038937759      105.37122347721605
H          106.17221245689154      117.82800956267987      106.95742479848995
H          108.46628096779594      116.87346122908814      106.93107538519187
H          108.76653337384568      117.61439027805163      105.36422683411899
H          106.91796936555806      116.27261181657643      104.37173445425661
H          106.61326374586532      115.52876377025433      105.93858606857533
H          108.91205565997971      114.57836300454696      105.94120771782821
H          109.23561474628858      115.33722799804481      104.38767991792820
H          107.41289015253682      113.99863159957732      103.34817686760536
H          107.07069515803596      113.24834438340135      104.90406490087992
H          109.37702216654949      112.30435600232751      104.95629908957208
H          109.72269708760922      113.05492443952859      103.40332404697560
H          107.91830977956573      111.70479358307054      102.34448073597316
H          107.55065472346283      110.96867068848981      103.90042571645392
H          109.86833919337163      110.03667715334650      103.99751022681852
H          110.21899081569028      110.75589579921967      102.43076509376651
H          108.40497330230045      109.38055511866141      101.40112518791507
H          108.05862270992107      108.66983918764180      102.97140378137321
H          110.40844516197069      107.77855757288511      103.05453311694249
H          110.69590379716475      108.44386176004123      101.44961513095512
H          108.84751746206904      107.01381527172661      100.54722993408230
H          108.60828731905850      106.33348091280214      102.15353934116924
H          110.98635736005426      105.51639305368208      102.12443910801200
H          111.14376763507485      106.11431109855370      100.47451378247050
H          109.27007396961454      104.60828182537017       99.77304845650525
H          109.16125253757825      103.99744956755777      101.42254699157027
H          111.54912208370624      103.22729923869618      101.25656730256830
H          111.57805624910385      103.76168371024224       99.57646202782996
H          109.74103310591136      102.16497260671228       99.04225656677433
H          109.70739812230696      101.65002167861502      100.72876675930630
H          112.09875060807077      100.92357366120441      100.52740876666124
H          112.08044317822215      101.40192428468346       98.83172048462366
H          111.82174571400772       99.00923958329520       98.99847299829551
H          110.32281166669094       99.69442516226570       98.37091958260618
H          109.17884804083772       99.35040895189319      100.45073960143210
H          110.69454115946824       99.14029666727220      101.32886119097701
H          111.10171599133596       97.00152173740287      100.17966302326231
H          109.64895256690343       97.21816374101992       99.21115743008293
H          109.08165822474940       95.68564901899443      100.95155370886329
H          108.29011940794032       97.20354544023682      101.34511909513010
H          110.21823865864172       97.71062117552620      102.92726680381109
H          110.84336674449355       96.09700055870226      102.59056303442473
H          108.70826484841972       95.11902192420023      103.45608096098388
H          108.10457168765093       96.74545225160652      103.76420780448497
H          110.12980556061049       97.10009153425820      105.28772817666112
H          110.47693960896879       95.38114419615556      105.10055163443077
H          108.16445739837772       94.87594221691877      105.98321710504388
H          107.94400580771334       96.60122453726390      106.27068894063882
H          109.87227347296337       96.59875595804310      107.83139403942725
H          110.15610905440421       94.89759276644412      107.47218016727268
H          109.01608582632501       94.87925281069630      109.54310816974596
H          107.82991065916913       94.39532355626197      108.33648590759555
H          106.68401547070312       95.86226654907001      109.76806126347850
H          107.02043397525560       96.82803898666891      108.33471763836194
H          108.93792409255637       97.89430714754428      109.50445174853613
H          108.63759759621445       96.88385343353647      110.91855980367055
H          106.39501609916260       97.92115484462069      111.18584036896013
H          106.66882731194480       98.89519951018089      109.74467161798189
H          108.65522469814398       99.93885499277023      110.85102427005666
H          108.29874066837627       99.03140286703452      112.31817148489372
H          106.12790157729255      100.19045689011355      112.53978463556057
H          106.38454772007208      101.01070644383076      111.00371411369449
H          108.41489918364195      102.11662261534660      111.92969580128819
H          108.13435346423226      101.32991104142084      113.48121302633096
H          105.96988857278448      102.52348290863996      113.70553209652131
H          106.20516607324481      103.26837488328425      112.12848241905282
H          108.29043288934929      104.36093583471151      112.96071581833625
H          108.02708827908931      103.64007240277111      114.54745468604607
H          105.87021827697649      104.87636690428141      114.74347963989919
H          106.14277425574431      105.59991757898389      113.16285410023774
H          108.24695289364234      106.64538197828024      114.01359864964394
H          107.94717245204228      105.93810933422326      115.60048273751315
H          105.80928229608421      107.21811634400211      115.75523518147050
H          106.13081884522254      107.93820029286346      114.18256873166891
H          108.23002842230758      108.94735887208556      115.07949298007046
H          107.89268036996089      108.23488451514375      116.65686419541937
H          105.77154358844766      109.54206393566676      116.78438253134803
H          106.12247950477713      110.26134773875719      115.21780271199596
H          108.21477342585297      111.25298541489816      116.14517782317186
H          107.85083123574894      110.54259289040367      117.71785929205664
H          105.73905790689247      111.86321673786951      117.81928072061091
H          106.10388674796704      112.56838029965154      116.24974123528658
H          108.19325538758646      113.56172833317075      117.18903757237815
H          107.80014547242115      112.88241450213074      118.76835415137266
H          105.69423032777877      114.21118378408730      118.81296464589499
H          106.07009595528081      114.86641877071293      117.22521113580515
H          108.15798310180067      115.88732710445258      118.16025100396990
H          107.71927265309701      115.28978431774139      119.75934430479340
H          105.61643866724123      116.62029092735914      119.67990467827812
H          106.02535507508082      117.18060449081059      118.06533356364942
H          108.09282872709821      118.25770268532654      118.99049583107968
H          107.60148288195931      117.77208597747514      120.61090198583430
H          105.47517742885265      119.04581756042681      120.34176957215037
H          105.98322317817315      119.56399312024256      118.74047445934410
H          107.52022734309701      120.21012550074870      121.29365856046223
H          106.29085432099757      121.25773798306041      120.59380527951730
H          107.61444986888220      121.44145261229059      118.50445100939596
H          108.84818142892470      120.39017414254607      119.19663281368375
H          109.24735574557513      122.06101701496949      121.00931187927434
H          107.99051385853808      123.08863714397468      120.32439342738169
H          110.07590131470806      123.99153737902139      119.58509271365250
H          109.34002269334529      123.20897943358622      118.18913624805094
H          110.76352703941299      121.17265514915060      118.68087322189061
H          111.58279250853306      122.09739596825287      119.93124674790856
H          112.48147505709242      123.64782103197575      118.31559269358945
H          111.42011994996800      123.04959520173949      117.04382548752389
H          113.55129154580520      121.31961065198453      118.35743801716445
H          113.83690715129154      122.27924391234319      116.90201786305704
H          111.96945676227365      121.09163314784156      115.76519405668948
H          111.72429191542558      120.10625820166534      117.20188031794531
H          114.08275206555314      119.23662585101670      116.93469229958586
H          114.15416626989433      120.07346113696376      115.38129527220914
H          112.14394336359688      118.83560078321503      114.61442832713341
H          112.03540019313945      118.02488250660129      116.17539543110816
H          114.24619722350195      116.95135182944364      115.76234945454327
H          114.32312783657972      117.72978055076757      114.18317921340699
H          112.24885890477047      116.56551554220752      113.48624738650101
H          112.10819214631191      115.83231049706239      115.08249081035702
H          114.28818358365636      114.66740761169875      114.72359912038748
H          114.38950202577377      115.36854606834326      113.11085740636146
H          112.29263932493684      114.20866698242071      112.46171050762077
H          112.15069888901141      113.53813567996791      114.08566026821012
H          114.32479985952889      112.35548195462724      113.78020458491324
H          114.45133458146846      113.01050214866125      112.15213314846352
H          112.36295228240444      111.82469472634543      111.50563192912979
H          112.21383634647562      111.18685899486054      113.14179030427452
H          114.39605537531060      110.01491118333456      112.88311197744606
H          114.54956911628658      110.65378005368814      111.25247879349126
H          112.48335695881981      109.44522029531970      110.57657894049926
H          112.30811516521482      108.82063779223796      112.21517385894651
H          114.49562526739406      107.65350781818235      112.00737794393565
H          114.68614934561091      108.28771228955478      110.37946829297252
H          112.63919877494894      107.07631693220321      109.65724436272060
H          112.42065986456140      106.45919114807958      111.29368462771869
H          114.60727954146847      105.28095818288791      111.14323890785995
H          114.83770151593633      105.90385160805361      109.51613866899937
H          112.79837976627890      104.70614287274135      108.75619170929318
H          112.53466482060665      104.10379785373317      110.39210494582727
H          114.71520074777456      102.90172038826918      110.29629998163641
H          114.97367888015552      103.49520402321066      108.66183505663201
H          112.92650592593615      102.31768237894956      107.89735351224560
H          112.63266760986710      101.74597029434038      109.54041643264082
H          114.80241127135920      100.51022764662603      109.48215871983643
H          115.06629726170283      101.05916061898988      107.83218828511519
H          112.97542476793343       99.90866607315314      107.11594134171952
H          112.71182878623986       99.35944701203540      108.77077848114165
H          114.86436979246321       98.09071816739323      108.67219345282957
H          115.09281398651717       98.62454058702416      107.01087247497766
H          112.91560794278064       97.53708236221610      106.39359099124424
H          112.76734104853814       96.94048793912536      108.04417481495067
H          114.89855733821723       95.65907037677304      107.74734743821611
H          114.99555642435573       96.23933212672823      106.08543026426265
H          112.68247651435725       95.26484637754227      105.70424344057825
H          112.80921841477152       94.48822817963428      107.28058786201710
H          114.75159597490655       94.05397614181544      104.97337522504023
H          113.35093827176793       93.03584154885064      105.29768038126822
H          114.29386250078666       92.47302821205440      107.54030602856109
H          115.74128020055736       93.40381964598727      107.13939803372661
H          116.18891721900305       91.93774253333414      105.21002467989193
H          114.68057983103940       91.07424455122175      105.48993412043704
H          116.46394632917813       89.71497642555030      106.31167971511191
H          115.55450593297380       90.30066518809384      107.70337418905852
H          117.28855187425864       91.99536656607594      108.14993493413640
H          118.16569566160095       91.51240134212654      106.69747329184489
H          118.42488253025790       89.21492145132000      107.64117473163422
H          117.62187908727037       89.73879307675273      109.11846920759278
H          120.20709119960438       90.95215663989653      108.04201745447537
H          120.13202673377039       89.66605989890036      109.24406982766878
H          118.79309341939340       91.18463344346320      110.73343086861252
H          119.03583937185803       92.48672858843079      109.56235330859562
H          121.46810316017911       92.35801849380721      109.86386801918758
H          121.29108787284396       90.95550774105385      110.91604070482457
H          121.69384967753409       92.87254658035125      112.30068808989276
H          120.02809994817729       92.35894717679420      112.55668987536127
H          119.20918922386947       94.18293063709662      111.12070169360427
H          120.86534504018546       94.62186284858718      110.69424418360816
H          121.30879122530726       95.13996653791895      113.11126256735291
H          119.62178585910564       94.78411422587224      113.47567404170699
H          118.90704830517141       96.59858853633321      111.92609728598931
H          120.59689215034474       96.93281687261782      111.54340220851728
H          120.99445241649585       97.46177102242268      113.97413924910936
H          119.27164478433750       97.24298328684705      114.27273129405521
H          118.77030589565402       99.05943592996120      112.63156408079567
H          120.49936639610117       99.27433997786657      112.35573370858270
H          120.78034428076037       99.83759052942062      114.78778506365127
H          119.03569221723372       99.70565006953532      114.99667504496658
H          118.70886090162134      101.51845371612293      113.30862443519587
H          120.45807410108731      101.65515444135126      113.12893457431622
H          120.63509217196709      102.23447330051576      115.56123393696691
H          118.87970687174699      102.15570386085101      115.69090721664075
H          118.68070861904391      103.97604793949361      113.99562137205406
H          120.43899963498738      104.06142364857565      113.88811612559702
H          120.54039611771644      104.63473333836190      116.32118001623171
H          118.78075664885036      104.58581070710218      116.39484835863932
H          118.66260242410790      106.42429722336540      114.71694853900900
H          120.42443459705264      106.47971456100134      114.65576282117422
H          120.47914385725743      107.03487000397637      117.08990145967294
H          118.71817936184227      106.99604242331050      117.13232677071765
H          118.63696635365916      108.85369968826149      115.47770344992286
H          120.40033371325637      108.90000381348646      115.44102757244686
H          120.42908337404793      109.43839786780853      117.87466331708190
H          118.66729989352926      109.39983023727434      117.90132884149786
H          119.49434828026688      111.73423144585171      117.72285119783722
H          120.36192332233770      111.32736259188661      116.24072259709843
H          118.59771552121293      111.28479285694652      116.27240987969593
H          111.41585338242693      136.21828230792366      115.30106163614379
H          110.33893812227640      134.84046665110731      115.53041637308127
H          111.74167355759690      134.69696833664335      114.46894092920988
C          115.68628360681403      111.74751176685659      100.20960013264728
C          116.32338655096066      111.03969042097056       99.02163378031639
C          116.43440347558838      109.53217080117598       99.23857356586655
C          117.03194324579772      108.83598576627040       98.01960818189960
C          117.23223230162817      107.33491176452004       98.21765794812153
C          117.83199474834277      106.69965032948768       96.96587427736556
C          118.10073854314449      105.20273126909561       97.10333533171206
C          118.74444092895646      104.65695892038768       95.83007089061476
C          119.09026744802335      103.16948998886127       95.88741819059042
C          117.86016832999444      102.26281336303239       95.94121318694617
C          118.15809220118564      100.83029141653647       95.49698091342880
C          119.13042139224103      100.10048162590165       96.41967845626857
C          119.33551378749945       98.64586376217900       96.00144794365593
C          120.17839255520421       97.87876573082212       97.01620104357379
C          120.34429752644439       96.40674330380257       96.64514046750527
C          121.06219188769374       95.62940709949473       97.74571825253150
C          121.14338678485858       94.13007611710943       97.46689144638026
C          121.63354484993094       93.35439314910070       98.68755891921174
C          121.58232135540824       91.84262649219166       98.48060636561220
C          121.89236379435908       91.08289679543442       99.76868352382724
C          121.77145924360097       89.57079322333298       99.59492990239438