      -----------------------------------------------------------      
     |                   =====================                   |     
     |                           x T B                           |     
     |                   =====================                   |     
     |                         S. Grimme                         |     
     |          Mulliken Center for Theoretical Chemistry        |     
     |                    University of Bonn                     |     
      -----------------------------------------------------------      

   * xtb version 6.6.1 (8d0f1dd) compiled by 'stahn@M-Bot' on 2023-08-01

   xtb is free software: you can redistribute it and/or modify it under
   the terms of the GNU Lesser General Public License as published by
   the Free Software Foundation, either version 3 of the License, or
   (at your option) any later version.
   
   xtb is distributed in the hope that it will be useful,
   but WITHOUT ANY WARRANTY; without even the implied warranty of
   MERCHANTABILITY or FITNESS FOR A PARTICULAR PURPOSE.  See the
   GNU Lesser General Public License for more details.
   
   Cite this work as:
   * C. Bannwarth, E. Caldeweyher, S. Ehlert, A. Hansen, P. Pracht,
     J. Seibert, S. Spicher, S. Grimme, WIREs Comput. Mol. Sci., 2020, 11,
     e01493. DOI: 10.1002/wcms.1493
   
   for GFN2-xTB:
   * C. Bannwarth, S. Ehlert and S. Grimme., J. Chem. Theory Comput., 2019,
     15, 1652-1671. DOI: 10.1021/acs.jctc.8b01176
   for GFN1-xTB:
   * S. Grimme, C. Bannwarth, P. Shushkov, J. Chem. Theory Comput., 2017,
     13, 1989-2009. DOI: 10.1021/acs.jctc.7b00118
   for GFN0-xTB:
   * P. Pracht, E. Caldeweyher, S. Ehlert, S. Grimme, ChemRxiv, 2019, preprint.
     DOI: 10.26434/chemrxiv.8326202.v1
   for GFN-FF:
   * S. Spicher and S. Grimme, Angew. Chem. Int. Ed., 2020, 59, 15665-15673.
     DOI: 10.1002/anie.202004239
   
   for ALPB and GBSA implicit solvation:
   * S. Ehlert, M. Stahn, S. Spicher, S. Grimme, J. Chem. Theory Comput.,
     2021, 17, 4250-4261. DOI: 10.1021/acs.jctc.1c00471
   
   for DFT-D4:
   * E. Caldeweyher, C. Bannwarth and S. Grimme, J. Chem. Phys., 2017,
     147, 034112. DOI: 10.1063/1.4993215
   * E. Caldeweyher, S. Ehlert, A. Hansen, H. Neugebauer, S. Spicher,
     C. Bannwarth and S. Grimme, J. Chem. Phys., 2019, 150, 154122.
     DOI: 10.1063/1.5090222
   * E. Caldeweyher, J.-M. Mewes, S. Ehlert and S. Grimme, Phys. Chem. Chem. Phys.
     2020, 22, 8499-8512. DOI: 10.1039/D0CP00502A
   
   for sTDA-xTB:
   * S. Grimme and C. Bannwarth, J. Chem. Phys., 2016, 145, 054103.
     DOI: 10.1063/1.4959605
   
   in the mass-spec context:
   * V. Asgeirsson, C. Bauer and S. Grimme, Chem. Sci., 2017, 8, 4879.
     DOI: 10.1039/c7sc00601b
   * J. Koopman and S. Grimme, ACS Omega 2019, 4, 12, 15120-15133.
     DOI: 10.1021/acsomega.9b02011
   
   for metadynamics refer to:
   * S. Grimme, J. Chem. Theory Comput., 2019, 155, 2847-2862
     DOI: 10.1021/acs.jctc.9b00143
   
   for SPH calculations refer to:
   * S. Spicher and S. Grimme, J. Chem. Theory Comput., 2021, 17, 1701-1714
     DOI: 10.1021/acs.jctc.0c01306
   
   with help from (in alphabetical order)
   P. Atkinson, C. Bannwarth, F. Bohle, G. Brandenburg, E. Caldeweyher
   M. Checinski, S. Dohm, S. Ehlert, S. Ehrlich, I. Gerasimov, C. Hölzer
   A. Katbashev, J. Koopman, C. Lavigne, S. Lehtola, F. März, M. Müller,
   F. Musil, H. Neugebauer, J. Pisarek, C. Plett, P. Pracht, F. Pultar,
   J. Seibert, P. Shushkov, S. Spicher, M. Stahn, M. Steiner, T. Strunk,
   J. Stückrath, T. Rose, and J. Unsleber
   
 * started run on 2024/07/09 at 06:48:15.356     

           -------------------------------------------------
          |                Calculation Setup                |
           -------------------------------------------------

          program call               : /home/abt-grimme/AK-bin/xtb input.xyz --input input.inp --opt --gbsa water
          hostname                   : boar053.thch.uni-bonn.de
          coordinate file            : input.xyz
          omp threads                :                     8

   ID    Z sym.   atoms
    1    6 C      1-146, 294-300, 306, 309-314, 323-468, 616-622, 628,
                  631-636, 645-790, 938-944, 950, 953-958, 967-1112,
                  1260-1266, 1272, 1275-1280, 1289-1434, 1582-1588, 1594,
                  1597-1602, 1611-1756, 1904-1910, 1916, 1919-1924,
                  1933-2078, 2226-2232, 2238, 2241-2246, 2255-2400,
                  2548-2554, 2560, 2563-2568, 2577-2722, 2870-2876, 2882,
                  2885-2890, 2899-3044, 3192-3198, 3204, 3207-3212,
                  3221-3366, 3514-3520, 3526, 3529-3534, 3543-3688,
                  3836-3842, 3848, 3851-3856
    2    1 H      147-293, 301-305, 307, 308, 315-322, 469-615, 623-627, 629,
                  630, 637-644, 791-937, 945-949, 951, 952, 959-966,
                  1113-1259, 1267-1271, 1273, 1274, 1281-1288, 1435-1581,
                  1589-1593, 1595, 1596, 1603-1610, 1757-1903, 1911-1915,
                  1917, 1918, 1925-1932, 2079-2225, 2233-2237, 2239, 2240,
                  2247-2254, 2401-2547, 2555-2559, 2561, 2562, 2569-2576,
                  2723-2869, 2877-2881, 2883, 2884, 2891-2898, 3045-3191,
                  3199-3203, 3205, 3206, 3213-3220, 3367-3513, 3521-3525,
                  3527, 3528, 3535-3542, 3689-3835, 3843-3847, 3849, 3850,
                  3857-3864

molecular fragmentation (1/2 indicates fragments):
111111111111111111111111111111111111111111111111111111111111111111111111
111111111111111111111111111111111111111111111111111111111111111111111111
111111111111111111111111111111111111111111111111111111111111111111111111
111111111111111111111111111111111111111111111111111111111111111111111111
111111111111111111111111111111111122222222222222222222222222222222222222
222222222222222222222222222222222222222222222222222222222222222222222222
222222222222222222222222222222222222222222222222222222222222222222222222
222222222222222222222222222222222222222222222222222222222222222222222222
222222222222222222222222222222222222222222222222222222222222222222222222
222222222222222222222222222222222222222222222222222222222222222222222222
222222222222222222222222222222222222222222222222222222222222222222222222
222222222222222222222222222222222222222222222222222222222222222222222222
222222222222222222222222222222222222222222222222222222222222222222222222
222222222222222222222222222222222222222222222222222222222222222222222222
222222222222222222222222222222222222222222222222222222222222222222222222
222222222222222222222222222222222222222222222222222222222222222222222222
222222222222222222222222222222222222222222222222222222222222222222222222
222222222222222222222222222222222222222222222222222222222222222222222222
222222222222222222222222222222222222222222222222222222222222222222222222
222222222222222222222222222222222222222222222222222222222222222222222222
222222222222222222222222222222222222222222222222222222222222222222222222
222222222222222222222222222222222222222222222222222222222222222222222222
222222222222222222222222222222222222222222222222222222222222222222222222
222222222222222222222222222222222222222222222222222222222222222222222222
222222222222222222222222222222222222222222222222222222222222222222222222
222222222222222222222222222222222222222222222222222222222222222222222222
222222222222222222222222222222222222222222222222222222222222222222222222
222222222222222222222222222222222222222222222222222222222222222222222222
222222222222222222222222222222222222222222222222222222222222222222222222
222222222222222222222222222222222222222222222222222222222222222222222222
222222222222222222222222222222222222222222222222222222222222222222222222
222222222222222222222222222222222222222222222222222222222222222222222222
222222222222222222222222222222222222222222222222222222222222222222222222
222222222222222222222222222222222222222222222222222222222222222222222222
222222222222222222222222222222222222222222222222222222222222222222222222
222222222222222222222222222222222222222222222222222222222222222222222222
222222222222222222222222222222222222222222222222222222222222222222222222
222222222222222222222222222222222222222222222222222222222222222222222222
222222222222222222222222222222222222222222222222222222222222222222222222
222222222222222222222222222222222222222222222222222222222222222222222222
222222222222222222222222222222222222222222222222222222222222222222222222
222222222222222222222222222222222222222222222222222222222222222222222222
222222222222222222222222222222222222222222222222222222222222222222222222
222222222222222222222222222222222222222222222222222222222222222222222222
222222222222222222222222222222222222222222222222222222222222222222222222
222222222222222222222222222222222222222222222222222222222222222222222222
222222222222222222222222222222222222222222222222222222222222222222222222
222222222222222222222222222222222222222222222222222222222222222222222222
222222222222222222222222222222222222222222222222222222222222222222222222
222222222222222222222222222222222222222222222222222222222222222222222222
222222222222222222222222222222222222222222222222222222222222222222222222
222222222222222222222222222222222222222222222222222222222222222222222222
222222222222222222222222222222222222222222222222222222222222222222222222
222222222222222222222222222222222222222222222222
# atoms in fragment 1/2:   322  3542
 fragment masses (1/2) :     2085.00    22935.05
CMA distance (Bohr)    :  25.553
constraining FC (au)   :  0.0500

           -------------------------------------------------
          |                 G F N 2 - x T B                 |
           -------------------------------------------------

        Reference                      10.1021/acs.jctc.8b01176
      * Hamiltonian:
        H0-scaling (s, p, d)           1.850000    2.230000    2.230000
        zeta-weighting                 0.500000
      * Dispersion:
        s8                             2.700000
        a1                             0.520000
        a2                             5.000000
        s9                             5.000000
      * Repulsion:
        kExp                           1.500000    1.000000
        rExp                           1.000000
      * Coulomb:
        alpha                          2.000000
        third order                    shell-resolved
        anisotropic                    true
        a3                             3.000000
        a5                             4.000000
        cn-shift                       1.200000
        cn-exp                         4.000000
        max-rad                        5.000000

      * Solvation model:               GBSA
        Solvent                        water
        Parameter file                 internal GFN2-xTB/GBSA
        Dielectric constant                8.0200E+01
        Reference state                gsolv [1 M gas/solution]
        Free energy shift                  1.8574E-03 Eh       1.1656E+00 kcal/mol
        Temperature                        2.9815E+02 K
        Density                            1.0000E+00 kg/L
        Solvent mass                       1.8000E+01 g/mol
        Interaction kernel             Still
        Born radius scaling (c1)           1.5524E+00
        Born radii integrator          GBOBC
        Born offset                        2.4628E-02 a0       4.6540E-02 AA
        H-bond correction              true
        Ion screening                  false
        Surface tension                    1.0000E-05 Eh       1.5569E+01 dyn/cm
        Grid points                               230 per atom
q/qsh data taken from xtbrestart
CAMM data taken from xtbrestart

          ...................................................
          :                      SETUP                      :
          :.................................................:
          :  # basis functions                9624          :
          :  # atomic orbitals                9624          :
          :  # shells                         5784          :
          :  # electrons                      9624          :
          :  max. iterations                   250          :
          :  Hamiltonian                  GFN2-xTB          :
          :  restarted?                       true          :
          :  GBSA solvation                   true          :
          :  PC potential                    false          :
          :  electronic temp.          300.0000000     K    :
          :  accuracy                    1.0000000          :
          :  -> integral cutoff          0.2500000E+02      :
          :  -> integral neglect         0.1000000E-07      :
          :  -> SCF convergence          0.1000000E-05 Eh   :
          :  -> wf. convergence          0.1000000E-03 e    :
          :  Broyden damping             0.4000000          :
          ...................................................

 iter      E             dE          RMSdq      gap      omega  full diag
   1  -5190.4640902 -0.519046E+04  0.915E-05    3.72       0.0  T
   2  -5190.4640903 -0.115469E-07  0.758E-05    3.72      21.2  T
   3  -5190.4640903 -0.800810E-08  0.641E-05    3.72      25.1  T

   *** convergence criteria satisfied after 3 iterations ***

         #    Occupation            Energy/Eh            Energy/eV
      -------------------------------------------------------------
         1        2.0000           -0.6349156             -17.2769
       ...           ...                  ...                  ...
      4806        2.0000           -0.3637921              -9.8993
      4807        2.0000           -0.3635936              -9.8939
      4808        2.0000           -0.3623425              -9.8598
      4809        2.0000           -0.3616903              -9.8421
      4810        2.0000           -0.3612173              -9.8292
      4811        2.0000           -0.3608512              -9.8193
      4812        2.0000           -0.3579746              -9.7410 (HOMO)
      4813                         -0.2211855              -6.0188 (LUMO)
      4814                         -0.2207441              -6.0068
      4815                         -0.2205758              -6.0022
      4816                         -0.2201227              -5.9898
      4817                         -0.2201078              -5.9894
       ...                                ...                  ...
      9624                          0.6660260              18.1235
      -------------------------------------------------------------
                  HL-Gap            0.1367892 Eh            3.7222 eV
             Fermi-level           -0.2895801 Eh           -7.8799 eV

 SCC (total)                   0 d,  0 h, 16 min,  8.289 sec
 SCC setup                      ...        0 min,  2.433 sec (  0.251%)
 Dispersion                     ...        0 min,  6.966 sec (  0.719%)
 classical contributions        ...        0 min,  0.140 sec (  0.015%)
 integral evaluation            ...        0 min, 12.292 sec (  1.270%)
 iterations                     ...       10 min, 38.044 sec ( 65.894%)
 molecular gradient             ...        4 min, 41.529 sec ( 29.075%)
 printout                       ...        0 min, 26.884 sec (  2.776%)

         :::::::::::::::::::::::::::::::::::::::::::::::::::::
         ::                     SUMMARY                     ::
         :::::::::::::::::::::::::::::::::::::::::::::::::::::
         :: total energy           -5103.329216899494 Eh    ::
         :: total w/o Gsasa/hb     -5103.133003575635 Eh    ::
         :: gradient norm              0.735301472803 Eh/a0 ::
         :: HOMO-LUMO gap              3.722222332502 eV    ::
         ::.................................................::
         :: SCC energy             -5190.464090266719 Eh    ::
         :: -> isotropic ES            0.276092629825 Eh    ::
         :: -> anisotropic ES          0.845311936975 Eh    ::
         :: -> anisotropic XC          3.454685488752 Eh    ::
         :: -> dispersion             -6.868145362292 Eh    ::
         :: -> Gsolv                  -0.200524217786 Eh    ::
         ::    -> Gelec               -0.004310893927 Eh    ::
         ::    -> Gsasa               -0.190188681166 Eh    ::
         ::    -> Ghb                 -0.007882085820 Eh    ::
         ::    -> Gshift               0.001857443127 Eh    ::
         :: repulsion energy          86.011895221268 Eh    ::
         :: add. restraining           0.000000000000 Eh    ::
         :: total charge              -0.000000000038 e     ::
         :::::::::::::::::::::::::::::::::::::::::::::::::::::

      ----------------------------------------------------------- 
     |              Fast Inertial Relaxation Engine              |
      ----------------------------------------------------------- 

          ...................................................
          :                      SETUP                      :
          :.................................................:
          :   energy convergence        0.5000000E-05 Eh    :
          :   grad. convergence         0.1000000E-02 Eh/a0 :
          :   optimization log               true           :
          :   writing optlog all                1     steps :
          :   Hessian reset                    20     steps :
          :   time step scaling                 5     steps :
          :   maximium step len.        1.0000000     a0    :
          :   initial time step         0.2500000     fs    :
          :   maximum time step         1.2500000     fs    :
          :   power reset thr           0.0000000     au    :
          :   alpha parameter           0.1000000           :
          :   BFGS update                   false           :
          :   preconditioning               false           :
          ...................................................

........................................................................
.............................. CYCLE    1 ..............................
........................................................................

 iter      E             dE          RMSdq      gap      omega  full diag
   1  -5190.6746327 -0.519067E+04  0.903E-03    3.74       0.0  T
   2  -5190.6746683 -0.355879E-04  0.554E-03    3.74       1.0  T
   3  -5190.6746580  0.102847E-04  0.296E-03    3.74       1.0  T
   4  -5190.6746770 -0.189819E-04  0.794E-04    3.74       2.0  T
   5  -5190.6746788 -0.177664E-05  0.277E-04    3.74       5.8  T
   6  -5190.6746789 -0.112487E-06  0.182E-04    3.74       8.9  T
   7  -5190.6746789 -0.447035E-07  0.124E-04    3.74      13.0  T
     SCC iter.                  ...       24 min, 41.863 sec
     gradient                   ...        4 min, 42.034 sec
 * total energy  : -5103.3897893 Eh     change    :  -0.6057244E-01 Eh
   gradient norm :     0.6757710 Eh/a0  converged?    E=F G=F D=F
   time step     :     0.2500000 fs     power     :   0.3078674E-05
   step length   :     0.0861758 a0     speed     :   0.8337968E-02

........................................................................
.............................. CYCLE    2 ..............................
........................................................................

 iter      E             dE          RMSdq      gap      omega  full diag
   1  -5190.9846665 -0.519098E+04  0.131E-02    3.76       0.0  T
   2  -5190.9847422 -0.757458E-04  0.806E-03    3.76       1.0  T
   3  -5190.9847208  0.214222E-04  0.428E-03    3.76       1.0  T
   4  -5190.9847602 -0.394304E-04  0.116E-03    3.76       1.4  T
   5  -5190.9847640 -0.380163E-05  0.412E-04    3.76       3.9  T
   6  -5190.9847643 -0.239911E-06  0.276E-04    3.76       5.8  T
   7  -5190.9847644 -0.105631E-06  0.190E-04    3.76       8.5  T
     SCC iter.                  ...       24 min, 38.361 sec
     gradient                   ...        4 min, 42.302 sec
 * total energy  : -5103.4692135 Eh     change    :  -0.7942416E-01 Eh
   gradient norm :     0.5932192 Eh/a0  converged?    E=F G=F D=F
   time step     :     0.2500000 fs     power     :   0.3929564E-05
   step length   :     0.1256566 a0     speed     :   0.1215795E-01

........................................................................
.............................. CYCLE    3 ..............................
........................................................................

 iter      E             dE          RMSdq      gap      omega  full diag
   1  -5191.3868755 -0.519139E+04  0.167E-02    3.78       0.0  T
   2  -5191.3869970 -0.121505E-03  0.102E-02    3.78       1.0  T
   3  -5191.3869627  0.343151E-04  0.537E-03    3.78       1.0  T
   4  -5191.3870247 -0.620152E-04  0.147E-03    3.78       1.1  T
   5  -5191.3870309 -0.615936E-05  0.523E-04    3.78       3.1  T
   6  -5191.3870313 -0.372723E-06  0.355E-04    3.78       4.5  T
   7  -5191.3870315 -0.177096E-06  0.244E-04    3.78       6.6  T
     SCC iter.                  ...       24 min, 36.840 sec
     gradient                   ...        4 min, 41.907 sec
 * total energy  : -5103.5554551 Eh     change    :  -0.8624160E-01 Eh
   gradient norm :     0.4957531 Eh/a0  converged?    E=F G=F D=F
   time step     :     0.2500000 fs     power     :   0.4125383E-05
   step length   :     0.1601909 a0     speed     :   0.1549933E-01

........................................................................
.............................. CYCLE    4 ..............................
........................................................................

 iter      E             dE          RMSdq      gap      omega  full diag
   1  -5191.8732961 -0.519187E+04  0.195E-02    3.80       0.0  T
   2  -5191.8734591 -0.163046E-03  0.119E-02    3.80       1.0  T
   3  -5191.8734123  0.468525E-04  0.616E-03    3.80       1.0  T
   4  -5191.8734942 -0.819695E-04  0.170E-03    3.79       1.0  T
   5  -5191.8735026 -0.839903E-05  0.608E-04    3.79       2.6  T
   6  -5191.8735031 -0.476039E-06  0.417E-04    3.79       3.9  T
   7  -5191.8735034 -0.248803E-06  0.286E-04    3.79       5.6  T
     SCC iter.                  ...       24 min, 39.072 sec
     gradient                   ...        4 min, 45.606 sec
 * total energy  : -5103.6365840 Eh     change    :  -0.8112891E-01 Eh
   gradient norm :     0.3976719 Eh/a0  converged?    E=F G=F D=F
   time step     :     0.2500000 fs     power     :   0.3708948E-05
   step length   :     0.1885085 a0     speed     :   0.1823921E-01

........................................................................
.............................. CYCLE    5 ..............................
........................................................................

 iter      E             dE          RMSdq      gap      omega  full diag
   1  -5192.4355664 -0.519244E+04  0.214E-02    3.81       0.0  T
   2  -5192.4357553 -0.188853E-03  0.130E-02    3.81       1.0  T
   3  -5192.4356985  0.567746E-04  0.655E-03    3.81       1.0  T
   4  -5192.4357929 -0.944185E-04  0.184E-03    3.81       1.0  T
   5  -5192.4358029 -0.998546E-05  0.659E-04    3.81       2.4  T
   6  -5192.4358034 -0.516135E-06  0.458E-04    3.81       3.5  T
   7  -5192.4358037 -0.306459E-06  0.312E-04    3.81       5.2  T
     SCC iter.                  ...       24 min, 39.791 sec
     gradient                   ...        4 min, 43.336 sec
 * total energy  : -5103.7035109 Eh     change    :  -0.6692688E-01 Eh
   gradient norm :     0.3215878 Eh/a0  converged?    E=F G=F D=F
   time step     :     0.2500000 fs     power     :   0.2870510E-05
   step length   :     0.2095078 a0     speed     :   0.2027100E-01

........................................................................
.............................. CYCLE    6 ..............................
........................................................................

 iter      E             dE          RMSdq      gap      omega  full diag
   1  -5193.1303100 -0.519313E+04  0.244E-02    3.83       0.0  T
   2  -5193.1305382 -0.228109E-03  0.148E-02    3.83       1.0  T
   3  -5193.1304636  0.745075E-04  0.710E-03    3.83       1.0  T
   4  -5193.1305785 -0.114838E-03  0.203E-03    3.82       1.0  T
   5  -5193.1305911 -0.125901E-04  0.734E-04    3.82       2.2  T
   6  -5193.1305916 -0.565688E-06  0.514E-04    3.82       3.1  T
   7  -5193.1305920 -0.396315E-06  0.344E-04    3.82       4.7  T
     SCC iter.                  ...       24 min, 37.387 sec
     gradient                   ...        4 min, 45.075 sec
 * total energy  : -5103.7565673 Eh     change    :  -0.5305639E-01 Eh
   gradient norm :     0.2927100 Eh/a0  converged?    E=F G=F D=F
   time step     :     0.2750000 fs     power     :   0.1816828E-05
   step length   :     0.2457401 a0     speed     :   0.2161516E-01

........................................................................
.............................. CYCLE    7 ..............................
........................................................................

 iter      E             dE          RMSdq      gap      omega  full diag
   1  -5193.9490568 -0.519395E+04  0.260E-02    3.84       0.0  T
   2  -5193.9492776 -0.220773E-03  0.156E-02    3.84       1.0  T
   3  -5193.9491976  0.799455E-04  0.682E-03    3.84       1.0  T
   4  -5193.9493097 -0.112030E-03  0.203E-03    3.84       1.0  T
   5  -5193.9493227 -0.130395E-04  0.755E-04    3.84       2.1  T
   6  -5193.9493232 -0.510648E-06  0.524E-04    3.84       3.1  T
   7  -5193.9493237 -0.438960E-06  0.342E-04    3.84       4.7  T
     SCC iter.                  ...       24 min, 37.298 sec
     gradient                   ...        4 min, 42.460 sec
 * total energy  : -5103.7940837 Eh     change    :  -0.3751641E-01 Eh
   gradient norm :     0.3212317 Eh/a0  converged?    E=F G=F D=F
   time step     :     0.3025000 fs     power     :   0.9786829E-06
   step length   :     0.2742913 a0     speed     :   0.2193318E-01

........................................................................
.............................. CYCLE    8 ..............................
........................................................................

 iter      E             dE          RMSdq      gap      omega  full diag
   1  -5194.8564775 -0.519486E+04  0.259E-02    3.86       0.0  T
   2  -5194.8566416 -0.164015E-03  0.154E-02    3.86       1.0  T
   3  -5194.8565836  0.579723E-04  0.549E-03    3.86       1.0  T
   4  -5194.8566586 -0.750372E-04  0.178E-03    3.86       1.0  T
   5  -5194.8566690 -0.103339E-04  0.711E-04    3.86       2.3  T
   6  -5194.8566694 -0.408886E-06  0.459E-04    3.86       3.5  T
   7  -5194.8566698 -0.390439E-06  0.291E-04    3.85       5.5  T
     SCC iter.                  ...       24 min, 36.445 sec
     gradient                   ...        4 min, 43.181 sec
 * total energy  : -5103.8241499 Eh     change    :  -0.3006620E-01 Eh
   gradient norm :     0.3640174 Eh/a0  converged?    E=F G=F D=F
   time step     :     0.3327500 fs     power     :   0.7007215E-06
   step length   :     0.2944409 a0     speed     :   0.2140401E-01

........................................................................
.............................. CYCLE    9 ..............................
........................................................................

 iter      E             dE          RMSdq      gap      omega  full diag
   1  -5195.8091865 -0.519581E+04  0.254E-02    3.88       0.0  T
   2  -5195.8092842 -0.977870E-04  0.149E-02    3.87       1.0  T
   3  -5195.8092681  0.161452E-04  0.350E-03    3.87       1.0  T
   4  -5195.8092930 -0.249122E-04  0.123E-03    3.87       1.3  T
   5  -5195.8092971 -0.408370E-05  0.618E-04    3.87       2.6  T
   6  -5195.8092974 -0.317419E-06  0.341E-04    3.87       4.7  T
   7  -5195.8092977 -0.270429E-06  0.218E-04    3.87       7.4  T
     SCC iter.                  ...       24 min, 36.997 sec
     gradient                   ...        4 min, 42.949 sec
 * total energy  : -5103.8597540 Eh     change    :  -0.3560407E-01 Eh
   gradient norm :     0.3756756 Eh/a0  converged?    E=F G=F D=F
   time step     :     0.3660250 fs     power     :   0.9247062E-06
   step length   :     0.3144559 a0     speed     :   0.2078089E-01

........................................................................
.............................. CYCLE   10 ..............................
........................................................................

 iter      E             dE          RMSdq      gap      omega  full diag
   1  -5196.7620621 -0.519676E+04  0.260E-02    3.89       0.0  T
   2  -5196.7621373 -0.752191E-04  0.152E-02    3.88       1.0  T
   3  -5196.7621040  0.333191E-04  0.410E-03    3.88       1.0  T
   4  -5196.7621502 -0.462147E-04  0.108E-03    3.88       1.5  T
   5  -5196.7621529 -0.267476E-05  0.520E-04    3.88       3.1  T
   6  -5196.7621531 -0.233020E-06  0.313E-04    3.88       5.1  T
   7  -5196.7621532 -0.159269E-06  0.179E-04    3.88       9.0  T
     SCC iter.                  ...       24 min, 36.581 sec
     gradient                   ...        4 min, 44.932 sec
 * total energy  : -5103.9076830 Eh     change    :  -0.4792907E-01 Eh
   gradient norm :     0.3315619 Eh/a0  converged?    E=F G=F D=F
   time step     :     0.4026275 fs     power     :   0.1200505E-05
   step length   :     0.3436862 a0     speed     :   0.2064780E-01

........................................................................
.............................. CYCLE   11 ..............................
........................................................................

 iter      E             dE          RMSdq      gap      omega  full diag
   1  -5197.6653647 -0.519767E+04  0.287E-02    3.89       0.0  T
   2  -5197.6654976 -0.132812E-03  0.170E-02    3.88       1.0  T
   3  -5197.6653836  0.113954E-03  0.699E-03    3.88       1.0  T
   4  -5197.6655359 -0.152340E-03  0.139E-03    3.88       1.2  T
   5  -5197.6655404 -0.447085E-05  0.580E-04    3.88       2.8  T
   6  -5197.6655411 -0.718403E-06  0.291E-04    3.88       5.5  T
   7  -5197.6655412 -0.577074E-07  0.145E-04    3.88      11.1  T
     SCC iter.                  ...       24 min, 32.911 sec
     gradient                   ...        4 min, 42.624 sec
 * total energy  : -5103.9573929 Eh     change    :  -0.4970984E-01 Eh
   gradient norm :     0.2339406 Eh/a0  converged?    E=F G=F D=F
   time step     :     0.4428903 fs     power     :   0.9243367E-06
   step length   :     0.3842251 a0     speed     :   0.2098479E-01

........................................................................
.............................. CYCLE   12 ..............................
........................................................................

 iter      E             dE          RMSdq      gap      omega  full diag
   1  -5198.4621373 -0.519846E+04  0.323E-02    3.88       0.0  T
   2  -5198.4623830 -0.245730E-03  0.195E-02    3.88       1.0  T
   3  -5198.4622127  0.170314E-03  0.934E-03    3.87       1.0  T
   4  -5198.4624596 -0.246933E-03  0.181E-03    3.88       1.0  T
   5  -5198.4624680 -0.832105E-05  0.680E-04    3.87       2.4  T
   6  -5198.4624689 -0.958149E-06  0.358E-04    3.87       4.5  T
   7  -5198.4624690 -0.942355E-07  0.212E-04    3.87       7.6  T
     SCC iter.                  ...       24 min, 35.218 sec
     gradient                   ...        4 min, 41.827 sec
 * total energy  : -5103.9807675 Eh     change    :  -0.2337462E-01 Eh
   gradient norm :     0.1678952 Eh/a0  converged?    E=F G=F D=F
   time step     :     0.4871793 fs     power     :  -0.1560303E-06
   step length   :     0.4232666 a0     speed     :   0.2101553E-01

........................................................................
.............................. CYCLE   13 ..............................
........................................................................
 * reset velocities

 iter      E             dE          RMSdq      gap      omega  full diag
   1  -5198.4489615 -0.519845E+04  0.913E-04    3.87       0.0  T
   2  -5198.4489619 -0.400920E-06  0.547E-04    3.87       2.9  T
   3  -5198.4489619  0.119808E-07  0.256E-04    3.87       6.3  T
     SCC iter.                  ...       10 min, 36.312 sec
     gradient                   ...        4 min, 43.745 sec
 * total energy  : -5103.9823124 Eh     change    :  -0.1544938E-02 Eh
   gradient norm :     0.1629493 Eh/a0  converged?    E=F G=F D=F
   time step     :     0.2435896 fs     power     :   0.8289474E-07
   step length   :     0.0093404 a0     speed     :   0.9275170E-03

........................................................................
.............................. CYCLE   14 ..............................
........................................................................

 iter      E             dE          RMSdq      gap      omega  full diag
   1  -5198.4222189 -0.519842E+04  0.179E-03    3.87       0.0  T
   2  -5198.4222203 -0.141490E-05  0.107E-03    3.87       1.5  T
   3  -5198.4222203  0.873924E-07  0.446E-04    3.87       3.6  T
   4  -5198.4222205 -0.213769E-06  0.132E-04    3.87      12.2  T
     SCC iter.                  ...       14 min,  4.379 sec
     gradient                   ...        4 min, 40.778 sec
 * total energy  : -5103.9852221 Eh     change    :  -0.2909612E-02 Eh
   gradient norm :     0.1534445 Eh/a0  converged?    E=F G=F D=F
   time step     :     0.2435896 fs     power     :   0.1536368E-06
   step length   :     0.0184047 a0     speed     :   0.1827620E-02

........................................................................
.............................. CYCLE   15 ..............................
........................................................................

 iter      E             dE          RMSdq      gap      omega  full diag
   1  -5198.3827698 -0.519838E+04  0.258E-03    3.87       0.0  T
   2  -5198.3827728 -0.299753E-05  0.155E-03    3.87       1.0  T
   3  -5198.3827726  0.259233E-06  0.692E-04    3.87       2.3  T
   4  -5198.3827732 -0.593845E-06  0.202E-04    3.87       8.0  T
     SCC iter.                  ...       14 min,  8.265 sec
     gradient                   ...        4 min, 43.525 sec
 * total energy  : -5103.9891673 Eh     change    :  -0.3945270E-02 Eh
   gradient norm :     0.1403046 Eh/a0  converged?    E=F G=F D=F
   time step     :     0.2435896 fs     power     :   0.2047849E-06
   step length   :     0.0269327 a0     speed     :   0.2674457E-02

........................................................................
.............................. CYCLE   16 ..............................
........................................................................

 iter      E             dE          RMSdq      gap      omega  full diag
   1  -5198.3313887 -0.519833E+04  0.330E-03    3.87       0.0  T
   2  -5198.3313935 -0.478357E-05  0.198E-03    3.87       1.0  T
   3  -5198.3313931  0.463643E-06  0.875E-04    3.87       1.8  T
   4  -5198.3313940 -0.988071E-06  0.262E-04    3.87       6.1  T
     SCC iter.                  ...       14 min,  1.398 sec
     gradient                   ...        4 min, 41.133 sec
 * total energy  : -5103.9937295 Eh     change    :  -0.4562193E-02 Eh
   gradient norm :     0.1248886 Eh/a0  converged?    E=F G=F D=F
   time step     :     0.2435896 fs     power     :   0.2324287E-06
   step length   :     0.0347003 a0     speed     :   0.3445793E-02

........................................................................
.............................. CYCLE   17 ..............................
........................................................................

 iter      E             dE          RMSdq      gap      omega  full diag
   1  -5198.2691136 -0.519827E+04  0.390E-03    3.87       0.0  T
   2  -5198.2691200 -0.648625E-05  0.234E-03    3.87       1.0  T
   3  -5198.2691193  0.723271E-06  0.102E-03    3.87       1.6  T
   4  -5198.2691207 -0.142384E-05  0.314E-04    3.87       5.1  T
   5  -5198.2691210 -0.256006E-06  0.111E-04    3.87      14.5  T
   6  -5198.2691210 -0.140226E-07  0.767E-05    3.87      21.0  T
     SCC iter.                  ...       21 min,  5.416 sec
     gradient                   ...        4 min, 42.017 sec
 * total energy  : -5103.9984762 Eh     change    :  -0.4746670E-02 Eh
   gradient norm :     0.1090798 Eh/a0  converged?    E=F G=F D=F
   time step     :     0.2435896 fs     power     :   0.2369881E-06
   step length   :     0.0415273 a0     speed     :   0.4123723E-02

........................................................................
.............................. CYCLE   18 ..............................
........................................................................

 iter      E             dE          RMSdq      gap      omega  full diag
   1  -5198.1973281 -0.519820E+04  0.437E-03    3.87       0.0  T
   2  -5198.1973360 -0.787218E-05  0.261E-03    3.87       1.0  T
   3  -5198.1973350  0.942940E-06  0.110E-03    3.87       1.5  T
   4  -5198.1973367 -0.171468E-05  0.349E-04    3.87       4.6  T
   5  -5198.1973371 -0.329899E-06  0.118E-04    3.87      13.6  T
   6  -5198.1973371 -0.150703E-07  0.798E-05    3.87      20.2  T
     SCC iter.                  ...       21 min,  2.230 sec
     gradient                   ...        4 min, 44.151 sec
 * total energy  : -5104.0030406 Eh     change    :  -0.4564418E-02 Eh
   gradient norm :     0.0951556 Eh/a0  converged?    E=F G=F D=F
   time step     :     0.2435896 fs     power     :   0.2231872E-06
   step length   :     0.0472767 a0     speed     :   0.4694655E-02

........................................................................
.............................. CYCLE   19 ..............................
........................................................................

 iter      E             dE          RMSdq      gap      omega  full diag
   1  -5198.1091429 -0.519811E+04  0.522E-03    3.87       0.0  T
   2  -5198.1091532 -0.103041E-04  0.312E-03    3.87       1.0  T
   3  -5198.1091516  0.165157E-05  0.127E-03    3.87       1.3  T
   4  -5198.1091542 -0.263954E-05  0.415E-04    3.87       3.9  T
   5  -5198.1091547 -0.490825E-06  0.135E-04    3.87      11.9  T
   6  -5198.1091547 -0.170703E-07  0.886E-05    3.87      18.2  T
     SCC iter.                  ...       21 min,  6.599 sec
     gradient                   ...        4 min, 44.554 sec
 * total energy  : -5104.0075984 Eh     change    :  -0.4557776E-02 Eh
   gradient norm :     0.0844927 Eh/a0  converged?    E=F G=F D=F
   time step     :     0.2679486 fs     power     :   0.1957670E-06
   step length   :     0.0575737 a0     speed     :   0.5197416E-02

........................................................................
.............................. CYCLE   20 ..............................
........................................................................

 iter      E             dE          RMSdq      gap      omega  full diag
   1  -5198.0050510 -0.519801E+04  0.604E-03    3.87       0.0  T
   2  -5198.0050630 -0.119303E-04  0.362E-03    3.87       1.0  T
   3  -5198.0050601  0.288091E-05  0.141E-03    3.87       1.1  T
   4  -5198.0050642 -0.408710E-05  0.467E-04    3.87       3.4  T
   5  -5198.0050648 -0.654983E-06  0.148E-04    3.87      10.9  T
   6  -5198.0050648 -0.163036E-07  0.930E-05    3.87      17.3  T
     SCC iter.                  ...       21 min,  7.669 sec
     gradient                   ...        4 min, 43.610 sec
 * total energy  : -5104.0119327 Eh     change    :  -0.4334285E-02 Eh
   gradient norm :     0.0796165 Eh/a0  converged?    E=F G=F D=F
   time step     :     0.2947435 fs     power     :   0.1637395E-06
   step length   :     0.0681810 a0     speed     :   0.5595441E-02
 * RMSD in coord.:     0.0407451 a0     energy gain  -0.6827158E+00 Eh

........................................................................
.............................. CYCLE   21 ..............................
........................................................................

 iter      E             dE          RMSdq      gap      omega  full diag
   1  -5197.9164733 -0.519792E+04  0.517E-03    3.87       0.0  T
   2  -5197.9164803 -0.703823E-05  0.310E-03    3.87       1.0  T
   3  -5197.9164776  0.277961E-05  0.116E-03    3.87       1.4  T
   4  -5197.9164812 -0.365885E-05  0.369E-04    3.87       4.4  T
   5  -5197.9164816 -0.421761E-06  0.120E-04    3.87      13.4  T
   6  -5197.9164816 -0.875116E-08  0.730E-05    3.87      22.0  T
     SCC iter.                  ...       21 min,  5.070 sec
     gradient                   ...        4 min, 45.204 sec
 * total energy  : -5104.0151227 Eh     change    :  -0.3190057E-02 Eh
   gradient norm :     0.0793015 Eh/a0  converged?    E=F G=F D=F
   time step     :     0.2500000 fs     power     :   0.1470131E-06
   step length   :     0.0595555 a0     speed     :   0.5762317E-02

........................................................................
.............................. CYCLE   22 ..............................
........................................................................

 iter      E             dE          RMSdq      gap      omega  full diag
   1  -5197.8315635 -0.519783E+04  0.517E-03    3.87       0.0  T
   2  -5197.8315687 -0.522963E-05  0.311E-03    3.87       1.0  T
   3  -5197.8315652  0.356269E-05  0.113E-03    3.87       1.4  T
   4  -5197.8315697 -0.450442E-05  0.312E-04    3.87       5.2  T
   5  -5197.8315700 -0.299511E-06  0.107E-04    3.87      15.0  T
   6  -5197.8315700 -0.390992E-08  0.612E-05    3.87      26.3  T
     SCC iter.                  ...       21 min,  8.498 sec
     gradient                   ...        4 min, 44.076 sec
 * total energy  : -5104.0181205 Eh     change    :  -0.2997750E-02 Eh
   gradient norm :     0.0794160 Eh/a0  converged?    E=F G=F D=F
   time step     :     0.2500000 fs     power     :   0.1412032E-06
   step length   :     0.0604312 a0     speed     :   0.5847047E-02

........................................................................
.............................. CYCLE   23 ..............................
........................................................................

 iter      E             dE          RMSdq      gap      omega  full diag
   1  -5197.7536035 -0.519775E+04  0.518E-03    3.87       0.0  T
   2  -5197.7536071 -0.366504E-05  0.311E-03    3.87       1.0  T
   3  -5197.7536029  0.423003E-05  0.112E-03    3.87       1.4  T
   4  -5197.7536081 -0.524209E-05  0.249E-04    3.87       6.5  T
   5  -5197.7536083 -0.177095E-06  0.963E-05    3.87      16.7  T
   6  -5197.7536083 -0.192631E-08  0.532E-05    3.87      30.2  T
     SCC iter.                  ...       21 min,  6.012 sec
     gradient                   ...        4 min, 44.181 sec
 * total energy  : -5104.0210882 Eh     change    :  -0.2967680E-02 Eh
   gradient norm :     0.0782598 Eh/a0  converged?    E=F G=F D=F
   time step     :     0.2500000 fs     power     :   0.1428239E-06
   step length   :     0.0609711 a0     speed     :   0.5899279E-02

........................................................................
.............................. CYCLE   24 ..............................
........................................................................

 iter      E             dE          RMSdq      gap      omega  full diag
   1  -5197.6850307 -0.519769E+04  0.521E-03    3.87       0.0  T
   2  -5197.6850332 -0.255512E-05  0.313E-03    3.87       1.0  T
   3  -5197.6850287  0.454637E-05  0.111E-03    3.87       1.5  T
   4  -5197.6850342 -0.556694E-05  0.202E-04    3.87       8.0  T
   5  -5197.6850343 -0.103135E-06  0.908E-05    3.87      17.7  T
   6  -5197.6850343 -0.304863E-08  0.498E-05    3.87      32.3  T
     SCC iter.                  ...       21 min,  4.883 sec
     gradient                   ...        4 min, 43.756 sec
 * total energy  : -5104.0241020 Eh     change    :  -0.3013831E-02 Eh
   gradient norm :     0.0754867 Eh/a0  converged?    E=F G=F D=F
   time step     :     0.2500000 fs     power     :   0.1470010E-06
   step length   :     0.0615342 a0     speed     :   0.5953761E-02

........................................................................
.............................. CYCLE   25 ..............................
........................................................................

 iter      E             dE          RMSdq      gap      omega  full diag
   1  -5197.6275064 -0.519763E+04  0.525E-03    3.87       0.0  T
   2  -5197.6275083 -0.187639E-05  0.314E-03    3.87       1.0  T
   3  -5197.6275040  0.436306E-05  0.107E-03    3.87       1.5  T
   4  -5197.6275093 -0.530475E-05  0.178E-04    3.87       9.0  T
   5  -5197.6275093 -0.717564E-07  0.927E-05    3.87      17.4  T
   6  -5197.6275093 -0.714044E-08  0.526E-05    3.87      30.6  T
     SCC iter.                  ...       21 min,  2.901 sec
     gradient                   ...        4 min, 43.193 sec
 * total energy  : -5104.0271606 Eh     change    :  -0.3058647E-02 Eh
   gradient norm :     0.0716098 Eh/a0  converged?    E=F G=F D=F
   time step     :     0.2500000 fs     power     :   0.1500300E-06
   step length   :     0.0622687 a0     speed     :   0.6024833E-02

........................................................................
.............................. CYCLE   26 ..............................
........................................................................

 iter      E             dE          RMSdq      gap      omega  full diag
   1  -5197.5777406 -0.519758E+04  0.582E-03    3.87       0.0  T
   2  -5197.5777424 -0.180966E-05  0.347E-03    3.87       1.0  T
   3  -5197.5777379  0.443504E-05  0.107E-03    3.87       1.5  T
   4  -5197.5777433 -0.538543E-05  0.188E-04    3.87       8.6  T
   5  -5197.5777434 -0.735135E-07  0.110E-04    3.87      14.6  T
   6  -5197.5777434 -0.168493E-07  0.685E-05    3.87      23.5  T
     SCC iter.                  ...       21 min,  7.536 sec
     gradient                   ...        4 min, 44.472 sec
 * total energy  : -5104.0305326 Eh     change    :  -0.3371999E-02 Eh
   gradient norm :     0.0670234 Eh/a0  converged?    E=F G=F D=F
   time step     :     0.2750000 fs     power     :   0.1492247E-06
   step length   :     0.0698186 a0     speed     :   0.6141208E-02

........................................................................
.............................. CYCLE   27 ..............................
........................................................................

 iter      E             dE          RMSdq      gap      omega  full diag
   1  -5197.5387915 -0.519754E+04  0.639E-03    3.87       0.0  T
   2  -5197.5387934 -0.183745E-05  0.379E-03    3.87       1.0  T
   3  -5197.5387897  0.363634E-05  0.990E-04    3.87       1.6  T
   4  -5197.5387942 -0.447985E-05  0.209E-04    3.87       7.7  T
   5  -5197.5387943 -0.878354E-07  0.133E-04    3.87      12.1  T
   6  -5197.5387943 -0.277496E-07  0.900E-05    3.87      17.9  T
     SCC iter.                  ...       21 min,  3.595 sec
     gradient                   ...        4 min, 42.624 sec
 * total energy  : -5104.0341557 Eh     change    :  -0.3623101E-02 Eh
   gradient norm :     0.0626600 Eh/a0  converged?    E=F G=F D=F
   time step     :     0.3025000 fs     power     :   0.1441692E-06
   step length   :     0.0786633 a0     speed     :   0.6290160E-02

........................................................................
.............................. CYCLE   28 ..............................
........................................................................

 iter      E             dE          RMSdq      gap      omega  full diag
   1  -5197.5136231 -0.519751E+04  0.690E-03    3.87       0.0  T
   2  -5197.5136250 -0.186288E-05  0.407E-03    3.87       1.0  T
   3  -5197.5136229  0.213035E-05  0.821E-04    3.87       2.0  T
   4  -5197.5136257 -0.281397E-05  0.233E-04    3.87       6.9  T
   5  -5197.5136258 -0.107477E-06  0.153E-04    3.87      10.5  T
   6  -5197.5136258 -0.393920E-07  0.106E-04    3.87      15.2  T
     SCC iter.                  ...       21 min,  3.969 sec
     gradient                   ...        4 min, 41.102 sec
 * total energy  : -5104.0379629 Eh     change    :  -0.3807187E-02 Eh
   gradient norm :     0.0590565 Eh/a0  converged?    E=F G=F D=F
   time step     :     0.3327500 fs     power     :   0.1361699E-06
   step length   :     0.0887464 a0     speed     :   0.6451308E-02

........................................................................
.............................. CYCLE   29 ..............................
........................................................................

 iter      E             dE          RMSdq      gap      omega  full diag
   1  -5197.5046504 -0.519750E+04  0.728E-03    3.86       0.0  T
   2  -5197.5046524 -0.191031E-05  0.429E-03    3.86       1.0  T
   3  -5197.5046511  0.129231E-05  0.749E-04    3.86       2.1  T
   4  -5197.5046530 -0.196950E-05  0.244E-04    3.86       6.6  T
   5  -5197.5046531 -0.948985E-07  0.168E-04    3.86       9.6  T
   6  -5197.5046532 -0.533128E-07  0.110E-04    3.86      14.6  T
     SCC iter.                  ...       21 min,  4.051 sec
     gradient                   ...        4 min, 41.675 sec
 * total energy  : -5104.0419096 Eh     change    :  -0.3946637E-02 Eh
   gradient norm :     0.0563064 Eh/a0  converged?    E=F G=F D=F
   time step     :     0.3660250 fs     power     :   0.1270088E-06
   step length   :     0.0999778 a0     speed     :   0.6607053E-02

........................................................................
.............................. CYCLE   30 ..............................
........................................................................

 iter      E             dE          RMSdq      gap      omega  full diag
   1  -5197.5133664 -0.519751E+04  0.750E-03    3.86       0.0  T
   2  -5197.5133685 -0.211405E-05  0.443E-03    3.86       1.0  T
   3  -5197.5133661  0.241291E-05  0.949E-04    3.86       1.7  T
   4  -5197.5133694 -0.332956E-05  0.240E-04    3.86       6.7  T
   5  -5197.5133695 -0.772106E-07  0.172E-04    3.86       9.4  T
   6  -5197.5133696 -0.564905E-07  0.108E-04    3.86      14.8  T
     SCC iter.                  ...       21 min,  5.032 sec
     gradient                   ...        4 min, 42.506 sec
 * total energy  : -5104.0459887 Eh     change    :  -0.4079195E-02 Eh
   gradient norm :     0.0549012 Eh/a0  converged?    E=F G=F D=F
   time step     :     0.4026275 fs     power     :   0.1185210E-06
   step length   :     0.1123137 a0     speed     :   0.6747526E-02

........................................................................
.............................. CYCLE   31 ..............................
........................................................................

 iter      E             dE          RMSdq      gap      omega  full diag
   1  -5197.5402247 -0.519754E+04  0.754E-03    3.85       0.0  T
   2  -5197.5402272 -0.244007E-05  0.448E-03    3.85       1.0  T
   3  -5197.5402231  0.411006E-05  0.114E-03    3.85       1.4  T
   4  -5197.5402283 -0.528017E-05  0.230E-04    3.85       7.0  T
   5  -5197.5402284 -0.739265E-07  0.159E-04    3.85      10.1  T
   6  -5197.5402285 -0.422660E-07  0.100E-04    3.85      16.0  T
     SCC iter.                  ...       21 min,  8.069 sec
     gradient                   ...        4 min, 42.232 sec
 * total energy  : -5104.0502796 Eh     change    :  -0.4290879E-02 Eh
   gradient norm :     0.0554263 Eh/a0  converged?    E=F G=F D=F
   time step     :     0.4428903 fs     power     :   0.1138618E-06
   step length   :     0.1257949 a0     speed     :   0.6870399E-02

........................................................................
.............................. CYCLE   32 ..............................
........................................................................

 iter      E             dE          RMSdq      gap      omega  full diag
   1  -5197.5851042 -0.519759E+04  0.754E-03    3.85       0.0  T
   2  -5197.5851067 -0.252186E-05  0.450E-03    3.85       1.0  T
   3  -5197.5851031  0.360677E-05  0.104E-03    3.85       1.5  T
   4  -5197.5851077 -0.456589E-05  0.214E-04    3.85       7.5  T
   5  -5197.5851077 -0.737564E-07  0.131E-04    3.85      12.3  T
   6  -5197.5851078 -0.222753E-07  0.811E-05    3.85      19.8  T
     SCC iter.                  ...       21 min,  7.112 sec
     gradient                   ...        4 min, 42.827 sec
 * total energy  : -5104.0550082 Eh     change    :  -0.4728543E-02 Eh
   gradient norm :     0.0558240 Eh/a0  converged?    E=F G=F D=F
   time step     :     0.4871793 fs     power     :   0.1160785E-06
   step length   :     0.1407852 a0     speed     :   0.6990097E-02

........................................................................
.............................. CYCLE   33 ..............................
........................................................................

 iter      E             dE          RMSdq      gap      omega  full diag
   1  -5197.6487463 -0.519765E+04  0.780E-03    3.85       0.0  T
   2  -5197.6487490 -0.267992E-05  0.465E-03    3.85       1.0  T
   3  -5197.6487474  0.163092E-05  0.749E-04    3.85       2.1  T
   4  -5197.6487496 -0.217760E-05  0.221E-04    3.85       7.3  T
   5  -5197.6487497 -0.105899E-06  0.104E-04    3.85      15.4  T
   6  -5197.6487497 -0.768159E-08  0.510E-05    3.85      31.5  T
     SCC iter.                  ...       21 min,  4.197 sec
     gradient                   ...        4 min, 41.480 sec
 * total energy  : -5104.0603958 Eh     change    :  -0.5387632E-02 Eh
   gradient norm :     0.0517893 Eh/a0  converged?    E=F G=F D=F
   time step     :     0.5358972 fs     power     :   0.1207603E-06
   step length   :     0.1583546 a0     speed     :   0.7147667E-02

........................................................................
.............................. CYCLE   34 ..............................
........................................................................

 iter      E             dE          RMSdq      gap      omega  full diag
   1  -5197.7345224 -0.519773E+04  0.856E-03    3.85       0.0  T
   2  -5197.7345264 -0.404746E-05  0.512E-03    3.85       1.0  T
   3  -5197.7345196  0.682814E-05  0.133E-03    3.85       1.2  T
   4  -5197.7345278 -0.815728E-05  0.261E-04    3.85       6.2  T
   5  -5197.7345280 -0.187494E-06  0.118E-04    3.85      13.7  T
   6  -5197.7345280 -0.762611E-08  0.556E-05    3.85      28.9  T
     SCC iter.                  ...       21 min,  5.104 sec
     gradient                   ...        4 min, 41.361 sec
 * total energy  : -5104.0662316 Eh     change    :  -0.5835766E-02 Eh
   gradient norm :     0.0435996 Eh/a0  converged?    E=F G=F D=F
   time step     :     0.5894869 fs     power     :   0.1146562E-06
   step length   :     0.1796724 a0     speed     :   0.7372629E-02

........................................................................
.............................. CYCLE   35 ..............................
........................................................................

 iter      E             dE          RMSdq      gap      omega  full diag
   1  -5197.8489019 -0.519785E+04  0.939E-03    3.86       0.0  T
   2  -5197.8489080 -0.613245E-05  0.569E-03    3.86       1.0  T
   3  -5197.8488894  0.185793E-04  0.214E-03    3.86       1.0  T
   4  -5197.8489119 -0.224654E-04  0.295E-04    3.86       5.5  T
   5  -5197.8489121 -0.208363E-06  0.140E-04    3.86      11.5  T
   6  -5197.8489121 -0.968339E-08  0.666E-05    3.86      24.2  T
     SCC iter.                  ...       21 min,  8.358 sec
     gradient                   ...        4 min, 41.375 sec
 * total energy  : -5104.0718657 Eh     change    :  -0.5634128E-02 Eh
   gradient norm :     0.0411107 Eh/a0  converged?    E=F G=F D=F
   time step     :     0.6484356 fs     power     :   0.9492804E-07
   step length   :     0.2042627 a0     speed     :   0.7619689E-02

........................................................................
.............................. CYCLE   36 ..............................
........................................................................

 iter      E             dE          RMSdq      gap      omega  full diag
   1  -5197.9941563 -0.519799E+04  0.973E-03    3.86       0.0  T
   2  -5197.9941630 -0.677211E-05  0.594E-03    3.86       1.0  T
   3  -5197.9941386  0.244191E-04  0.242E-03    3.86       1.0  T
   4  -5197.9941682 -0.296038E-04  0.286E-04    3.86       5.6  T
   5  -5197.9941684 -0.163108E-06  0.140E-04    3.86      11.5  T
   6  -5197.9941684 -0.866021E-08  0.655E-05    3.86      24.6  T
     SCC iter.                  ...       21 min,  4.141 sec
     gradient                   ...        4 min, 43.375 sec
 * total energy  : -5104.0771965 Eh     change    :  -0.5330783E-02 Eh
   gradient norm :     0.0427048 Eh/a0  converged?    E=F G=F D=F
   time step     :     0.7132792 fs     power     :   0.8145419E-07
   step length   :     0.2288601 a0     speed     :   0.7761142E-02

........................................................................
.............................. CYCLE   37 ..............................
........................................................................

 iter      E             dE          RMSdq      gap      omega  full diag
   1  -5198.1574732 -0.519816E+04  0.101E-02    3.85       0.0  T
   2  -5198.1574819 -0.862622E-05  0.607E-03    3.85       1.0  T
   3  -5198.1574646  0.172888E-04  0.228E-03    3.85       1.0  T
   4  -5198.1574856 -0.210802E-04  0.346E-04    3.85       4.7  T
   5  -5198.1574860 -0.311322E-06  0.144E-04    3.85      11.2  T
   6  -5198.1574860 -0.705222E-08  0.771E-05    3.85      20.9  T
     SCC iter.                  ...       21 min,  4.512 sec
     gradient                   ...        4 min, 42.998 sec
 * total energy  : -5104.0825705 Eh     change    :  -0.5374023E-02 Eh
   gradient norm :     0.0395827 Eh/a0  converged?    E=F G=F D=F
   time step     :     0.7846071 fs     power     :   0.7347118E-07
   step length   :     0.2538762 a0     speed     :   0.7826811E-02

........................................................................
.............................. CYCLE   38 ..............................
........................................................................

 iter      E             dE          RMSdq      gap      omega  full diag
   1  -5198.3041517 -0.519830E+04  0.104E-02    3.85       0.0  T
   2  -5198.3041609 -0.920117E-05  0.616E-03    3.85       1.0  T
   3  -5198.3041521  0.879019E-05  0.188E-03    3.85       1.0  T
   4  -5198.3041630 -0.109211E-04  0.354E-04    3.85       4.5  T
   5  -5198.3041633 -0.299749E-06  0.148E-04    3.85      10.8  T
   6  -5198.3041633 -0.902310E-08  0.816E-05    3.85      19.7  T
     SCC iter.                  ...       21 min,  6.407 sec
     gradient                   ...        4 min, 43.122 sec
 * total energy  : -5104.0878662 Eh     change    :  -0.5295674E-02 Eh
   gradient norm :     0.0417466 Eh/a0  converged?    E=F G=F D=F
   time step     :     0.8630678 fs     power     :   0.6393051E-07
   step length   :     0.2811604 a0     speed     :   0.7879966E-02

........................................................................
.............................. CYCLE   39 ..............................
........................................................................

 iter      E             dE          RMSdq      gap      omega  full diag
   1  -5198.3843656 -0.519838E+04  0.105E-02    3.85       0.0  T
   2  -5198.3843701 -0.455004E-05  0.619E-03    3.85       1.0  T
   3  -5198.3843642  0.592514E-05  0.136E-03    3.85       1.2  T
   4  -5198.3843715 -0.731861E-05  0.268E-04    3.85       6.0  T
   5  -5198.3843717 -0.140863E-06  0.136E-04    3.85      11.8  T
   6  -5198.3843717 -0.912132E-08  0.604E-05    3.85      26.6  T
     SCC iter.                  ...       21 min,  6.961 sec
     gradient                   ...        4 min, 43.046 sec
 * total energy  : -5104.0936526 Eh     change    :  -0.5786456E-02 Eh
   gradient norm :     0.0416441 Eh/a0  converged?    E=F G=F D=F
   time step     :     0.9493746 fs     power     :   0.6698312E-07
   step length   :     0.3097975 a0     speed     :   0.7893241E-02

........................................................................
.............................. CYCLE   40 ..............................
........................................................................

 iter      E             dE          RMSdq      gap      omega  full diag
   1  -5198.3639821 -0.519836E+04  0.108E-02    3.85       0.0  T
   2  -5198.3639904 -0.830750E-05  0.654E-03    3.85       1.0  T
   3  -5198.3639760  0.143616E-04  0.197E-03    3.85       1.0  T
   4  -5198.3639936 -0.176134E-04  0.362E-04    3.85       4.4  T
   5  -5198.3639939 -0.273421E-06  0.221E-04    3.85       7.3  T
   6  -5198.3639939 -0.446034E-07  0.140E-04    3.85      11.5  T
     SCC iter.                  ...       21 min,  7.639 sec
     gradient                   ...        4 min, 42.821 sec
 * total energy  : -5104.1002274 Eh     change    :  -0.6574815E-02 Eh
   gradient norm :     0.0386070 Eh/a0  converged?    E=F G=F D=F
   time step     :     1.0443120 fs     power     :   0.6768981E-07
   step length   :     0.3445680 a0     speed     :   0.7981046E-02

........................................................................
.............................. CYCLE   41 ..............................
........................................................................

 iter      E             dE          RMSdq      gap      omega  full diag
   1  -5198.2615429 -0.519826E+04  0.121E-02    3.85       0.0  T
   2  -5198.2615592 -0.163343E-04  0.727E-03    3.85       1.0  T
   3  -5198.2615451  0.140583E-04  0.217E-03    3.85       1.0  T
   4  -5198.2615627 -0.175553E-04  0.527E-04    3.85       3.1  T
   5  -5198.2615635 -0.801090E-06  0.257E-04    3.85       6.3  T
   6  -5198.2615635 -0.498985E-07  0.162E-04    3.85       9.9  T
     SCC iter.                  ...       21 min,  6.702 sec
     gradient                   ...        4 min, 43.974 sec
 * total energy  : -5104.1070526 Eh     change    :  -0.6825116E-02 Eh
   gradient norm :     0.0355124 Eh/a0  converged?    E=F G=F D=F
   time step     :     1.1487432 fs     power     :   0.5988284E-07
   step length   :     0.3857041 a0     speed     :   0.8121690E-02

........................................................................
.............................. CYCLE   42 ..............................
........................................................................

 iter      E             dE          RMSdq      gap      omega  full diag
   1  -5198.1539765 -0.519815E+04  0.132E-02    3.84       0.0  T
   2  -5198.1539858 -0.931058E-05  0.791E-03    3.84       1.0  T
   3  -5198.1539682  0.175985E-04  0.251E-03    3.84       1.0  T
   4  -5198.1539898 -0.215945E-04  0.377E-04    3.84       4.3  T
   5  -5198.1539900 -0.204976E-06  0.196E-04    3.84       8.2  T
   6  -5198.1539900 -0.173413E-07  0.883E-05    3.85      18.2  T
     SCC iter.                  ...       21 min,  8.195 sec
     gradient                   ...        4 min, 43.713 sec
 * total energy  : -5104.1136418 Eh     change    :  -0.6589227E-02 Eh
   gradient norm :     0.0364890 Eh/a0  converged?    E=F G=F D=F
   time step     :     1.2500000 fs     power     :   0.5197495E-07
   step length   :     0.4250166 a0     speed     :   0.8224528E-02
 * RMSD in coord.:     0.0547327 a0     energy gain  -0.1017091E+00 Eh

........................................................................
.............................. CYCLE   43 ..............................
........................................................................

 iter      E             dE          RMSdq      gap      omega  full diag
   1  -5198.1409316 -0.519814E+04  0.227E-03    3.85       0.0  T
   2  -5198.1409319 -0.321460E-06  0.138E-03    3.85       1.2  T
   3  -5198.1409306  0.125371E-05  0.564E-04    3.85       2.9  T
   4  -5198.1409321 -0.151405E-05  0.663E-05    3.85      24.3  T
   5  -5198.1409322 -0.854106E-08  0.358E-05    3.85      44.9  T
   6  -5198.1409322 -0.934961E-09  0.169E-05    3.85      95.1  T
     SCC iter.                  ...       21 min,  8.975 sec
     gradient                   ...        4 min, 41.161 sec
 * total energy  : -5104.1148676 Eh     change    :  -0.1225802E-02 Eh
   gradient norm :     0.0357548 Eh/a0  converged?    E=F G=F D=F
   time step     :     0.2500000 fs     power     :   0.6270160E-07
   step length   :     0.0804971 a0     speed     :   0.7788524E-02

........................................................................
.............................. CYCLE   44 ..............................
........................................................................

 iter      E             dE          RMSdq      gap      omega  full diag
   1  -5198.1364898 -0.519814E+04  0.227E-03    3.85       0.0  T
   2  -5198.1364904 -0.582629E-06  0.142E-03    3.85       1.1  T
   3  -5198.1364889  0.153376E-05  0.657E-04    3.85       2.4  T
   4  -5198.1364909 -0.202736E-05  0.788E-05    3.85      20.4  T
   5  -5198.1364909 -0.167529E-07  0.355E-05    3.85      45.4  T
   6  -5198.1364909 -0.777618E-09  0.184E-05    3.85      87.4  T
     SCC iter.                  ...       21 min,  4.522 sec
     gradient                   ...        4 min, 41.297 sec
 * total energy  : -5104.1162351 Eh     change    :  -0.1367557E-02 Eh
   gradient norm :     0.0321946 Eh/a0  converged?    E=F G=F D=F
   time step     :     0.2500000 fs     power     :   0.6946525E-07
   step length   :     0.0771677 a0     speed     :   0.7466394E-02

........................................................................
.............................. CYCLE   45 ..............................
........................................................................

 iter      E             dE          RMSdq      gap      omega  full diag
   1  -5198.1407451 -0.519814E+04  0.247E-03    3.85       0.0  T
   2  -5198.1407460 -0.893898E-06  0.157E-03    3.85       1.0  T
   3  -5198.1407443  0.173652E-05  0.745E-04    3.85       2.2  T
   4  -5198.1407468 -0.246366E-05  0.956E-05    3.85      16.8  T
   5  -5198.1407468 -0.255932E-07  0.421E-05    3.85      38.2  T
   6  -5198.1407468 -0.127420E-08  0.231E-05    3.85      69.5  T
     SCC iter.                  ...       21 min,  7.418 sec
     gradient                   ...        4 min, 42.726 sec
 * total energy  : -5104.1176362 Eh     change    :  -0.1401083E-02 Eh
   gradient norm :     0.0280310 Eh/a0  converged?    E=F G=F D=F
   time step     :     0.2500000 fs     power     :   0.6980298E-07
   step length   :     0.0749557 a0     speed     :   0.7252364E-02

........................................................................
.............................. CYCLE   46 ..............................
........................................................................

 iter      E             dE          RMSdq      gap      omega  full diag
   1  -5198.1538042 -0.519815E+04  0.266E-03    3.85       0.0  T
   2  -5198.1538052 -0.955037E-06  0.167E-03    3.85       1.0  T
   3  -5198.1538031  0.207560E-05  0.785E-04    3.85       2.0  T
   4  -5198.1538059 -0.282890E-05  0.998E-05    3.85      16.1  T
   5  -5198.1538060 -0.259051E-07  0.468E-05    3.85      34.4  T
   6  -5198.1538060 -0.165073E-08  0.257E-05    3.85      62.6  T
     SCC iter.                  ...       21 min,  5.222 sec
     gradient                   ...        4 min, 42.437 sec
 * total energy  : -5104.1189764 Eh     change    :  -0.1340156E-02 Eh
   gradient norm :     0.0258048 Eh/a0  converged?    E=F G=F D=F
   time step     :     0.2500000 fs     power     :   0.6583602E-07
   step length   :     0.0735260 a0     speed     :   0.7114039E-02

........................................................................
.............................. CYCLE   47 ..............................
........................................................................

 iter      E             dE          RMSdq      gap      omega  full diag
   1  -5198.1750531 -0.519818E+04  0.271E-03    3.85       0.0  T
   2  -5198.1750538 -0.701039E-06  0.166E-03    3.85       1.0  T
   3  -5198.1750518  0.204862E-05  0.721E-04    3.85       2.2  T
   4  -5198.1750543 -0.256668E-05  0.909E-05    3.85      17.7  T
   5  -5198.1750543 -0.193595E-07  0.460E-05    3.85      35.0  T
   6  -5198.1750543 -0.134696E-08  0.247E-05    3.85      65.3  T
     SCC iter.                  ...       21 min,  7.399 sec
     gradient                   ...        4 min, 42.657 sec
 * total energy  : -5104.1202334 Eh     change    :  -0.1256984E-02 Eh
   gradient norm :     0.0259264 Eh/a0  converged?    E=F G=F D=F
   time step     :     0.2500000 fs     power     :   0.6203429E-07
   step length   :     0.0722806 a0     speed     :   0.6993541E-02

........................................................................
.............................. CYCLE   48 ..............................
........................................................................

 iter      E             dE          RMSdq      gap      omega  full diag
   1  -5198.2057111 -0.519821E+04  0.289E-03    3.85       0.0  T
   2  -5198.2057116 -0.462357E-06  0.173E-03    3.85       1.0  T
   3  -5198.2057101  0.141524E-05  0.589E-04    3.85       2.7  T
   4  -5198.2057118 -0.168794E-05  0.850E-05    3.85      18.9  T
   5  -5198.2057118 -0.156397E-07  0.447E-05    3.85      36.0  T
   6  -5198.2057118 -0.978616E-09  0.217E-05    3.85      74.3  T
     SCC iter.                  ...       21 min, 10.658 sec
     gradient                   ...        4 min, 41.688 sec
 * total energy  : -5104.1215642 Eh     change    :  -0.1330842E-02 Eh
   gradient norm :     0.0266318 Eh/a0  converged?    E=F G=F D=F
   time step     :     0.2750000 fs     power     :   0.6034071E-07
   step length   :     0.0780391 a0     speed     :   0.6864274E-02

........................................................................
.............................. CYCLE   49 ..............................
........................................................................

 iter      E             dE          RMSdq      gap      omega  full diag
   1  -5198.2447624 -0.519824E+04  0.303E-03    3.85       0.0  T
   2  -5198.2447627 -0.325785E-06  0.179E-03    3.85       1.0  T
   3  -5198.2447622  0.508102E-06  0.421E-04    3.85       3.8  T
   4  -5198.2447629 -0.638642E-06  0.749E-05    3.85      21.5  T
     SCC iter.                  ...       14 min,  7.156 sec
     gradient                   ...        4 min, 42.089 sec
 * total energy  : -5104.1230153 Eh     change    :  -0.1451040E-02 Eh
   gradient norm :     0.0263367 Eh/a0  converged?    E=F G=F D=F
   time step     :     0.3025000 fs     power     :   0.6033522E-07
   step length   :     0.0842741 a0     speed     :   0.6738818E-02

........................................................................
.............................. CYCLE   50 ..............................
........................................................................

 iter      E             dE          RMSdq      gap      omega  full diag
   1  -5198.2903402 -0.519829E+04  0.319E-03    3.85       0.0  T
   2  -5198.2903406 -0.390069E-06  0.190E-03    3.85       1.0  T
   3  -5198.2903397  0.901230E-06  0.512E-04    3.85       3.1  T
   4  -5198.2903408 -0.110248E-05  0.741E-05    3.85      21.7  T
   5  -5198.2903408 -0.611453E-08  0.426E-05    3.85      37.8  T
     SCC iter.                  ...       17 min, 39.319 sec
     gradient                   ...        4 min, 42.921 sec
 * total energy  : -5104.1246046 Eh     change    :  -0.1589360E-02 Eh
   gradient norm :     0.0247016 Eh/a0  converged?    E=F G=F D=F
   time step     :     0.3327500 fs     power     :   0.5991526E-07
   step length   :     0.0914125 a0     speed     :   0.6645115E-02

........................................................................
.............................. CYCLE   51 ..............................
........................................................................

 iter      E             dE          RMSdq      gap      omega  full diag
   1  -5198.3392649 -0.519834E+04  0.339E-03    3.85       0.0  T
   2  -5198.3392655 -0.568903E-06  0.204E-03    3.85       1.0  T
   3  -5198.3392638  0.168324E-05  0.637E-04    3.85       2.5  T
   4  -5198.3392658 -0.202096E-05  0.883E-05    3.85      18.2  T
   5  -5198.3392658 -0.121208E-07  0.486E-05    3.85      33.1  T
   6  -5198.3392658 -0.138789E-08  0.216E-05    3.85      74.5  T
     SCC iter.                  ...       21 min,  6.300 sec
     gradient                   ...        4 min, 43.347 sec
 * total energy  : -5104.1263021 Eh     change    :  -0.1697449E-02 Eh
   gradient norm :     0.0225119 Eh/a0  converged?    E=F G=F D=F
   time step     :     0.3660250 fs     power     :   0.5743348E-07
   step length   :     0.0998162 a0     speed     :   0.6596374E-02

........................................................................
.............................. CYCLE   52 ..............................
........................................................................

 iter      E             dE          RMSdq      gap      omega  full diag
   1  -5198.3863373 -0.519839E+04  0.360E-03    3.85       0.0  T
   2  -5198.3863380 -0.660541E-06  0.216E-03    3.85       1.0  T
   3  -5198.3863366  0.139797E-05  0.599E-04    3.85       2.7  T
   4  -5198.3863383 -0.169662E-05  0.105E-04    3.85      15.4  T
   5  -5198.3863383 -0.216924E-07  0.549E-05    3.85      29.3  T
   6  -5198.3863383 -0.131149E-08  0.245E-05    3.85      65.5  T
     SCC iter.                  ...       21 min,  6.519 sec
     gradient                   ...        4 min, 43.815 sec
 * total energy  : -5104.1280519 Eh     change    :  -0.1749859E-02 Eh
   gradient norm :     0.0212160 Eh/a0  converged?    E=F G=F D=F
   time step     :     0.4026275 fs     power     :   0.5305233E-07
   step length   :     0.1095479 a0     speed     :   0.6581359E-02

........................................................................
.............................. CYCLE   53 ..............................
........................................................................

 iter      E             dE          RMSdq      gap      omega  full diag
   1  -5198.4245705 -0.519842E+04  0.377E-03    3.85       0.0  T
   2  -5198.4245713 -0.721893E-06  0.224E-03    3.85       1.0  T
   3  -5198.4245703  0.956491E-06  0.570E-04    3.85       2.8  T
   4  -5198.4245715 -0.121854E-05  0.106E-04    3.85      15.2  T
   5  -5198.4245716 -0.191121E-07  0.614E-05    3.85      26.2  T
     SCC iter.                  ...       17 min, 36.430 sec
     gradient                   ...        4 min, 44.563 sec
 * total energy  : -5104.1298360 Eh     change    :  -0.1784038E-02 Eh
   gradient norm :     0.0218954 Eh/a0  converged?    E=F G=F D=F
   time step     :     0.4428903 fs     power     :   0.4910595E-07
   step length   :     0.1201942 a0     speed     :   0.6564515E-02

........................................................................
.............................. CYCLE   54 ..............................
........................................................................

 iter      E             dE          RMSdq      gap      omega  full diag
   1  -5198.4479209 -0.519845E+04  0.393E-03    3.85       0.0  T
   2  -5198.4479218 -0.891524E-06  0.234E-03    3.85       1.0  T
   3  -5198.4479190  0.285106E-05  0.854E-04    3.85       1.9  T
   4  -5198.4479224 -0.344939E-05  0.115E-04    3.85      14.0  T
   5  -5198.4479224 -0.244972E-07  0.705E-05    3.85      22.8  T
   6  -5198.4479224 -0.458476E-08  0.385E-05    3.85      41.8  T
     SCC iter.                  ...       21 min,  5.517 sec
     gradient                   ...        4 min, 44.809 sec
 * total energy  : -5104.1317256 Eh     change    :  -0.1889601E-02 Eh
   gradient norm :     0.0228963 Eh/a0  converged?    E=F G=F D=F
   time step     :     0.4871793 fs     power     :   0.4812779E-07
   step length   :     0.1312541 a0     speed     :   0.6516870E-02

........................................................................
.............................. CYCLE   55 ..............................
........................................................................

 iter      E             dE          RMSdq      gap      omega  full diag
   1  -5198.4534548 -0.519845E+04  0.418E-03    3.85       0.0  T
   2  -5198.4534558 -0.109011E-05  0.251E-03    3.85       1.0  T
   3  -5198.4534513  0.450675E-05  0.106E-03    3.85       1.5  T
   4  -5198.4534568 -0.544409E-05  0.112E-04    3.85      14.4  T
   5  -5198.4534568 -0.179798E-07  0.685E-05    3.85      23.5  T
   6  -5198.4534568 -0.391174E-08  0.366E-05    3.85      44.0  T
     SCC iter.                  ...       21 min,  5.286 sec
     gradient                   ...        4 min, 42.415 sec
 * total energy  : -5104.1338132 Eh     change    :  -0.2087634E-02 Eh
   gradient norm :     0.0214594 Eh/a0  converged?    E=F G=F D=F
   time step     :     0.5358972 fs     power     :   0.4861354E-07
   step length   :     0.1433410 a0     speed     :   0.6469996E-02

........................................................................
.............................. CYCLE   56 ..............................
........................................................................

 iter      E             dE          RMSdq      gap      omega  full diag
   1  -5198.4410546 -0.519844E+04  0.454E-03    3.85       0.0  T
   2  -5198.4410558 -0.117035E-05  0.270E-03    3.85       1.0  T
   3  -5198.4410522  0.355984E-05  0.100E-03    3.85       1.6  T
   4  -5198.4410565 -0.426521E-05  0.123E-04    3.85      13.1  T
   5  -5198.4410565 -0.280334E-07  0.656E-05    3.85      24.5  T
   6  -5198.4410565 -0.201999E-08  0.299E-05    3.85      53.9  T
     SCC iter.                  ...       21 min,  1.702 sec
     gradient                   ...        4 min, 44.331 sec
 * total energy  : -5104.1360541 Eh     change    :  -0.2240892E-02 Eh
   gradient norm :     0.0188344 Eh/a0  converged?    E=F G=F D=F
   time step     :     0.5894869 fs     power     :   0.4633476E-07
   step length   :     0.1577484 a0     speed     :   0.6473005E-02

........................................................................
.............................. CYCLE   57 ..............................
........................................................................

 iter      E             dE          RMSdq      gap      omega  full diag
   1  -5198.4141125 -0.519841E+04  0.487E-03    3.85       0.0  T
   2  -5198.4141135 -0.102024E-05  0.289E-03    3.85       1.0  T
   3  -5198.4141116  0.186822E-05  0.797E-04    3.85       2.0  T
   4  -5198.4141139 -0.229607E-05  0.119E-04    3.85      13.5  T
   5  -5198.4141139 -0.165137E-07  0.677E-05    3.85      23.8  T
   6  -5198.4141139 -0.258024E-08  0.324E-05    3.85      49.6  T
     SCC iter.                  ...       21 min,  4.885 sec
     gradient                   ...        4 min, 43.154 sec
 * total energy  : -5104.1383296 Eh     change    :  -0.2275483E-02 Eh
   gradient norm :     0.0188219 Eh/a0  converged?    E=F G=F D=F
   time step     :     0.6484356 fs     power     :   0.4203818E-07
   step length   :     0.1746064 a0     speed     :   0.6513410E-02

[...]
  3615   6 C     3616   6 C                                       1.5320830
  3617   6 C     3618   6 C                                       1.3890214
  3618   6 C     3619   6 C                                       1.3846422
  3619   6 C     3620   6 C                                       1.3839247
  3620   6 C     3621   6 C                                       1.3850167
  3617   6 C     3622   6 C                                       1.3909326
  3621   6 C     3622   6 C                                       1.3830964
  3616   6 C     3623   6 C                                       1.5363304
  3623   6 C     3624   6 C                                       1.5368769
  3625   6 C     3626   6 C                                       1.3905613
  3626   6 C     3627   6 C                                       1.3836508
  3627   6 C     3628   6 C                                       1.3846835
  3628   6 C     3629   6 C                                       1.3837439
  3625   6 C     3630   6 C                                       1.3894969
  3629   6 C     3630   6 C                                       1.3836748
  3624   6 C     3631   6 C                                       1.5331542
  3631   6 C     3632   6 C                                       1.5332425
  3633   6 C     3634   6 C                                       1.3879243
  3634   6 C     3635   6 C                                       1.3837884
  3635   6 C     3636   6 C                                       1.3831552
  3636   6 C     3637   6 C                                       1.3847422
  3633   6 C     3638   6 C                                       1.3905180
  3637   6 C     3638   6 C                                       1.3823431
  3632   6 C     3639   6 C                                       1.5378730
  3639   6 C     3640   6 C                                       1.5357323
  3641   6 C     3642   6 C                                       1.3905500
  3642   6 C     3643   6 C                                       1.3831139
  3643   6 C     3644   6 C                                       1.3847969
  3644   6 C     3645   6 C                                       1.3833407
  3641   6 C     3646   6 C                                       1.3883209
  3645   6 C     3646   6 C                                       1.3837317
  3640   6 C     3647   6 C                                       1.5369844
  3647   6 C     3648   6 C                                       1.5337050
  3649   6 C     3650   6 C                                       1.3887498
  3650   6 C     3651   6 C                                       1.3825606
  3651   6 C     3652   6 C                                       1.3835935
  3652   6 C     3653   6 C                                       1.3844911
  3649   6 C     3654   6 C                                       1.3901933
  3653   6 C     3654   6 C                                       1.3832916
  3648   6 C     3655   6 C                                       1.5390860
  3655   6 C     3656   6 C                                       1.5387205
  3657   6 C     3658   6 C                                       1.3893417
  3658   6 C     3659   6 C                                       1.3837093
  3659   6 C     3660   6 C                                       1.3837478
  3660   6 C     3661   6 C                                       1.3846857
  3657   6 C     3662   6 C                                       1.3904404
  3661   6 C     3662   6 C                                       1.3828615
  3656   6 C     3663   6 C                                       1.5346408
  3665   6 C     3666   6 C                                       1.3899906
  3666   6 C     3667   6 C                                       1.3839799
  3667   6 C     3668   6 C                                       1.3843538
  3668   6 C     3669   6 C                                       1.3844582
  3665   6 C     3670   6 C                                       1.3905302
  3669   6 C     3670   6 C                                       1.3841627
  3664   6 C     3671   6 C                                       1.5346908
  3671   6 C     3672   6 C                                       1.5351396
  3673   6 C     3674   6 C                                       1.3901366
  3674   6 C     3675   6 C                                       1.3827679
  3675   6 C     3676   6 C                                       1.3845401
  3676   6 C     3677   6 C                                       1.3839577
  3673   6 C     3678   6 C                                       1.3892252
  3677   6 C     3678   6 C                                       1.3835884
  3672   6 C     3679   6 C                                       1.5349104
  3679   6 C     3680   6 C                                       1.5350999
  3681   6 C     3682   6 C                                       1.3908967
  3682   6 C     3683   6 C                                       1.3839037
  3683   6 C     3684   6 C                                       1.3847059
  3684   6 C     3685   6 C                                       1.3835749
  3681   6 C     3686   6 C                                       1.3889685
  3685   6 C     3686   6 C                                       1.3838741
  3687   6 C     3688   6 C                                       1.5398770
  3549   6 C     3689   1 H                                       1.0958731
  3551   6 C     3690   1 H                                       1.0923278
  3551   6 C     3691   1 H                                       1.0915814
  3552   6 C     3692   1 H                                       1.0961770
  3559   6 C     3693   1 H                                       1.0908845
  3559   6 C     3694   1 H                                       1.0918511
  3560   6 C     3695   1 H                                       1.0938344
  3567   6 C     3696   1 H                                       1.0932221
  3567   6 C     3697   1 H                                       1.0931905
  3568   6 C     3698   1 H                                       1.0946523
  3575   6 C     3699   1 H                                       1.0903762
  3576   6 C     3700   1 H                                       1.0953455
  3583   6 C     3701   1 H                                       1.0910533
  3583   6 C     3702   1 H                                       1.0905466
  3584   6 C     3703   1 H                                       1.0963889
  3591   6 C     3704   1 H                                       1.0921550
  3591   6 C     3705   1 H                                       1.0920475
  3592   6 C     3706   1 H                                       1.0931080
  3599   6 C     3707   1 H                                       1.0920563
  3599   6 C     3708   1 H                                       1.0931009
  3600   6 C     3709   1 H                                       1.0941513
  3608   6 C     3710   1 H                                       1.0959066
  3615   6 C     3711   1 H                                       1.0901989
  3615   6 C     3712   1 H                                       1.0901032
  3616   6 C     3713   1 H                                       1.0964949
  3623   6 C     3714   1 H                                       1.0924030
  3623   6 C     3715   1 H                                       1.0921861
  3624   6 C     3716   1 H                                       1.0941815
  3631   6 C     3717   1 H                                       1.0893058
  3631   6 C     3718   1 H                                       1.0918317
  3632   6 C     3719   1 H                                       1.0938521
  3639   6 C     3720   1 H                                       1.0921362
  3639   6 C     3721   1 H                                       1.0923915
  3640   6 C     3722   1 H                                       1.0950422
  3647   6 C     3723   1 H                                       1.0904630
  3647   6 C     3724   1 H                                       1.0912738
  3648   6 C     3725   1 H                                       1.0943639
  3655   6 C     3726   1 H                                       1.0939444
  3655   6 C     3727   1 H                                       1.0918133
  3656   6 C     3728   1 H                                       1.0935447
  3663   6 C     3729   1 H                                       1.0913542
  3663   6 C     3730   1 H                                       1.0904894
  3664   6 C     3731   1 H                                       1.0965954
  3671   6 C     3732   1 H                                       1.0923422
  3671   6 C     3733   1 H                                       1.0912183
  3672   6 C     3734   1 H                                       1.0953645
  3679   6 C     3735   1 H                                       1.0915691
  3679   6 C     3736   1 H                                       1.0921263
  3543   6 C     3737   1 H                                       1.0813070
  3548   6 C     3738   1 H                                       1.0808964
  3547   6 C     3739   1 H                                       1.0805168
  3546   6 C     3740   1 H                                       1.0806914
  3545   6 C     3741   1 H                                       1.0801553
  3554   6 C     3742   1 H                                       1.0809827
  3555   6 C     3743   1 H                                       1.0805066
  3556   6 C     3744   1 H                                       1.0803458
  3557   6 C     3745   1 H                                       1.0810122
  3558   6 C     3746   1 H                                       1.0817503
  3562   6 C     3747   1 H                                       1.0812546
  3563   6 C     3748   1 H                                       1.0808529
  3564   6 C     3749   1 H                                       1.0806294
  3565   6 C     3750   1 H                                       1.0811394
  3566   6 C     3751   1 H                                       1.0802310
  3570   6 C     3752   1 H                                       1.0784858
  3571   6 C     3753   1 H                                       1.0803519
  3572   6 C     3754   1 H                                       1.0804569
  3573   6 C     3755   1 H                                       1.0808721
  3574   6 C     3756   1 H                                       1.0819362
  3575   6 C     3757   1 H                                       1.0899525
  3578   6 C     3758   1 H                                       1.0808180
  3579   6 C     3759   1 H                                       1.0807132
  3580   6 C     3760   1 H                                       1.0805116
  3581   6 C     3761   1 H                                       1.0810351
  3582   6 C     3762   1 H                                       1.0818131
  3586   6 C     3763   1 H                                       1.0821532
  3587   6 C     3764   1 H                                       1.0810851
  3588   6 C     3765   1 H                                       1.0805204
  3589   6 C     3766   1 H                                       1.0807942
  3590   6 C     3767   1 H                                       1.0804007
  3594   6 C     3768   1 H                                       1.0810834
  3595   6 C     3769   1 H                                       1.0796231
  3596   6 C     3770   1 H                                       1.0800098
  3597   6 C     3771   1 H                                       1.0803442
  3598   6 C     3772   1 H                                       1.0816787
  3602   6 C     3773   1 H                                       1.0804233
  3603   6 C     3774   1 H                                       1.0805224
  3604   6 C     3775   1 H                                       1.0806498
  3605   6 C     3776   1 H                                       1.0814812
  3606   6 C     3777   1 H                                       1.0807467
  3607   6 C     3778   1 H                                       1.0898073
  3607   6 C     3779   1 H                                       1.0924788
  3610   6 C     3780   1 H                                       1.0814643
  3611   6 C     3781   1 H                                       1.0811112
  3612   6 C     3782   1 H                                       1.0808049
  3613   6 C     3783   1 H                                       1.0814844
  3614   6 C     3784   1 H                                       1.0804315
  3618   6 C     3785   1 H                                       1.0815002
  3619   6 C     3786   1 H                                       1.0815215
  3620   6 C     3787   1 H                                       1.0802689
  3621   6 C     3788   1 H                                       1.0808497
  3622   6 C     3789   1 H                                       1.0805750
  3626   6 C     3790   1 H                                       1.0805101
  3627   6 C     3791   1 H                                       1.0812209
  3628   6 C     3792   1 H                                       1.0806632
  3629   6 C     3793   1 H                                       1.0812598
  3630   6 C     3794   1 H                                       1.0808007
  3634   6 C     3795   1 H                                       1.0804749
  3635   6 C     3796   1 H                                       1.0816409
  3636   6 C     3797   1 H                                       1.0793625
  3637   6 C     3798   1 H                                       1.0805864
  3638   6 C     3799   1 H                                       1.0800023
  3642   6 C     3800   1 H                                       1.0791497
  3643   6 C     3801   1 H                                       1.0817672
  3644   6 C     3802   1 H                                       1.0797352
  3645   6 C     3803   1 H                                       1.0795977
  3646   6 C     3804   1 H                                       1.0815067
  3650   6 C     3805   1 H                                       1.0801156
  3651   6 C     3806   1 H                                       1.0807916
  3652   6 C     3807   1 H                                       1.0808541
  3653   6 C     3808   1 H                                       1.0817835
  3654   6 C     3809   1 H                                       1.0806368
  3658   6 C     3810   1 H                                       1.0814706
  3659   6 C     3811   1 H                                       1.0809636
  3660   6 C     3812   1 H                                       1.0804378
  3661   6 C     3813   1 H                                       1.0808397
  3662   6 C     3814   1 H                                       1.0804560
  3666   6 C     3815   1 H                                       1.0820456
  3667   6 C     3816   1 H                                       1.0802921
  3668   6 C     3817   1 H                                       1.0803709
  3669   6 C     3818   1 H                                       1.0808646
  3670   6 C     3819   1 H                                       1.0801666
  3674   6 C     3820   1 H                                       1.0806630
  3675   6 C     3821   1 H                                       1.0812441
  3676   6 C     3822   1 H                                       1.0796012
  3677   6 C     3823   1 H                                       1.0814433
  3678   6 C     3824   1 H                                       1.0809481
  3686   6 C     3825   1 H                                       1.0822731
  3685   6 C     3826   1 H                                       1.0811504
  3684   6 C     3827   1 H                                       1.0792968
  3683   6 C     3828   1 H                                       1.0801643
  3682   6 C     3829   1 H                                       1.0813276
  3550   6 C     3830   1 H                                       1.0872174
  3550   6 C     3831   1 H                                       1.0877269
  3550   6 C     3832   1 H                                       1.0879269
  3680   6 C     3833   1 H                                       1.0960117
  3687   6 C     3834   1 H                                       1.0915307
  3687   6 C     3835   1 H                                       1.0921972
  3688   6 C     3836   6 C                                       1.5315862
  3837   6 C     3838   6 C                                       1.3899266
  3838   6 C     3839   6 C                                       1.3839883
  3839   6 C     3840   6 C                                       1.3840307
  3840   6 C     3841   6 C                                       1.3845218
  3837   6 C     3842   6 C                                       1.3904852
  3841   6 C     3842   6 C                                       1.3833083
  3838   6 C     3843   1 H                                       1.0814822
  3839   6 C     3844   1 H                                       1.0809566
  3840   6 C     3845   1 H                                       1.0805688
  3841   6 C     3846   1 H                                       1.0803386
  3842   6 C     3847   1 H                                       1.0806479
  3836   6 C     3848   6 C                                       1.5334764
  3836   6 C     3849   1 H                                       1.0908564
  3836   6 C     3850   1 H                                       1.0922076
  3851   6 C     3852   6 C                                       1.3883914
  3852   6 C     3853   6 C                                       1.3844312
  3853   6 C     3854   6 C                                       1.3840809
  3854   6 C     3855   6 C                                       1.3850458
  3851   6 C     3856   6 C                                       1.3904567
  3855   6 C     3856   6 C                                       1.3828312
  3852   6 C     3857   1 H                                       1.0811309
  3853   6 C     3858   1 H                                       1.0805984
  3854   6 C     3859   1 H                                       1.0803849
  3855   6 C     3860   1 H                                       1.0813130
  3856   6 C     3861   1 H                                       1.0813669
  3688   6 C     3862   1 H                                       1.0963354
  3848   6 C     3863   1 H                                       1.0917164
  3848   6 C     3864   1 H                                       1.0926004

 * 2 distinct bonds (by element types)

   Z      Z             #   av. dist./Å        max./Å        min./Å
   1 H    6 C        1944     1.0852733     1.0981704     1.0774567
   6 C    6 C        1867     1.4200191     1.5409184     1.3801648


optimized geometry written to: xtbopt.xyz


           -------------------------------------------------
          | TOTAL ENERGY            -5104.221733571146 Eh   |
          | GRADIENT NORM               0.000779012795 Eh/α |
          | HOMO-LUMO GAP               3.814370198058 eV   |
           -------------------------------------------------

------------------------------------------------------------------------
 * finished run on 2024/07/17 at 04:54:37.800     
------------------------------------------------------------------------
 total:
 * wall-time:     7 d, 22 h,  6 min, 22.443 sec
 *  cpu-time:    52 d,  1 h,  6 min, 59.724 sec
 * ratio c/w:     6.571 speedup
 SCF:
 * wall-time:     0 d,  0 h, 16 min,  8.499 sec
 *  cpu-time:     0 d,  1 h, 44 min, 14.552 sec
 * ratio c/w:     6.458 speedup
 ANC optimizer:
 * wall-time:     7 d, 21 h, 49 min,  3.607 sec
 *  cpu-time:    51 d, 23 h, 21 min, 13.172 sec
 * ratio c/w:     6.571 speedup

