3864
 energy: -5104.221733571146 gnorm: 0.000779012795 xtb: 6.6.1 (8d0f1dd)
C           72.98570851223853       58.52824487213118       55.17413417003152
C           72.51679216411567       57.22060318660731       55.12259055649486
C           72.57484510159769       56.54605971817526       53.90965938314282
C           73.07515679938747       57.16190129314764       52.77574200884717
C           73.52943471630324       58.46769118745171       52.83804511099482
C           73.48523396086232       59.14791101733825       54.04315271081476
C           71.96961015658857       56.53394851960752       56.34890985287892
C           73.08912845064737       56.29966652745925       57.36737839429209
C           70.82478415404165       57.33282350328450       56.98447444233985
C           69.67276352417136       57.60218464939013       56.00497268538735
C           69.10555683927475       56.30320132110661       55.48999210769587
C           69.22117519655431       55.97282793541656       54.14560366906279
C           68.76515036096301       54.75598834558474       53.67113438025400
C           68.17115763443212       53.85260503715777       54.53533195708649
C           68.01711407268574       54.18365224657006       55.87027441047610
C           68.48463518430047       55.39659781727129       56.34209919174646
C           68.59318810683715       58.45328998662722       56.68397247824075
C           67.48459659189251       58.85717511040387       55.70798230206165
C           68.00288867064549       59.71475769071541       54.57772692092149
C           67.71074812494184       59.38899559823209       53.25896286347465
C           68.11846118319862       60.20668559199009       52.21855986126902
C           68.83896143335799       61.35967069102667       52.47663911556982
C           69.14810051690252       61.68723776983395       53.78546670081635
C           68.72770281438204       60.87604399887460       54.82359729060810
C           66.35227677287460       59.63895970013836       56.39672076321533
C           65.69709812163192       58.97847082122521       57.62690544491878
C           64.68733655348203       59.97888469671145       58.14052843968872
C           63.50721903026841       60.24245018204919       57.45388894352216
C           62.64149219143133       61.23418370185444       57.87564945639203
C           62.94614232757439       61.99536038192179       58.99076749472584
C           64.11046178714552       61.73635731870920       59.69240797677359
C           64.97074160166032       60.73772345226251       59.27036044073490
C           65.11250634693545       57.59693128668518       57.30727095755598
C           64.87261225188902       56.72208622394445       58.54791028998203
C           64.67380171224849       55.27952727113013       58.14344982015836
C           65.47856571378290       54.27816181436953       58.67175821962625
C           65.28012806453280       52.94962205767162       58.33520368831412
C           64.27222301883398       52.59866053674108       57.45463268330848
C           63.46672753932804       53.58737603190083       56.91592491003286
C           63.66329484664917       54.91196568605343       57.26099366090119
C           63.65998665597174       57.20193139508218       59.35281429330396
C           63.48082357300127       56.42637917053991       60.67291401363988
C           64.14247598334119       57.14901629147084       61.81563154066831
C           65.21177147823856       56.57363848057883       62.48911325043234
C           65.82998959303615       57.23255578718377       63.53767530241765
C           65.38448420280426       58.48234645044149       63.93161051576727
C           64.31967887289744       59.06729669283372       63.26681003485978
C           63.70807552880017       58.40725197694981       62.21778535923984
C           61.98448742064431       56.20347906223779       60.92244535635058
C           61.64306666323502       55.54122038144052       62.26292200720064
C           62.51854010085022       54.34038282129468       62.52228941291664
C           63.24270100469367       54.23830970549388       63.70257322898246
C           64.02823595139819       53.12776622451466       63.96316802959191
C           64.10448833881341       52.09934490836410       63.04006489273832
C           63.39589481864506       52.19221706300546       61.85398403920212
C           62.61087874910085       53.30192456140765       61.60056344753897
C           60.17242282664239       55.08518577554312       62.29922107546561
C           59.14552989145304       56.21443706104377       62.09637937125946
C           58.97541086960101       56.96730035309646       63.39197527015203
C           59.44627417743246       58.26676316128493       63.52599848285690
C           59.31608203788437       58.94893661095821       64.72342204121128
C           58.69513054925248       58.34584710304600       65.80329047879685
C           58.21534810522343       57.05223845330357       65.68022749044033
C           58.36082346254837       56.36935327369142       64.48733104676826
C           57.79442150211921       55.67690357352561       61.58482120954274
C           57.63587832621371       55.70435736334900       60.05122885227827
C           56.19351947325764       55.40967462278486       59.72063081933172
C           55.39035714076514       56.36579424599966       59.11445167164757
C           54.04551047771704       56.12975132210369       58.89426297383188
C           53.48494674768728       54.92199468505697       59.26897937564847
C           54.28583282669219       53.94451838669722       59.83225675564017
C           55.62697858640826       54.18664615540109       60.05830365930353
C           58.57885365897987       54.72043332650032       59.35072130583104
C           58.39311710689582       54.68149520445015       57.82909696727523
C           58.68398669607041       56.02198892135771       57.20180857329297
C           59.92320327710974       56.63130305474338       57.36615589773407
C           60.20741285637206       57.84270240575669       56.76402144828624
C           59.25530347570826       58.46187875986218       55.97377038229713
C           58.01551442527225       57.87064290272590       55.80462333057105
C           57.73214159288604       56.66119206971906       56.41630358942091
C           59.30997894631300       53.62413895386647       57.18888709392935
C           58.96278457718637       52.17751941011126       57.60117832242464
C           58.65154813639137       51.33469127384146       56.39014938587206
C           57.44293680061362       50.65637771440902       56.29274730854562
C           57.12701369479707       49.92467598180671       55.16070949627055
C           58.02042152504545       49.86326998211976       54.10571131540495
C           59.23656178679448       50.51943516848740       54.19583225143689
C           59.54930789876506       51.24513952127584       55.33111226749796
C           60.09839309484484       51.54561514962151       58.42490767957513
C           59.64082874311492       50.28685889755612       59.17260603536408
C           58.57379548622499       50.62711410606084       60.18606172114756
C           58.82578805370472       51.50261284256011       61.23641671604059
C           57.83282776335415       51.82073298875758       62.14571426087689
C           56.57535779022749       51.24894970452038       62.03739727973538
C           56.31757468109812       50.36087019035710       61.00790522577734
C           57.30844361245608       50.06328291271255       60.08851580083373
C           60.79546634404638       49.57972118597984       59.90062579007657
C           61.89471269204493       48.98626312102488       59.00223256607828
C           63.00586347007403       48.47977600445601       59.88787887715663
C           62.80031647531102       47.43396751478014       60.78024479583116
C           63.81860719240774       46.98817541656376       61.60155456465803
C           65.06433890269167       47.58992557207358       61.55388834101525
C           65.28117926662571       48.63928390380670       60.67810561156740
C           64.25980712559118       49.07701508602749       59.85329506440301
C           61.34589820928964       47.88523466711712       58.08862947010816
C           62.40453480511942       47.25766109354259       57.16902669025088
C           63.09359925770148       48.29961875310114       56.32800904982854
C           64.46162878719002       48.50736787425944       56.44902672513523
C           65.11686992749414       49.41460029359606       55.63388904579583
C           64.41045490807348       50.12203427690552       54.67618535789342
C           63.04487605856652       49.92834244072640       54.55185166342454
C           62.39237656974807       49.03169524686284       55.37626697536533
C           61.73304948053214       46.19787322257052       56.27525238660355
C           62.60224257635181       45.75911404121111       55.09098104176307
C           63.93024273701636       45.19886854662342       55.52654366983589
C           65.11170952705990       45.70778336122594       55.00274961396229
C           66.33750248100307       45.18604865549856       55.37564180457242
C           66.40199161363408       44.14268699150675       56.28293714670107
C           65.23119736400091       43.62422706820767       56.80899999955950
C           64.00816049855375       44.14527547024601       56.42960618320254
C           61.86747812890437       44.74010142190161       54.20171124836490
C           62.35390268025273       44.84514280879846       52.74992074632435
C           61.92583325830821       46.16744467767242       52.16211846471178
C           62.86902664655338       47.08535105720865       51.71992714437965
C           62.48407253482055       48.32093766240787       51.23031180641598
C           61.14389884802016       48.66033354190186       51.17366378153351
C           60.19320735531339       47.74421035537231       51.58815504658696
C           60.58122715491168       46.51049678570649       52.07520767133803
C           61.85419092684483       43.67937706011262       51.88792154979026
C           62.67626637807624       43.53995367373491       50.60035675796581
C           64.10452704442089       43.17419984618280       50.91619893449815
C           64.40734922404297       41.95950353389605       51.52311382478538
C           65.71717999614719       41.60061212286803       51.77981358646517
C           66.75320619496414       42.44916272484723       51.42510516876563
C           66.46520958669869       43.66073716612127       50.82388200046908
C           65.15167186907124       44.02106741348895       50.57967237909933
C           62.05900735914270       42.49280326835552       49.64946122288657
C           61.36175257870445       43.12620169191067       48.43678249826725
C           60.19089862041780       43.98003274641651       48.84653439950655
C           59.11718166269308       43.43402441490219       49.54065797383573
C           58.05717702929098       44.22620471236668       49.94019043321335
C           58.03918202898397       45.57361832666064       49.62456150280009
C           59.09163620784757       46.12253579827464       48.91543604063031
C           60.16278771469926       45.33272113525687       48.53746355932360
C           60.92506724080373       42.02601374102027       47.46328212446234
C           60.40325359089545       42.55563552394736       46.11941383787477
H           71.57413230328004       55.55826643364468       56.04411062806238
H           70.44889050111668       56.77543127225538       57.84497169116528
H           71.20643353021291       58.28772873009206       57.35048184156216
H           70.07239083716937       58.16583285445230       55.15389043578601
H           68.15976780080406       57.87938893920375       57.50239804556055
H           69.05572204356538       59.34415487099786       57.11199796174955
H           67.07256644671372       57.94392995271751       55.26542073595771
H           66.74448929972269       60.60864456567529       56.71509269224739
H           65.58248646515432       59.83496893502667       55.64821386590765
H           66.46214429793788       58.85552598670013       58.40035026333389
H           65.80911941172940       57.06269320215085       56.65915385769820
H           65.75806369963033       56.78193436780398       59.19225134611228
H           63.76866673437181       58.26495901272027       59.56720376741151
H           62.76840343652507       57.08097300469607       58.73555911728927
H           63.95394617271192       55.44390937303795       60.57333987611011
H           61.47818292193774       57.16649801990096       60.86800754672780
H           61.61025304915867       55.57778323540120       60.11019086647946
H           61.80605281521788       56.26977889916036       63.06573273913182
H           60.02998131398511       54.32540471754618       61.53364142153272
H           59.98760489102668       54.61065251430881       63.26691455349540
H           59.51756105224692       56.91867254963105       61.34911693302723
H           57.86769152908902       56.71720140845638       59.69968072815937
H           59.60642509350497       55.00836800935921       59.56526498615287
H           58.41185803676899       53.72242639662000       59.75676786297183
H           57.35374689078071       54.41670224014788       57.60535838918422
H           59.22323271176714       53.72453895876568       56.10553152104562
H           60.34735939612511       53.84295342634818       57.45125572993709
H           58.06438402545375       52.19992502460146       58.22623410362574
H           60.92417498095974       51.29788768820955       57.75595824265500
H           60.46679220609978       52.27394306183382       59.14928464843555
H           59.20227764100520       49.59442619747399       58.44787878092777
H           61.26808476265747       50.28443042332716       60.58927855016928
H           60.36888832080689       48.77634357929933       60.50628721921137
H           62.30757001158614       49.77907759431477       58.37038883292409
H           60.89580032402105       47.10130899942583       58.69880722650485
H           60.56189765761212       48.31546820855868       57.46445687897907
H           63.16756343082169       46.76594905966637       57.78419509358174
H           61.47390901076948       45.33374679835639       56.88742389221819
H           60.80945370354210       46.61475271931369       55.86674786739106
H           62.79307733394656       46.64726409582543       54.48023587108285
H           62.05688109694928       43.73106425869452       54.57279854353538
H           60.79286277526332       44.92381663848211       54.24105062912899
H           63.45017267255362       44.80301521237291       52.76922665524056
H           61.91734480413653       42.74970854926006       52.45668917076264
H           60.81068345693914       43.84253807966197       51.61899423468198
H           62.67748977607316       44.51385217897079       50.09784168058651
H           62.84880624485025       41.83546512596256       49.27526036248973
H           61.35314515690253       41.86736903601005       50.19875871846470
H           72.96044827570508       59.07420001497765       56.10566526766033
H           73.84141276488106       60.16654001705912       54.10062414472106
H           73.91671053330802       58.95265871809320       51.95375946349206
H           73.10865625195602       56.62148182827574       51.84036001271070
H           72.21810289014950       55.52679659590671       53.85229184554954
H           69.68546001720577       56.67533019681012       53.46689599284735
H           68.87677485449508       54.51463942868617       52.62327614711503
H           67.82826524955526       52.89388441805165       54.17299868780942
H           67.53285756280910       53.49408288515786       56.54725309045631
H           68.36745894305807       55.63007142636118       57.39022254615708
H           67.15708859223673       58.48391213713704       53.04331801022132
H           67.86599337047356       59.95001814255686       51.20066078407719
H           69.15447635333706       62.00290387050742       51.66706913681573
H           69.71254869875759       62.58459056881490       53.99588868461504
H           68.96765386764562       61.15898400555888       55.83818264184620
H           63.26227853051083       59.67061843957755       56.57119596782737
H           61.72631266090101       61.42102289012976       57.33252280964475
H           62.27852276366995       62.78110549250462       59.31194777450663
H           64.35526293317999       62.31848059089267       60.57001913120656
H           65.87808173699977       60.54653478257480       59.82758115317881
H           64.17735296607668       57.71190555893014       56.76128547808145
H           66.27231559133971       54.53896355246449       59.35991115485361
H           65.91686477326395       52.18728908361000       58.76408861709803
H           64.12081744222446       51.56407557912740       57.17998480135861
H           62.68297337253793       53.32057559196402       56.22170290593123
H           63.01944836705828       55.66597997936577       56.83349192883641
H           65.56073904040635       55.59299792689674       62.19450627284499
H           66.66055892233076       56.76860078187918       64.05136639475846
H           65.86371963534704       58.99732828468532       64.75213411117807
H           63.96575088447593       60.04265964869350       63.57066521389102
H           62.88235395466127       58.88049827490104       61.70807229344948
H           63.19917815959744       55.04522430362255       64.42267215541239
H           64.58357464574567       53.06754324815682       64.88955122797999
H           64.71525968682741       51.22961037914527       63.23727058348459
H           63.46143078329514       51.39312283931775       61.12909159064986
H           62.07753247296708       53.36125466912057       60.66308425703547
H           59.91861336511309       58.75834010363907       62.68691641184076
H           59.70483690808651       59.95397745332382       64.81211809833469
H           58.58747934748892       58.88031963104791       66.73713582292474
H           57.73159981628842       56.57142680392504       66.51845523599607
H           57.99365235533013       55.35593788239471       64.41228075025404
H           57.64035056331420       54.65977636160037       61.94459369898245
H           56.99494114265119       56.29377086528146       62.00454509704624
H           55.81947421216977       57.31277786715054       58.81967313777908
H           53.43125676703977       56.89340581788975       58.43876703899938
H           52.42779451846895       54.74771638116784       59.12706406506893
H           53.86590867817035       52.99126613648218       60.11512045234134
H           56.23135500435412       53.41435256226860       60.51069685883039
H           60.68025075749253       56.15306539365421       57.97033784630528
H           61.17087229502183       58.30948091077467       56.91659550357379
H           59.48311713783333       59.39880376628205       55.48958993369053
H           57.26624069685870       58.35510763915541       55.19369589472988
H           56.76061944215211       56.20539634686174       56.28115014134188
H           56.73375425382733       50.71531426720940       57.10656347703625
H           56.17102522444438       49.42393566071357       55.09529624362450
H           57.77499229029411       49.31135069864442       53.21065557234611
H           59.93882431422696       50.47268435636408       53.37496282750443
H           60.49954345823951       51.75728124426515       55.38385807460002
H           59.80601513459776       51.94220889708055       61.35543160673641
H           58.04371723454604       52.52088477131723       62.94072118460595
H           55.80244545394034       51.49981749529515       62.75034706671912
H           55.34426861343498       49.90032310907731       60.91558111302565
H           57.09850339634921       49.37450672471351       59.28467438831530
H           61.83215643448182       46.96037099744451       60.84517928911072
H           63.63822878638481       46.17192053641124       62.28627933875785
H           65.86160246192237       47.24453237745652       62.19725414279677
H           66.25057926939608       49.11749724968130       60.63713673203397
H           64.44168457394936       49.89421674940199       59.16841161748050
H           65.02330629362817       47.94385197720201       57.18263906397542
H           66.18381206819106       49.56040131680832       55.73944368784401
H           64.92548281613777       50.82108252120185       54.03144649940673
H           62.48776496010029       50.47063465540171       53.80297021458379
H           61.32802999839750       48.89261251260917       55.26042636032335
H           65.06903765539170       46.52754942747630       54.29844453056233
H           67.24949411052610       45.59345470810091       54.96011916367815
H           67.35960638799430       43.73625803252491       56.57703674402680
H           65.26883774454329       42.80964136440061       57.51889361306263
H           63.10914075634385       43.72181770050635       56.85196613627313
H           63.91987481787073       46.82896790632585       51.76088834286657
H           63.23424801263353       49.01998514186759       50.88981903301505
H           60.85024057056332       49.63379063504767       50.80642321344333
H           59.14278059147433       47.98900227521906       51.53254147179567
H           59.82245118016735       45.80945782941875       52.38954137091540
H           63.60875080446050       41.28318040006821       51.79206951114117
H           65.93471381915631       40.65241146301973       52.25190767787716
H           67.77861304963108       42.16463408206704       51.61514709916970
H           67.26259688883437       44.32857466946820       50.53392267466023
H           64.94372298768317       44.97331283944902       50.11154411248775
H           60.98468751568260       45.76988726536985       47.98699169267262
H           59.08487835420039       47.17150213304416       48.65955426208311
H           57.20676294427911       46.18697404381381       49.93395749302732
H           57.24242673666432       43.79361697738305       50.50307001366738
H           59.11187794722593       42.37976502883194       49.77665347419380
H           73.89230052409249       55.71896171400101       56.91885985227351
H           73.50187270583203       57.24535711557763       57.71041592256226
H           72.70820143710137       55.75569342767529       58.22878105791425
H           62.09325948933719       43.76224089410810       47.92336660531875
H           61.77607668708472       41.36381558175334       47.28136340422766
H           60.13441911719806       41.43138386343292       47.92525309346784
C           60.04768959585869       41.34683624032620       45.24424346064406
C           61.41241212725548       43.46865746659027       45.46945188901682
C           61.09353280236259       44.79754545596933       45.21637694612206
C           62.01962013951527       45.66159148415613       44.65930643343457
C           63.29179898494532       45.20971311004811       44.35612053167907
C           63.62489355427368       43.88929222198713       44.60554786438689
C           62.69003482247982       43.02508114596484       45.14665689036515
H           60.10892861035439       45.16638822941800       45.46216969233497
H           61.75048599854533       46.69212494874684       44.47579691399628
H           64.02043462296282       45.88194961901519       43.92644058061245
H           64.62418358147200       43.53828895522685       44.38463165681527
H           62.96052367662071       41.99497601958517       45.32390095298258
C           59.59319268310241       41.71007686886048       43.83005893528149
H           60.91644102031626       40.68859066579344       45.17367210048370
H           59.24590748376261       40.78984919238088       45.73508049777451
C           59.26803116759621       40.45614021496326       43.07044445124444
C           57.96207519911295       40.13085610497405       42.72782003276831
C           57.67411849565398       38.94196279008553       42.07820052177448
C           58.69264225253377       38.06265168779064       41.75561589904004
C           60.00093368730339       38.38125610335001       42.08136609545721
C           60.28349738699139       39.56646318407030       42.73335353397893
H           57.15602091849220       40.81043471628426       42.96857345187657
H           56.64986259314053       38.69913948068628       41.83270977680090
H           58.46896419889750       37.13361233257899       41.25058544567708
H           60.80412594460584       37.70470053676107       41.82715402091338
H           61.30866268825297       39.81383379978728       42.96938664588181
H           59.49002984660624       43.13255764531052       46.30422521588178
H           58.71521031009306       42.35478507708007       43.88525708883024
H           60.39559704550654       42.25507674430570       43.32752362822286
C           47.97319114063181       62.07402750036394       32.83123983514686
C           48.08453471969617       63.22505798943605       33.60092441281237
C           48.16567743224839       63.08948766414180       34.98207513179384
C           48.14374063385166       61.84130106010771       35.57476046816002
C           48.04395800516687       60.70109987181088       34.79639390942456
C           47.95532617136067       60.82141741057674       33.42138893529542
C           48.12644181685291       64.58573959951669       32.94898310714912
C           46.98362749307991       65.46935727898079       33.45231207105591
C           49.48463751943711       65.25805677754141       33.19596244441400
C           50.61910332194408       64.51292082363213       32.48156109967668
C           50.51042967748451       64.68345755395745       30.98689702610891
C           50.61605104212762       65.93792273692409       30.39661498795048
C           50.51243023779526       66.08789584759774       29.02569552152163
C           50.30236617256111       64.98296486585910       28.21768055167318
C           50.20531194759097       63.72750259274447       28.79178579962978
C           50.31118220934581       63.58194641498454       30.16410112153822
C           52.00472865110721       64.97429242399009       32.96427436156925
C           52.44293070387867       64.34520534478162       34.29995473980085
C           53.59430086398076       65.14002195402637       34.86445970440164
C           53.46598474963781       65.80707667748680       36.07801409535656
C           54.52582639251737       66.51376089676624       36.61899475792239
C           55.73492134287676       66.57200175969034       35.94826484975783
C           55.87000746017302       65.92795839424736       34.72969394762102
C           54.80914702466574       65.22254276761966       34.19192385989516
C           52.79908265094284       62.86343180417489       34.11424698270925
C           52.99531829732793       62.07673665964758       35.42430358640506
C           52.84007489505653       60.61267463230244       35.09338712115863
C           53.85330064239697       59.90091664850196       34.46179708439846
C           53.66952311702620       58.58061956355159       34.09370289072650
C           52.46134463728617       57.95154030529760       34.33901482775892
C           51.44412815069349       58.65236665608483       34.96160213335962
C           51.63423129063197       59.96956266220187       35.34023404535250
C           54.34358957057257       62.40857815926570       36.07012832522641
C           54.70474082465185       61.53545847348385       37.27775282703473
C           53.56601337611828       61.46924481737832       38.26677159824609
C           52.95527531359864       60.25529812796239       38.55837048252477
C           51.95234991342753       60.17033616687271       39.50804674034899
C           51.53189934175062       61.30769483085618       40.17630799173398
C           52.10483825538626       62.53017025630127       39.86790744858140
C           53.11068900684105       62.60824561764743       38.92154806888995
C           55.95359967163949       62.08730777341567       37.99020818263652
C           57.20537131122190       62.22618081537240       37.10955928491215
C           58.22312286822719       63.09339999261863       37.80975471568490
C           58.58076285577515       64.32064481249070       37.26390630472137
C           59.51959659063467       65.12917971483016       37.87925048102880
C           60.11304532186511       64.72571698578223       39.06284886254094
C           59.75258532443837       63.51385518291515       39.62468642432106
C           58.81675018825943       62.70618919905340       39.00478174130117
C           57.80408712907249       60.86375408043312       36.74467968916553
C           58.92732715303215       60.99013626427453       35.70559031261022
C           58.36714651512913       61.52617078445156       34.41321769508338
C           57.43820447686262       60.79801686498941       33.67810621117118
C           56.89057003962915       61.31399849110793       32.51703572722026
C           57.26663828306026       62.56866515631557       32.06761973283923
C           58.20520781779856       63.29503171735753       32.77995427046223
C           58.75028015883329       62.77531328372164       33.94109077092305
C           59.63884924409680       59.64592557618173       35.47763876439222
C           60.55740363783926       59.27421165088290       36.64906157885071
C           61.66368896432601       60.28488761507661       36.81896167862921
C           62.60012616439440       60.51181582653872       35.81722923314219
C           63.61118999979180       61.43952206203874       35.99101948567687