      -----------------------------------------------------------      
     |                   =====================                   |     
     |                           x T B                           |     
     |                   =====================                   |     
     |                         S. Grimme                         |     
     |          Mulliken Center for Theoretical Chemistry        |     
     |                    University of Bonn                     |     
      -----------------------------------------------------------      

   * xtb version 6.6.1 (8d0f1dd) compiled by 'stahn@M-Bot' on 2023-08-01

   xtb is free software: you can redistribute it and/or modify it under
   the terms of the GNU Lesser General Public License as published by
   the Free Software Foundation, either version 3 of the License, or
   (at your option) any later version.
   
   xtb is distributed in the hope that it will be useful,
   but WITHOUT ANY WARRANTY; without even the implied warranty of
   MERCHANTABILITY or FITNESS FOR A PARTICULAR PURPOSE.  See the
   GNU Lesser General Public License for more details.
   
   Cite this work as:
   * C. Bannwarth, E. Caldeweyher, S. Ehlert, A. Hansen, P. Pracht,
     J. Seibert, S. Spicher, S. Grimme, WIREs Comput. Mol. Sci., 2020, 11,
     e01493. DOI: 10.1002/wcms.1493
   
   for GFN2-xTB:
   * C. Bannwarth, S. Ehlert and S. Grimme., J. Chem. Theory Comput., 2019,
     15, 1652-1671. DOI: 10.1021/acs.jctc.8b01176
   for GFN1-xTB:
   * S. Grimme, C. Bannwarth, P. Shushkov, J. Chem. Theory Comput., 2017,
     13, 1989-2009. DOI: 10.1021/acs.jctc.7b00118
   for GFN0-xTB:
   * P. Pracht, E. Caldeweyher, S. Ehlert, S. Grimme, ChemRxiv, 2019, preprint.
     DOI: 10.26434/chemrxiv.8326202.v1
   for GFN-FF:
   * S. Spicher and S. Grimme, Angew. Chem. Int. Ed., 2020, 59, 15665-15673.
     DOI: 10.1002/anie.202004239
   
   for ALPB and GBSA implicit solvation:
   * S. Ehlert, M. Stahn, S. Spicher, S. Grimme, J. Chem. Theory Comput.,
     2021, 17, 4250-4261. DOI: 10.1021/acs.jctc.1c00471
   
   for DFT-D4:
   * E. Caldeweyher, C. Bannwarth and S. Grimme, J. Chem. Phys., 2017,
     147, 034112. DOI: 10.1063/1.4993215
   * E. Caldeweyher, S. Ehlert, A. Hansen, H. Neugebauer, S. Spicher,
     C. Bannwarth and S. Grimme, J. Chem. Phys., 2019, 150, 154122.
     DOI: 10.1063/1.5090222
   * E. Caldeweyher, J.-M. Mewes, S. Ehlert and S. Grimme, Phys. Chem. Chem. Phys.
     2020, 22, 8499-8512. DOI: 10.1039/D0CP00502A
   
   for sTDA-xTB:
   * S. Grimme and C. Bannwarth, J. Chem. Phys., 2016, 145, 054103.
     DOI: 10.1063/1.4959605
   
   in the mass-spec context:
   * V. Asgeirsson, C. Bauer and S. Grimme, Chem. Sci., 2017, 8, 4879.
     DOI: 10.1039/c7sc00601b
   * J. Koopman and S. Grimme, ACS Omega 2019, 4, 12, 15120-15133.
     DOI: 10.1021/acsomega.9b02011
   
   for metadynamics refer to:
   * S. Grimme, J. Chem. Theory Comput., 2019, 155, 2847-2862
     DOI: 10.1021/acs.jctc.9b00143
   
   for SPH calculations refer to:
   * S. Spicher and S. Grimme, J. Chem. Theory Comput., 2021, 17, 1701-1714
     DOI: 10.1021/acs.jctc.0c01306
   
   with help from (in alphabetical order)
   P. Atkinson, C. Bannwarth, F. Bohle, G. Brandenburg, E. Caldeweyher
   M. Checinski, S. Dohm, S. Ehlert, S. Ehrlich, I. Gerasimov, C. Hölzer
   A. Katbashev, J. Koopman, C. Lavigne, S. Lehtola, F. März, M. Müller,
   F. Musil, H. Neugebauer, J. Pisarek, C. Plett, P. Pracht, F. Pultar,
   J. Seibert, P. Shushkov, S. Spicher, M. Stahn, M. Steiner, T. Strunk,
   J. Stückrath, T. Rose, and J. Unsleber
   
 * started run on 2024/10/04 at 20:17:13.226     

           -------------------------------------------------
          |                Calculation Setup                |
           -------------------------------------------------

          program call               : /home/abt-grimme/AK-bin/xtb input.xyz --input input.inp --opt
          hostname                   : boar008.thch.uni-bonn.de
          coordinate file            : input.xyz
          omp threads                :                     8

   ID    Z sym.   atoms
    1    6 C      1-146, 294-300, 306, 309-314, 323-468, 616-622, 628,
                  631-636, 645-790, 938-944, 950, 953-958, 967-1112,
                  1260-1266, 1272, 1275-1280, 1289-1434, 1582-1588, 1594,
                  1597-1602, 1611-1756, 1904-1910, 1916, 1919-1924,
                  1933-2078, 2226-2232, 2238, 2241-2246, 2255-2400,
                  2548-2554, 2560, 2563-2568, 2577-2722, 2870-2876, 2882,
                  2885-2890, 2899-3044, 3192-3198, 3204, 3207-3212,
                  3221-3366, 3514-3520, 3526, 3529-3534, 3543-3688,
                  3836-3842, 3848, 3851-3856
    2    1 H      147-293, 301-305, 307, 308, 315-322, 469-615, 623-627, 629,
                  630, 637-644, 791-937, 945-949, 951, 952, 959-966,
                  1113-1259, 1267-1271, 1273, 1274, 1281-1288, 1435-1581,
                  1589-1593, 1595, 1596, 1603-1610, 1757-1903, 1911-1915,
                  1917, 1918, 1925-1932, 2079-2225, 2233-2237, 2239, 2240,
                  2247-2254, 2401-2547, 2555-2559, 2561, 2562, 2569-2576,
                  2723-2869, 2877-2881, 2883, 2884, 2891-2898, 3045-3191,
                  3199-3203, 3205, 3206, 3213-3220, 3367-3513, 3521-3525,
                  3527, 3528, 3535-3542, 3689-3835, 3843-3847, 3849, 3850,
                  3857-3864

molecular fragmentation (1/2 indicates fragments):
111111111111111111111111111111111111111111111111111111111111111111111111
111111111111111111111111111111111111111111111111111111111111111111111111
111111111111111111111111111111111111111111111111111111111111111111111111
111111111111111111111111111111111111111111111111111111111111111111111111
111111111111111111111111111111111122222222222222222222222222222222222222
222222222222222222222222222222222222222222222222222222222222222222222222
222222222222222222222222222222222222222222222222222222222222222222222222
222222222222222222222222222222222222222222222222222222222222222222222222
222222222222222222222222222222222222222222222222222222222222222222222222
222222222222222222222222222222222222222222222222222222222222222222222222
222222222222222222222222222222222222222222222222222222222222222222222222
222222222222222222222222222222222222222222222222222222222222222222222222
222222222222222222222222222222222222222222222222222222222222222222222222
222222222222222222222222222222222222222222222222222222222222222222222222
222222222222222222222222222222222222222222222222222222222222222222222222
222222222222222222222222222222222222222222222222222222222222222222222222
222222222222222222222222222222222222222222222222222222222222222222222222
222222222222222222222222222222222222222222222222222222222222222222222222
222222222222222222222222222222222222222222222222222222222222222222222222
222222222222222222222222222222222222222222222222222222222222222222222222
222222222222222222222222222222222222222222222222222222222222222222222222
222222222222222222222222222222222222222222222222222222222222222222222222
222222222222222222222222222222222222222222222222222222222222222222222222
222222222222222222222222222222222222222222222222222222222222222222222222
222222222222222222222222222222222222222222222222222222222222222222222222
222222222222222222222222222222222222222222222222222222222222222222222222
222222222222222222222222222222222222222222222222222222222222222222222222
222222222222222222222222222222222222222222222222222222222222222222222222
222222222222222222222222222222222222222222222222222222222222222222222222
222222222222222222222222222222222222222222222222222222222222222222222222
222222222222222222222222222222222222222222222222222222222222222222222222
222222222222222222222222222222222222222222222222222222222222222222222222
222222222222222222222222222222222222222222222222222222222222222222222222
222222222222222222222222222222222222222222222222222222222222222222222222
222222222222222222222222222222222222222222222222222222222222222222222222
222222222222222222222222222222222222222222222222222222222222222222222222
222222222222222222222222222222222222222222222222222222222222222222222222
222222222222222222222222222222222222222222222222222222222222222222222222
222222222222222222222222222222222222222222222222222222222222222222222222
222222222222222222222222222222222222222222222222222222222222222222222222
222222222222222222222222222222222222222222222222222222222222222222222222
222222222222222222222222222222222222222222222222222222222222222222222222
222222222222222222222222222222222222222222222222222222222222222222222222
222222222222222222222222222222222222222222222222222222222222222222222222
222222222222222222222222222222222222222222222222222222222222222222222222
222222222222222222222222222222222222222222222222222222222222222222222222
222222222222222222222222222222222222222222222222222222222222222222222222
222222222222222222222222222222222222222222222222222222222222222222222222
222222222222222222222222222222222222222222222222222222222222222222222222
222222222222222222222222222222222222222222222222222222222222222222222222
222222222222222222222222222222222222222222222222222222222222222222222222
222222222222222222222222222222222222222222222222222222222222222222222222
222222222222222222222222222222222222222222222222222222222222222222222222
222222222222222222222222222222222222222222222222
# atoms in fragment 1/2:   322  3542
 fragment masses (1/2) :     2085.00    22935.05
CMA distance (Bohr)    :  34.239
constraining FC (au)   :  0.0500

           -------------------------------------------------
          |                 G F N 2 - x T B                 |
           -------------------------------------------------

        Reference                      10.1021/acs.jctc.8b01176
      * Hamiltonian:
        H0-scaling (s, p, d)           1.850000    2.230000    2.230000
        zeta-weighting                 0.500000
      * Dispersion:
        s8                             2.700000
        a1                             0.520000
        a2                             5.000000
        s9                             5.000000
      * Repulsion:
        kExp                           1.500000    1.000000
        rExp                           1.000000
      * Coulomb:
        alpha                          2.000000
        third order                    shell-resolved
        anisotropic                    true
        a3                             3.000000
        a5                             4.000000
        cn-shift                       1.200000
        cn-exp                         4.000000
        max-rad                        5.000000


          ...................................................
          :                      SETUP                      :
          :.................................................:
          :  # basis functions                9624          :
          :  # atomic orbitals                9624          :
          :  # shells                         5784          :
          :  # electrons                      9624          :
          :  max. iterations                   250          :
          :  Hamiltonian                  GFN2-xTB          :
          :  restarted?                      false          :
          :  GBSA solvation                  false          :
          :  PC potential                    false          :
          :  electronic temp.          300.0000000     K    :
          :  accuracy                    1.0000000          :
          :  -> integral cutoff          0.2500000E+02      :
          :  -> integral neglect         0.1000000E-07      :
          :  -> SCF convergence          0.1000000E-05 Eh   :
          :  -> wf. convergence          0.1000000E-03 e    :
          :  Broyden damping             0.4000000          :
          ...................................................

 iter      E             dE          RMSdq      gap      omega  full diag
   1  -5195.7394049 -0.519574E+04  0.371E+00    4.32       0.0  T
   2  -5198.3281325 -0.258873E+01  0.219E+00    4.30       1.0  T
   3  -5198.2487129  0.794196E-01  0.496E-01    4.09       1.0  T
   4  -5198.4554264 -0.206714E+00  0.244E-01    3.96       1.0  T
   5  -5198.6142057 -0.158779E+00  0.469E-02    4.05       1.0  T
   6  -5198.6164558 -0.225006E-02  0.291E-02    4.04       1.0  T
   7  -5198.6177654 -0.130963E-02  0.113E-02    4.06       1.0  T
   8  -5198.6180759 -0.310445E-03  0.294E-03    4.06       1.0  T
   9  -5198.6180929 -0.170053E-04  0.128E-03    4.06       1.3  T
  10  -5198.6180946 -0.174304E-05  0.570E-04    4.06       2.8  T
  11  -5198.6180950 -0.391084E-06  0.301E-04    4.06       5.3  T
  12  -5198.6180952 -0.193650E-06  0.103E-04    4.06      15.6  T

   *** convergence criteria satisfied after 12 iterations ***

         #    Occupation            Energy/Eh            Energy/eV
      -------------------------------------------------------------
         1        2.0000           -0.6515669             -17.7300
       ...           ...                  ...                  ...
      4806        2.0000           -0.3822223             -10.4008
      4807        2.0000           -0.3816206             -10.3844
      4808        2.0000           -0.3814044             -10.3785
      4809        2.0000           -0.3813386             -10.3768
      4810        2.0000           -0.3805447             -10.3551
      4811        2.0000           -0.3795296             -10.3275
      4812        2.0000           -0.3775375             -10.2733 (HOMO)
      4813                         -0.2284862              -6.2174 (LUMO)
      4814                         -0.2279446              -6.2027
      4815                         -0.2276587              -6.1949
      4816                         -0.2274498              -6.1892
      4817                         -0.2274346              -6.1888
       ...                                ...                  ...
      9624                          0.6828200              18.5805
      -------------------------------------------------------------
                  HL-Gap            0.1490513 Eh            4.0559 eV
             Fermi-level           -0.3030118 Eh           -8.2454 eV

 SCC (total)                   0 d,  0 h, 44 min, 38.327 sec
 SCC setup                      ...        0 min,  0.712 sec (  0.027%)
 Dispersion                     ...        0 min,  6.818 sec (  0.255%)
 classical contributions        ...        0 min,  0.156 sec (  0.006%)
 integral evaluation            ...        0 min, 12.583 sec (  0.470%)
 iterations                     ...       39 min,  2.455 sec ( 87.460%)
 molecular gradient             ...        4 min, 50.984 sec ( 10.864%)
 printout                       ...        0 min, 24.618 sec (  0.919%)

         :::::::::::::::::::::::::::::::::::::::::::::::::::::
         ::                     SUMMARY                     ::
         :::::::::::::::::::::::::::::::::::::::::::::::::::::
         :: total energy           -5104.086631306453 Eh    ::
         :: gradient norm              0.024125373655 Eh/a0 ::
         :: HOMO-LUMO gap              4.055891519152 eV    ::
         ::.................................................::
         :: SCC energy             -5198.618095183435 Eh    ::
         :: -> isotropic ES            0.264587037125 Eh    ::
         :: -> anisotropic ES          0.794916141619 Eh    ::
         :: -> anisotropic XC          3.252799663900 Eh    ::
         :: -> dispersion             -7.014156833642 Eh    ::
         :: repulsion energy          93.384093759094 Eh    ::
         :: add. restraining           0.000000000000 Eh    ::
         :: total charge              -0.000000000030 e     ::
         :::::::::::::::::::::::::::::::::::::::::::::::::::::

      ----------------------------------------------------------- 
     |              Fast Inertial Relaxation Engine              |
      ----------------------------------------------------------- 

          ...................................................
          :                      SETUP                      :
          :.................................................:
          :   energy convergence        0.5000000E-05 Eh    :
          :   grad. convergence         0.1000000E-02 Eh/a0 :
          :   optimization log               true           :
          :   writing optlog all                1     steps :
          :   Hessian reset                    20     steps :
          :   time step scaling                 5     steps :
          :   maximium step len.        1.0000000     a0    :
          :   initial time step         0.2500000     fs    :
          :   maximum time step         1.2500000     fs    :
          :   power reset thr           0.0000000     au    :
          :   alpha parameter           0.1000000           :
          :   BFGS update                   false           :
          :   preconditioning               false           :
          ...................................................

........................................................................
.............................. CYCLE    1 ..............................
........................................................................

 iter      E             dE          RMSdq      gap      omega  full diag
   1  -5198.6191852 -0.519862E+04  0.333E-04    4.06       0.0  T
   2  -5198.6191852 -0.171058E-07  0.204E-04    4.06       7.9  T
   3  -5198.6191852  0.342716E-07  0.907E-05    4.06      17.7  T
     SCC iter.                  ...        9 min, 45.746 sec
     gradient                   ...        4 min, 50.954 sec
 * total energy  : -5104.0866974 Eh     change    :  -0.6605930E-04 Eh
   gradient norm :     0.0226247 Eh/a0  converged?    E=F G=F D=F
   time step     :     0.2500000 fs     power     :   0.3392544E-08
   step length   :     0.0028274 a0     speed     :   0.2735702E-03

........................................................................
.............................. CYCLE    2 ..............................
........................................................................

 iter      E             dE          RMSdq      gap      omega  full diag
   1  -5198.6208038 -0.519862E+04  0.488E-04    4.06       0.0  T
   2  -5198.6208038 -0.325708E-07  0.298E-04    4.06       5.4  T
   3  -5198.6208038  0.459313E-07  0.107E-04    4.06      15.0  T
     SCC iter.                  ...        9 min, 47.965 sec
     gradient                   ...        4 min, 50.600 sec
 * total energy  : -5104.0867867 Eh     change    :  -0.8930738E-04 Eh
   gradient norm :     0.0205060 Eh/a0  converged?    E=F G=F D=F
   time step     :     0.2500000 fs     power     :   0.4499869E-08
   step length   :     0.0041524 a0     speed     :   0.4017665E-03

........................................................................
.............................. CYCLE    3 ..............................
........................................................................

 iter      E             dE          RMSdq      gap      omega  full diag
   1  -5198.6229449 -0.519862E+04  0.628E-04    4.06       0.0  T
   2  -5198.6229450 -0.502077E-07  0.383E-04    4.06       4.2  T
   3  -5198.6229449  0.680284E-07  0.128E-04    4.06      12.6  T
     SCC iter.                  ...        9 min, 46.755 sec
     gradient                   ...        4 min, 51.703 sec
 * total energy  : -5104.0868887 Eh     change    :  -0.1020266E-03 Eh
   gradient norm :     0.0179807 Eh/a0  converged?    E=F G=F D=F
   time step     :     0.2500000 fs     power     :   0.5031925E-08
   step length   :     0.0053491 a0     speed     :   0.5175551E-03

........................................................................
.............................. CYCLE    4 ..............................
........................................................................

 iter      E             dE          RMSdq      gap      omega  full diag
   1  -5198.6256057 -0.519863E+04  0.749E-04    4.06       0.0  T
   2  -5198.6256058 -0.661885E-07  0.458E-04    4.06       3.5  T
   3  -5198.6256057  0.104074E-06  0.152E-04    4.06      10.6  T
     SCC iter.                  ...        9 min, 47.125 sec
     gradient                   ...        4 min, 51.409 sec
 * total energy  : -5104.0869926 Eh     change    :  -0.1038866E-03 Eh
   gradient norm :     0.0153323 Eh/a0  converged?    E=F G=F D=F
   time step     :     0.2500000 fs     power     :   0.4993115E-08
   step length   :     0.0063856 a0     speed     :   0.6178429E-03

........................................................................
.............................. CYCLE    5 ..............................
........................................................................

 iter      E             dE          RMSdq      gap      omega  full diag
   1  -5198.6287847 -0.519863E+04  0.847E-04    4.06       0.0  T
   2  -5198.6287848 -0.776727E-07  0.521E-04    4.06       3.1  T
   3  -5198.6287847  0.155436E-06  0.178E-04    4.06       9.1  T
     SCC iter.                  ...        9 min, 45.690 sec
     gradient                   ...        4 min, 50.383 sec
 * total energy  : -5104.0870889 Eh     change    :  -0.9633748E-04 Eh
   gradient norm :     0.0129122 Eh/a0  converged?    E=F G=F D=F
   time step     :     0.2500000 fs     power     :   0.4491593E-08
   step length   :     0.0072364 a0     speed     :   0.7001623E-03

........................................................................
.............................. CYCLE    6 ..............................
........................................................................

 iter      E             dE          RMSdq      gap      omega  full diag
   1  -5198.6328876 -0.519863E+04  0.102E-03    4.06       0.0  T
   2  -5198.6328877 -0.102565E-06  0.632E-04    4.06       2.5  T
   3  -5198.6328874  0.310121E-06  0.239E-04    4.06       6.7  T
     SCC iter.                  ...        9 min, 47.727 sec
     gradient                   ...        4 min, 49.933 sec
 * total energy  : -5104.0871791 Eh     change    :  -0.9018652E-04 Eh
   gradient norm :     0.0109255 Eh/a0  converged?    E=F G=F D=F
   time step     :     0.2750000 fs     power     :   0.3615337E-08
   step length   :     0.0087443 a0     speed     :   0.7691421E-03

........................................................................
.............................. CYCLE    7 ..............................
........................................................................

 iter      E             dE          RMSdq      gap      omega  full diag
   1  -5198.6380531 -0.519864E+04  0.118E-03    4.06       0.0  T
   2  -5198.6380533 -0.122875E-06  0.743E-04    4.06       2.2  T
   3  -5198.6380527  0.563798E-06  0.314E-04    4.06       5.1  T
     SCC iter.                  ...        9 min, 47.690 sec
     gradient                   ...        4 min, 49.937 sec
 * total energy  : -5104.0872553 Eh     change    :  -0.7618340E-04 Eh
   gradient norm :     0.0098032 Eh/a0  converged?    E=F G=F D=F
   time step     :     0.3025000 fs     power     :   0.2561483E-08
   step length   :     0.0102159 a0     speed     :   0.8168947E-03

........................................................................
.............................. CYCLE    8 ..............................
........................................................................

 iter      E             dE          RMSdq      gap      omega  full diag
   1  -5198.6442955 -0.519864E+04  0.132E-03    4.06       0.0  T
   2  -5198.6442957 -0.140856E-06  0.839E-04    4.06       1.9  T
   3  -5198.6442948  0.881681E-06  0.391E-04    4.06       4.1  T
     SCC iter.                  ...        9 min, 47.530 sec
     gradient                   ...        4 min, 50.500 sec
 * total energy  : -5104.0873138 Eh     change    :  -0.5853205E-04 Eh
   gradient norm :     0.0094216 Eh/a0  converged?    E=F G=F D=F
   time step     :     0.3327500 fs     power     :   0.1583417E-08
   step length   :     0.0115012 a0     speed     :   0.8360678E-03

........................................................................
.............................. CYCLE    9 ..............................
........................................................................

 iter      E             dE          RMSdq      gap      omega  full diag
   1  -5198.6514114 -0.519865E+04  0.142E-03    4.06       0.0  T
   2  -5198.6514115 -0.164876E-06  0.909E-04    4.06       1.8  T
   3  -5198.6514105  0.108070E-05  0.444E-04    4.06       3.6  T
   4  -5198.6514117 -0.127562E-05  0.506E-05    4.06      31.8  T
   5  -5198.6514117 -0.685759E-08  0.232E-05    4.06      69.3  T
     SCC iter.                  ...       16 min, 18.678 sec
     gradient                   ...        4 min, 51.971 sec
 * total energy  : -5104.0873567 Eh     change    :  -0.4290328E-04 Eh
   gradient norm :     0.0091695 Eh/a0  converged?    E=F G=F D=F
   time step     :     0.3660250 fs     power     :   0.7967847E-09
   step length   :     0.0125100 a0     speed     :   0.8267294E-03

........................................................................
.............................. CYCLE   10 ..............................
........................................................................

 iter      E             dE          RMSdq      gap      omega  full diag
   1  -5198.6588817 -0.519866E+04  0.149E-03    4.06       0.0  T
   2  -5198.6588819 -0.191868E-06  0.943E-04    4.06       1.7  T
   3  -5198.6588808  0.117732E-05  0.485E-04    4.06       3.3  T
   4  -5198.6588822 -0.143035E-05  0.531E-05    4.06      30.3  T
   5  -5198.6588822 -0.901855E-08  0.227E-05    4.06      70.8  T
     SCC iter.                  ...       16 min, 15.496 sec
     gradient                   ...        4 min, 51.039 sec
 * total energy  : -5104.0873829 Eh     change    :  -0.2618935E-04 Eh
   gradient norm :     0.0088667 Eh/a0  converged?    E=F G=F D=F
   time step     :     0.4026275 fs     power     :   0.1846038E-09
   step length   :     0.0132307 a0     speed     :   0.7948670E-03

........................................................................
.............................. CYCLE   11 ..............................
........................................................................

 iter      E             dE          RMSdq      gap      omega  full diag
   1  -5198.6659678 -0.519867E+04  0.150E-03    4.06       0.0  T
   2  -5198.6659680 -0.205366E-06  0.932E-04    4.06       1.7  T
   3  -5198.6659669  0.102706E-05  0.465E-04    4.06       3.5  T
   4  -5198.6659682 -0.123721E-05  0.581E-05    4.06      27.7  T
   5  -5198.6659682 -0.126074E-07  0.221E-05    4.06      72.7  T
     SCC iter.                  ...       16 min, 17.992 sec
     gradient                   ...        4 min, 49.618 sec
 * total energy  : -5104.0873942 Eh     change    :  -0.1129595E-04 Eh
   gradient norm :     0.0089534 Eh/a0  converged?    E=F G=F D=F
   time step     :     0.4428903 fs     power     :  -0.2920660E-09
   step length   :     0.0136500 a0     speed     :   0.7455047E-03

........................................................................
.............................. CYCLE   12 ..............................
........................................................................
 * reset velocities

 iter      E             dE          RMSdq      gap      omega  full diag
   1  -5198.6658135 -0.519867E+04  0.380E-05    4.06       0.0  T
   2  -5198.6658135 -0.422915E-09  0.289E-05    4.06      55.6  T
   3  -5198.6658135 -0.117325E-09  0.144E-05    4.06     111.4  T
     SCC iter.                  ...        9 min, 48.629 sec
     gradient                   ...        4 min, 50.101 sec
 * total energy  : -5104.0873979 Eh     change    :  -0.3648480E-05 Eh
   gradient norm :     0.0087741 Eh/a0  converged?    E=T G=F D=T
   time step     :     0.2214451 fs     power     :   0.2164215E-09
   step length   :     0.0004117 a0     speed     :   0.4496548E-04

........................................................................
.............................. CYCLE   13 ..............................
........................................................................

 iter      E             dE          RMSdq      gap      omega  full diag
   1  -5198.6655048 -0.519867E+04  0.761E-05    4.06       0.0  T
   2  -5198.6655048 -0.149157E-08  0.545E-05    4.06      29.5  T
   3  -5198.6655048  0.218188E-08  0.240E-05    4.06      67.0  T
     SCC iter.                  ...        9 min, 49.176 sec
     gradient                   ...        4 min, 51.018 sec
 * total energy  : -5104.0874049 Eh     change    :  -0.6987779E-05 Eh
   gradient norm :     0.0084232 Eh/a0  converged?    E=F G=F D=T
   time step     :     0.2214451 fs     power     :   0.4112468E-09
   step length   :     0.0008151 a0     speed     :   0.8902947E-04

........................................................................
.............................. CYCLE   14 ..............................
........................................................................

 iter      E             dE          RMSdq      gap      omega  full diag
   1  -5198.6650438 -0.519867E+04  0.114E-04    4.06       0.0  T
   2  -5198.6650438 -0.291038E-08  0.796E-05    4.06      20.2  T
   3  -5198.6650438  0.519412E-08  0.343E-05    4.06      46.9  T
     SCC iter.                  ...        9 min, 48.918 sec
     gradient                   ...        4 min, 52.503 sec
 * total energy  : -5104.0874146 Eh     change    :  -0.9797029E-05 Eh
   gradient norm :     0.0079153 Eh/a0  converged?    E=F G=F D=F
   time step     :     0.2214451 fs     power     :   0.5694980E-09
   step length   :     0.0012022 a0     speed     :   0.1313215E-03

........................................................................
.............................. CYCLE   15 ..............................
........................................................................

 iter      E             dE          RMSdq      gap      omega  full diag
   1  -5198.6644336 -0.519866E+04  0.148E-04    4.06       0.0  T
   2  -5198.6644336 -0.482396E-08  0.103E-04    4.06      15.6  T
   3  -5198.6644336  0.924956E-08  0.442E-05    4.06      36.4  T
     SCC iter.                  ...        9 min, 46.340 sec
     gradient                   ...        4 min, 50.376 sec
 * total energy  : -5104.0874265 Eh     change    :  -0.1184699E-04 Eh
   gradient norm :     0.0072738 Eh/a0  converged?    E=F G=F D=F
   time step     :     0.2214451 fs     power     :   0.6799887E-09
   step length   :     0.0015657 a0     speed     :   0.1710271E-03

........................................................................
.............................. CYCLE   16 ..............................
........................................................................

 iter      E             dE          RMSdq      gap      omega  full diag
   1  -5198.6636773 -0.519866E+04  0.178E-04    4.06       0.0  T
   2  -5198.6636773 -0.675027E-08  0.124E-04    4.06      12.9  T
   3  -5198.6636772  0.140462E-07  0.531E-05    4.06      30.3  T
     SCC iter.                  ...        9 min, 47.261 sec
     gradient                   ...        4 min, 50.542 sec
 * total energy  : -5104.0874395 Eh     change    :  -0.1303886E-04 Eh
   gradient norm :     0.0065313 Eh/a0  converged?    E=F G=F D=F
   time step     :     0.2214451 fs     power     :   0.7365583E-09
   step length   :     0.0018988 a0     speed     :   0.2074143E-03

........................................................................
.............................. CYCLE   17 ..............................
........................................................................

 iter      E             dE          RMSdq      gap      omega  full diag
   1  -5198.6627785 -0.519866E+04  0.205E-04    4.06       0.0  T
   2  -5198.6627785 -0.862383E-08  0.143E-04    4.06      11.3  T
   3  -5198.6627785  0.194032E-07  0.611E-05    4.06      26.3  T
     SCC iter.                  ...        9 min, 48.868 sec
     gradient                   ...        4 min, 51.907 sec
 * total energy  : -5104.0874528 Eh     change    :  -0.1327729E-04 Eh
   gradient norm :     0.0057310 Eh/a0  converged?    E=F G=F D=F
   time step     :     0.2214451 fs     power     :   0.7388109E-09
   step length   :     0.0021958 a0     speed     :   0.2398460E-03

........................................................................
.............................. CYCLE   18 ..............................
........................................................................

 iter      E             dE          RMSdq      gap      omega  full diag
   1  -5198.6616240 -0.519866E+04  0.250E-04    4.06       0.0  T
   2  -5198.6616240 -0.125101E-07  0.175E-04    4.06       9.2  T
   3  -5198.6616240  0.308928E-07  0.759E-05    4.06      21.2  T
     SCC iter.                  ...        9 min, 46.907 sec
     gradient                   ...        4 min, 50.435 sec
 * total energy  : -5104.0874668 Eh     change    :  -0.1397370E-04 Eh
   gradient norm :     0.0048470 Eh/a0  converged?    E=F G=F D=F
   time step     :     0.2435896 fs     power     :   0.6846962E-09
   step length   :     0.0027251 a0     speed     :   0.2706104E-03

........................................................................
.............................. CYCLE   19 ..............................
........................................................................

 iter      E             dE          RMSdq      gap      omega  full diag
   1  -5198.6601646 -0.519866E+04  0.297E-04    4.06       0.0  T
   2  -5198.6601646 -0.165492E-07  0.209E-04    4.06       7.7  T
   3  -5198.6601645  0.471009E-07  0.914E-05    4.06      17.6  T
     SCC iter.                  ...        9 min, 48.407 sec
     gradient                   ...        4 min, 52.966 sec
 * total energy  : -5104.0874803 Eh     change    :  -0.1346705E-04 Eh
   gradient norm :     0.0039879 Eh/a0  converged?    E=F G=F D=F
   time step     :     0.2679486 fs     power     :   0.5727261E-09
   step length   :     0.0032993 a0     speed     :   0.2978433E-03

........................................................................
.............................. CYCLE   20 ..............................
........................................................................

 iter      E             dE          RMSdq      gap      omega  full diag
   1  -5198.6583551 -0.519866E+04  0.341E-04    4.06       0.0  T
   2  -5198.6583551 -0.197733E-07  0.240E-04    4.06       6.7  T
   3  -5198.6583550  0.680247E-07  0.107E-04    4.06      15.1  T
     SCC iter.                  ...        9 min, 48.110 sec
     gradient                   ...        4 min, 50.654 sec
 * total energy  : -5104.0874919 Eh     change    :  -0.1167757E-04 Eh
   gradient norm :     0.0033697 Eh/a0  converged?    E=F G=F D=F
   time step     :     0.2947435 fs     power     :   0.4175653E-09
   step length   :     0.0038853 a0     speed     :   0.3188552E-03
 * RMSD in coord.:     0.0013412 a0     energy gain  -0.8606226E-03 Eh

........................................................................
.............................. CYCLE   21 ..............................
........................................................................

 iter      E             dE          RMSdq      gap      omega  full diag
   1  -5198.6567091 -0.519866E+04  0.287E-04    4.06       0.0  T
   2  -5198.6567091 -0.114833E-07  0.199E-04    4.06       8.1  T
   3  -5198.6567091  0.501068E-07  0.889E-05    4.06      18.1  T
     SCC iter.                  ...        9 min, 49.958 sec
     gradient                   ...        4 min, 50.945 sec
 * total energy  : -5104.0874992 Eh     change    :  -0.7283128E-05 Eh
   gradient norm :     0.0032105 Eh/a0  converged?    E=F G=F D=F
   time step     :     0.2500000 fs     power     :   0.3002753E-09
   step length   :     0.0033599 a0     speed     :   0.3250913E-03

........................................................................
.............................. CYCLE   22 ..............................
........................................................................

 iter      E             dE          RMSdq      gap      omega  full diag
   1  -5198.6550185 -0.519866E+04  0.272E-04    4.06       0.0  T
   2  -5198.6550185 -0.875025E-08  0.187E-04    4.06       8.6  T
   3  -5198.6550185  0.482887E-07  0.862E-05    4.06      18.7  T
     SCC iter.                  ...        9 min, 46.537 sec
     gradient                   ...        4 min, 52.166 sec
 * total energy  : -5104.0875047 Eh     change    :  -0.5479072E-05 Eh
   gradient norm :     0.0032968 Eh/a0  converged?    E=F G=F D=F
   time step     :     0.2500000 fs     power     :   0.2214982E-09
   step length   :     0.0033289 a0     speed     :   0.3220852E-03

........................................................................
.............................. CYCLE   23 ..............................
........................................................................

 iter      E             dE          RMSdq      gap      omega  full diag
   1  -5198.6533591 -0.519865E+04  0.254E-04    4.06       0.0  T
   2  -5198.6533591 -0.597447E-08  0.171E-04    4.06       9.4  T
   3  -5198.6533591  0.380696E-07  0.769E-05    4.06      20.9  T
     SCC iter.                  ...        9 min, 48.935 sec
     gradient                   ...        4 min, 51.728 sec
 * total energy  : -5104.0875092 Eh     change    :  -0.4494718E-05 Eh
   gradient norm :     0.0034689 Eh/a0  converged?    E=T G=F D=F
   time step     :     0.2500000 fs     power     :   0.1874210E-09
   step length   :     0.0032328 a0     speed     :   0.3127944E-03

........................................................................
.............................. CYCLE   24 ..............................
........................................................................

 iter      E             dE          RMSdq      gap      omega  full diag
   1  -5198.6517972 -0.519865E+04  0.238E-04    4.06       0.0  T
   2  -5198.6517972 -0.387536E-08  0.154E-04    4.06      10.5  T
   3  -5198.6517972  0.216969E-07  0.597E-05    4.06      27.0  T
     SCC iter.                  ...        9 min, 49.624 sec
     gradient                   ...        4 min, 50.716 sec
 * total energy  : -5104.0875135 Eh     change    :  -0.4293475E-05 Eh
   gradient norm :     0.0036117 Eh/a0  converged?    E=T G=F D=F
   time step     :     0.2500000 fs     power     :   0.1902106E-09
   step length   :     0.0031157 a0     speed     :   0.3014601E-03

........................................................................
.............................. CYCLE   25 ..............................
........................................................................

 iter      E             dE          RMSdq      gap      omega  full diag
   1  -5198.6503824 -0.519865E+04  0.228E-04    4.06       0.0  T
   2  -5198.6503824 -0.278578E-08  0.140E-04    4.06      11.5  T
   3  -5198.6503824  0.640375E-08  0.351E-05    4.06      45.8  T
     SCC iter.                  ...        9 min, 48.096 sec
     gradient                   ...        4 min, 52.051 sec
 * total energy  : -5104.0875180 Eh     change    :  -0.4562475E-05 Eh
   gradient norm :     0.0047268 Eh/a0  converged?    E=T G=F D=F
   time step     :     0.2500000 fs     power     :   0.2167494E-09
   step length   :     0.0030119 a0     speed     :   0.2914140E-03

........................................................................
.............................. CYCLE   26 ..............................
........................................................................

 iter      E             dE          RMSdq      gap      omega  full diag
   1  -5198.6490209 -0.519865E+04  0.246E-04    4.06       0.0  T
   2  -5198.6490209 -0.271302E-08  0.147E-04    4.06      11.0  T
   3  -5198.6490209  0.156069E-08  0.239E-05    4.06      67.2  T
     SCC iter.                  ...        9 min, 49.892 sec
     gradient                   ...        4 min, 50.142 sec
 * total energy  : -5104.0875235 Eh     change    :  -0.5439419E-05 Eh
   gradient norm :     0.0036528 Eh/a0  converged?    E=F G=F D=F
   time step     :     0.2750000 fs     power     :   0.2362208E-09
   step length   :     0.0032365 a0     speed     :   0.2846815E-03

........................................................................
.............................. CYCLE   27 ..............................
........................................................................

 iter      E             dE          RMSdq      gap      omega  full diag
   1  -5198.6477816 -0.519865E+04  0.270E-04    4.06       0.0  T
   2  -5198.6477816 -0.288037E-08  0.159E-04    4.06      10.1  T
   3  -5198.6477816  0.349155E-08  0.310E-05    4.06      51.9  T
     SCC iter.                  ...        9 min, 46.006 sec
     gradient                   ...        4 min, 50.023 sec
 * total energy  : -5104.0875302 Eh     change    :  -0.6701570E-05 Eh
   gradient norm :     0.0035170 Eh/a0  converged?    E=F G=F D=F
   time step     :     0.3025000 fs     power     :   0.2703238E-09
   step length   :     0.0035358 a0     speed     :   0.2827301E-03

........................................................................
.............................. CYCLE   28 ..............................
........................................................................

 iter      E             dE          RMSdq      gap      omega  full diag
   1  -5198.6467382 -0.519865E+04  0.305E-04    4.06       0.0  T
   2  -5198.6467382 -0.388081E-08  0.180E-04    4.06       8.9  T
   3  -5198.6467382  0.123164E-07  0.512E-05    4.06      31.4  T
     SCC iter.                  ...        9 min, 48.939 sec
     gradient                   ...        4 min, 50.315 sec
 * total energy  : -5104.0875382 Eh     change    :  -0.8000500E-05 Eh
   gradient norm :     0.0032722 Eh/a0  converged?    E=F G=F D=F
   time step     :     0.3327500 fs     power     :   0.2927593E-09
   step length   :     0.0039318 a0     speed     :   0.2858158E-03

........................................................................
.............................. CYCLE   29 ..............................
........................................................................

 iter      E             dE          RMSdq      gap      omega  full diag
   1  -5198.6459763 -0.519865E+04  0.348E-04    4.06       0.0  T
   2  -5198.6459763 -0.553882E-08  0.208E-04    4.06       7.7  T
   3  -5198.6459763  0.348928E-07  0.830E-05    4.06      19.4  T
     SCC iter.                  ...        9 min, 49.556 sec
     gradient                   ...        4 min, 52.779 sec
 * total energy  : -5104.0875472 Eh     change    :  -0.9010850E-05 Eh
   gradient norm :     0.0029555 Eh/a0  converged?    E=F G=F D=F
   time step     :     0.3660250 fs     power     :   0.2953053E-09
   step length   :     0.0044321 a0     speed     :   0.2928975E-03

........................................................................
.............................. CYCLE   30 ..............................
........................................................................

 iter      E             dE          RMSdq      gap      omega  full diag
   1  -5198.6455894 -0.519865E+04  0.395E-04    4.06       0.0  T
   2  -5198.6455894 -0.782256E-08  0.240E-04    4.06       6.7  T
   3  -5198.6455893  0.641840E-07  0.112E-04    4.06      14.4  T
     SCC iter.                  ...        9 min, 48.295 sec
     gradient                   ...        4 min, 50.333 sec
 * total energy  : -5104.0875567 Eh     change    :  -0.9500671E-05 Eh
   gradient norm :     0.0026406 Eh/a0  converged?    E=F G=F D=F
   time step     :     0.4026275 fs     power     :   0.2753337E-09
   step length   :     0.0050292 a0     speed     :   0.3021399E-03

........................................................................
.............................. CYCLE   31 ..............................
........................................................................

 iter      E             dE          RMSdq      gap      omega  full diag
   1  -5198.6456591 -0.519865E+04  0.438E-04    4.06       0.0  T
   2  -5198.6456591 -0.988712E-08  0.268E-04    4.06       6.0  T
   3  -5198.6456590  0.880464E-07  0.130E-04    4.06      12.4  T
     SCC iter.                  ...        9 min, 47.322 sec
     gradient                   ...        4 min, 51.519 sec
 * total energy  : -5104.0875661 Eh     change    :  -0.9427268E-05 Eh
   gradient norm :     0.0024226 Eh/a0  converged?    E=F G=F D=F
   time step     :     0.4428903 fs     power     :   0.2389001E-09
   step length   :     0.0056970 a0     speed     :   0.3111466E-03

........................................................................
.............................. CYCLE   32 ..............................
........................................................................

 iter      E             dE          RMSdq      gap      omega  full diag
   1  -5198.6462141 -0.519865E+04  0.468E-04    4.06       0.0  T
   2  -5198.6462141 -0.111004E-07  0.286E-04    4.06       5.6  T
   3  -5198.6462140  0.925575E-07  0.132E-04    4.06      12.2  T
     SCC iter.                  ...        9 min, 47.252 sec
     gradient                   ...        4 min, 51.318 sec
 * total energy  : -5104.0875751 Eh     change    :  -0.8991395E-05 Eh
   gradient norm :     0.0023498 Eh/a0  converged?    E=F G=F D=F
   time step     :     0.4871793 fs     power     :   0.1998728E-09
   step length   :     0.0063958 a0     speed     :   0.3175550E-03

........................................................................
.............................. CYCLE   33 ..............................
........................................................................

 iter      E             dE          RMSdq      gap      omega  full diag
   1  -5198.6471867 -0.519865E+04  0.479E-04    4.06       0.0  T
   2  -5198.6471867 -0.117898E-07  0.289E-04    4.06       5.6  T
   3  -5198.6471867  0.635473E-07  0.109E-04    4.06      14.8  T
     SCC iter.                  ...        9 min, 46.885 sec
     gradient                   ...        4 min, 49.813 sec
 * total energy  : -5104.0875838 Eh     change    :  -0.8687888E-05 Eh
   gradient norm :     0.0023903 Eh/a0  converged?    E=F G=F D=F
   time step     :     0.5358972 fs     power     :   0.1726979E-09
   step length   :     0.0070983 a0     speed     :   0.3203985E-03

........................................................................
.............................. CYCLE   34 ..............................
........................................................................

 iter      E             dE          RMSdq      gap      omega  full diag
   1  -5198.6484069 -0.519865E+04  0.469E-04    4.06       0.0  T
   2  -5198.6484069 -0.116343E-07  0.280E-04    4.06       5.8  T
   3  -5198.6484069  0.156833E-07  0.613E-05    4.06      26.2  T
     SCC iter.                  ...        9 min, 48.654 sec
     gradient                   ...        4 min, 51.591 sec
 * total energy  : -5104.0875928 Eh     change    :  -0.9035182E-05 Eh
   gradient norm :     0.0024801 Eh/a0  converged?    E=F G=F D=F
   time step     :     0.5894869 fs     power     :   0.1660827E-09
   step length   :     0.0078243 a0     speed     :   0.3210586E-03

........................................................................
.............................. CYCLE   35 ..............................
........................................................................

 iter      E             dE          RMSdq      gap      omega  full diag
   1  -5198.6496354 -0.519865E+04  0.445E-04    4.06       0.0  T
   2  -5198.6496355 -0.942237E-08  0.269E-04    4.06       6.0  T
   3  -5198.6496354  0.145528E-07  0.566E-05    4.06      28.4  T
     SCC iter.                  ...        9 min, 51.277 sec
     gradient                   ...        4 min, 52.094 sec
 * total energy  : -5104.0876031 Eh     change    :  -0.1029794E-04 Eh
   gradient norm :     0.0025100 Eh/a0  converged?    E=F G=F D=F
   time step     :     0.6484356 fs     power     :   0.1803606E-09
   step length   :     0.0086465 a0     speed     :   0.3225419E-03

........................................................................
.............................. CYCLE   36 ..............................
........................................................................

 iter      E             dE          RMSdq      gap      omega  full diag
   1  -5198.6506083 -0.519865E+04  0.430E-04    4.06       0.0  T
   2  -5198.6506083 -0.691307E-08  0.265E-04    4.06       6.1  T
   3  -5198.6506082  0.225346E-07  0.658E-05    4.06      24.5  T
     SCC iter.                  ...        9 min, 48.427 sec
     gradient                   ...        4 min, 50.368 sec
 * total energy  : -5104.0876155 Eh     change    :  -0.1240396E-04 Eh
   gradient norm :     0.0023725 Eh/a0  converged?    E=F G=F D=F
   time step     :     0.7132792 fs     power     :   0.2004329E-09
   step length   :     0.0096710 a0     speed     :   0.3279648E-03

........................................................................
.............................. CYCLE   37 ..............................
........................................................................

 iter      E             dE          RMSdq      gap      omega  full diag
   1  -5198.6510939 -0.519865E+04  0.433E-04    4.06       0.0  T
   2  -5198.6510939 -0.102109E-07  0.276E-04    4.06       5.8  T
   3  -5198.6510938  0.655264E-07  0.104E-04    4.06      15.4  T
     SCC iter.                  ...        9 min, 45.729 sec
     gradient                   ...        4 min, 51.267 sec
 * total energy  : -5104.0876297 Eh     change    :  -0.1413178E-04 Eh
   gradient norm :     0.0022441 Eh/a0  converged?    E=F G=F D=F
   time step     :     0.7846071 fs     power     :   0.2060001E-09
   step length   :     0.0109691 a0     speed     :   0.3381704E-03

........................................................................
.............................. CYCLE   38 ..............................
........................................................................

 iter      E             dE          RMSdq      gap      omega  full diag
   1  -5198.6509647 -0.519865E+04  0.462E-04    4.06       0.0  T
   2  -5198.6509647 -0.151786E-07  0.291E-04    4.06       5.5  T
   3  -5198.6509646  0.596274E-07  0.103E-04    4.06      15.6  T
     SCC iter.                  ...        9 min, 45.062 sec
     gradient                   ...        4 min, 51.515 sec
 * total energy  : -5104.0876457 Eh     change    :  -0.1600067E-04 Eh
   gradient norm :     0.0023663 Eh/a0  converged?    E=F G=F D=F
   time step     :     0.8630678 fs     power     :   0.2141493E-09
   step length   :     0.0125129 a0     speed     :   0.3506928E-03

........................................................................
.............................. CYCLE   39 ..............................
........................................................................

 iter      E             dE          RMSdq      gap      omega  full diag
   1  -5198.6503864 -0.519865E+04  0.532E-04    4.06       0.0  T
   2  -5198.6503864 -0.146074E-07  0.321E-04    4.06       5.0  T
   3  -5198.6503864  0.254404E-07  0.753E-05    4.06      21.4  T
     SCC iter.                  ...        9 min, 46.029 sec
     gradient                   ...        4 min, 51.727 sec
 * total energy  : -5104.0876655 Eh     change    :  -0.1982068E-04 Eh
   gradient norm :     0.0023450 Eh/a0  converged?    E=F G=F D=F
   time step     :     0.9493746 fs     power     :   0.2510132E-09
   step length   :     0.0143471 a0     speed     :   0.3655464E-03

........................................................................
.............................. CYCLE   40 ..............................
........................................................................

 iter      E             dE          RMSdq      gap      omega  full diag
   1  -5198.6499219 -0.519865E+04  0.618E-04    4.06       0.0  T
   2  -5198.6499219 -0.162772E-07  0.374E-04    4.06       4.3  T
   3  -5198.6499219  0.433683E-07  0.939E-05    4.06      17.1  T
     SCC iter.                  ...        9 min, 48.019 sec
     gradient                   ...        4 min, 51.912 sec
 * total energy  : -5104.0876897 Eh     change    :  -0.2420379E-04 Eh
   gradient norm :     0.0020614 Eh/a0  converged?    E=F G=F D=F
   time step     :     1.0443120 fs     power     :   0.2736124E-09
   step length   :     0.0167290 a0     speed     :   0.3874838E-03

........................................................................
.............................. CYCLE   41 ..............................
........................................................................

 iter      E             dE          RMSdq      gap      omega  full diag
   1  -5198.6504681 -0.519865E+04  0.664E-04    4.06       0.0  T
   2  -5198.6504681 -0.192240E-07  0.408E-04    4.06       3.9  T
   3  -5198.6504681  0.708833E-07  0.116E-04    4.06      13.8  T
     SCC iter.                  ...        9 min, 48.275 sec
     gradient                   ...        4 min, 51.883 sec
 * total energy  : -5104.0877160 Eh     change    :  -0.2632194E-04 Eh
   gradient norm :     0.0021199 Eh/a0  converged?    E=F G=F D=F
   time step     :     1.1487432 fs     power     :   0.2630226E-09
   step length   :     0.0196668 a0     speed     :   0.4141194E-03

........................................................................
.............................. CYCLE   42 ..............................
........................................................................

 iter      E             dE          RMSdq      gap      omega  full diag
   1  -5198.6523068 -0.519865E+04  0.717E-04    4.06       0.0  T
   2  -5198.6523068 -0.144892E-07  0.427E-04    4.06       3.8  T
   3  -5198.6523068  0.184227E-07  0.691E-05    4.06      23.3  T
     SCC iter.                  ...        9 min, 46.518 sec
     gradient                   ...        4 min, 52.268 sec
 * total energy  : -5104.0877468 Eh     change    :  -0.3081072E-04 Eh
   gradient norm :     0.0022528 Eh/a0  converged?    E=F G=F D=F
   time step     :     1.2500000 fs     power     :   0.2994994E-09
   step length   :     0.0226488 a0     speed     :   0.4382790E-03
 * RMSD in coord.:     0.0024983 a0     energy gain  -0.2548991E-03 Eh

........................................................................
.............................. CYCLE   43 ..............................
........................................................................

 iter      E             dE          RMSdq      gap      omega  full diag
   1  -5198.6526526 -0.519865E+04  0.141E-04    4.06       0.0  T
   2  -5198.6526526 -0.641194E-09  0.825E-05    4.06      19.5  T
   3  -5198.6526526  0.315868E-08  0.269E-05    4.06      59.7  T
     SCC iter.                  ...        9 min, 47.593 sec
     gradient                   ...        4 min, 51.281 sec
 * total energy  : -5104.0877532 Eh     change    :  -0.6371940E-05 Eh
   gradient norm :     0.0021912 Eh/a0  converged?    E=F G=F D=F
   time step     :     0.2500000 fs     power     :   0.3315724E-09
   step length   :     0.0044272 a0     speed     :   0.4283526E-03

........................................................................
.............................. CYCLE   44 ..............................
........................................................................

 iter      E             dE          RMSdq      gap      omega  full diag
   1  -5198.6529564 -0.519865E+04  0.147E-04    4.06       0.0  T
   2  -5198.6529564 -0.105047E-08  0.883E-05    4.06      18.2  T
   3  -5198.6529564  0.280306E-08  0.251E-05    4.06      64.2  T
     SCC iter.                  ...        9 min, 48.773 sec
     gradient                   ...        4 min, 51.125 sec
 * total energy  : -5104.0877600 Eh     change    :  -0.6758154E-05 Eh
   gradient norm :     0.0020031 Eh/a0  converged?    E=F G=F D=F
   time step     :     0.2500000 fs     power     :   0.3507643E-09
   step length   :     0.0043741 a0     speed     :   0.4232181E-03

........................................................................
.............................. CYCLE   45 ..............................
........................................................................

 iter      E             dE          RMSdq      gap      omega  full diag
   1  -5198.6532062 -0.519865E+04  0.163E-04    4.06       0.0  T
   2  -5198.6532062 -0.136515E-08  0.987E-05    4.06      16.3  T
   3  -5198.6532062  0.487762E-08  0.317E-05    4.06      50.7  T
     SCC iter.                  ...        9 min, 47.011 sec
     gradient                   ...        4 min, 51.136 sec
 * total energy  : -5104.0877668 Eh     change    :  -0.6850849E-05 Eh
   gradient norm :     0.0017603 Eh/a0  converged?    E=F G=F D=F
   time step     :     0.2500000 fs     power     :   0.3505391E-09
   step length   :     0.0043703 a0     speed     :   0.4228547E-03

........................................................................
.............................. CYCLE   46 ..............................
........................................................................

 iter      E             dE          RMSdq      gap      omega  full diag
   1  -5198.6533956 -0.519865E+04  0.177E-04    4.06       0.0  T
   2  -5198.6533956 -0.167165E-08  0.108E-04    4.06      14.9  T
   3  -5198.6533956  0.601176E-08  0.349E-05    4.06      46.1  T
     SCC iter.                  ...        9 min, 47.832 sec
     gradient                   ...        4 min, 49.793 sec
 * total energy  : -5104.0877734 Eh     change    :  -0.6608982E-05 Eh
   gradient norm :     0.0015633 Eh/a0  converged?    E=F G=F D=F
   time step     :     0.2500000 fs     power     :   0.3336082E-09
   step length   :     0.0044058 a0     speed     :   0.4262803E-03

........................................................................
.............................. CYCLE   47 ..............................
........................................................................

 iter      E             dE          RMSdq      gap      omega  full diag
   1  -5198.6535263 -0.519865E+04  0.182E-04    4.06       0.0  T
   2  -5198.6535263 -0.171258E-08  0.111E-04    4.06      14.4  T
   3  -5198.6535263  0.622640E-08  0.343E-05    4.06      46.8  T
     SCC iter.                  ...        9 min, 47.236 sec
     gradient                   ...        4 min, 50.378 sec
 * total energy  : -5104.0877796 Eh     change    :  -0.6223926E-05 Eh
   gradient norm :     0.0014976 Eh/a0  converged?    E=F G=F D=F
   time step     :     0.2500000 fs     power     :   0.3107993E-09
   step length   :     0.0044562 a0     speed     :   0.4311566E-03

........................................................................
.............................. CYCLE   48 ..............................
........................................................................

 iter      E             dE          RMSdq      gap      omega  full diag
   1  -5198.6536170 -0.519865E+04  0.194E-04    4.06       0.0  T
   2  -5198.6536170 -0.154068E-08  0.118E-04    4.06      13.7  T
   3  -5198.6536170  0.563341E-08  0.330E-05    4.06      48.7  T
     SCC iter.                  ...        9 min, 48.826 sec
     gradient                   ...        4 min, 51.166 sec
 * total energy  : -5104.0877861 Eh     change    :  -0.6417772E-05 Eh
   gradient norm :     0.0015650 Eh/a0  converged?    E=F G=F D=F
   time step     :     0.2750000 fs     power     :   0.2931302E-09
   step length   :     0.0049431 a0     speed     :   0.4347958E-03

........................................................................
.............................. CYCLE   49 ..............................
........................................................................

 iter      E             dE          RMSdq      gap      omega  full diag
   1  -5198.6536771 -0.519865E+04  0.193E-04    4.06       0.0  T
   2  -5198.6536771 -0.123964E-08  0.116E-04    4.06      13.9  T
   3  -5198.6536771  0.338150E-08  0.261E-05    4.06      61.6  T
     SCC iter.                  ...        9 min, 47.559 sec
     gradient                   ...        4 min, 49.704 sec
 * total energy  : -5104.0877929 Eh     change    :  -0.6831244E-05 Eh
   gradient norm :     0.0016867 Eh/a0  converged?    E=F G=F D=F
   time step     :     0.3025000 fs     power     :   0.2901019E-09
   step length   :     0.0054433 a0     speed     :   0.4352602E-03

........................................................................
.............................. CYCLE   50 ..............................
........................................................................

 iter      E             dE          RMSdq      gap      omega  full diag
   1  -5198.6537152 -0.519865E+04  0.188E-04    4.06       0.0  T
   2  -5198.6537152 -0.896762E-09  0.111E-04    4.06      14.5  T
   3  -5198.6537152  0.108503E-08  0.172E-05    4.06      93.7  T
     SCC iter.                  ...        9 min, 46.866 sec
     gradient                   ...        4 min, 50.575 sec
 * total energy  : -5104.0878006 Eh     change    :  -0.7715303E-05 Eh
   gradient norm :     0.0017605 Eh/a0  converged?    E=F G=F D=F
   time step     :     0.3327500 fs     power     :   0.3013336E-09
   step length   :     0.0059730 a0     speed     :   0.4342000E-03

........................................................................
.............................. CYCLE   51 ..............................
........................................................................

 iter      E             dE          RMSdq      gap      omega  full diag
   1  -5198.6537295 -0.519865E+04  0.187E-04    4.06       0.0  T
   2  -5198.6537295 -0.786713E-09  0.111E-04    4.06      14.5  T
   3  -5198.6537295  0.107048E-08  0.159E-05    4.06     101.4  T
     SCC iter.                  ...        9 min, 47.221 sec
     gradient                   ...        4 min, 51.215 sec
 * total energy  : -5104.0878095 Eh     change    :  -0.8911533E-05 Eh
   gradient norm :     0.0017247 Eh/a0  converged?    E=F G=F D=F
   time step     :     0.3660250 fs     power     :   0.3177586E-09
   step length   :     0.0065770 a0     speed     :   0.4346411E-03

........................................................................
.............................. CYCLE   52 ..............................
........................................................................

 iter      E             dE          RMSdq      gap      omega  full diag
   1  -5198.6537010 -0.519865E+04  0.203E-04    4.06       0.0  T
   2  -5198.6537010 -0.106866E-08  0.121E-04    4.06      13.3  T
   3  -5198.6537010  0.314685E-08  0.256E-05    4.06      62.8  T
     SCC iter.                  ...        9 min, 48.948 sec
     gradient                   ...        4 min, 52.032 sec
 * total energy  : -5104.0878197 Eh     change    :  -0.1020178E-04 Eh
   gradient norm :     0.0015892 Eh/a0  converged?    E=F G=F D=F
   time step     :     0.4026275 fs     power     :   0.3273873E-09
   step length   :     0.0073046 a0     speed     :   0.4388408E-03

........................................................................
.............................. CYCLE   53 ..............................
........................................................................

 iter      E             dE          RMSdq      gap      omega  full diag
   1  -5198.6535879 -0.519865E+04  0.231E-04    4.06       0.0  T
   2  -5198.6535879 -0.208092E-08  0.141E-04    4.06      11.4  T
   3  -5198.6535879  0.864929E-08  0.403E-05    4.06      39.9  T
     SCC iter.                  ...        9 min, 49.273 sec
     gradient                   ...        4 min, 52.718 sec
 * total energy  : -5104.0878310 Eh     change    :  -0.1125792E-04 Eh
   gradient norm :     0.0014653 Eh/a0  converged?    E=F G=F D=F
   time step     :     0.4428903 fs     power     :   0.3240395E-09
   step length   :     0.0081932 a0     speed     :   0.4474762E-03

........................................................................
.............................. CYCLE   54 ..............................
........................................................................

 iter      E             dE          RMSdq      gap      omega  full diag
   1  -5198.6533384 -0.519865E+04  0.260E-04    4.06       0.0  T
   2  -5198.6533384 -0.259752E-08  0.159E-04    4.06      10.1  T
   3  -5198.6533384  0.113641E-07  0.459E-05    4.06      35.1  T
     SCC iter.                  ...        9 min, 46.464 sec
     gradient                   ...        4 min, 51.205 sec
 * total energy  : -5104.0878428 Eh     change    :  -0.1187102E-04 Eh
   gradient norm :     0.0016055 Eh/a0  converged?    E=F G=F D=F
   time step     :     0.4871793 fs     power     :   0.3155489E-09
   step length   :     0.0092362 a0     speed     :   0.4585829E-03

........................................................................
.............................. CYCLE   55 ..............................
........................................................................

 iter      E             dE          RMSdq      gap      omega  full diag
   1  -5198.6529344 -0.519865E+04  0.280E-04    4.06       0.0  T
   2  -5198.6529344 -0.257114E-08  0.169E-04    4.06       9.5  T
   3  -5198.6529343  0.734599E-08  0.383E-05    4.06      42.0  T
     SCC iter.                  ...        9 min, 45.736 sec
     gradient                   ...        4 min, 51.150 sec
 * total energy  : -5104.0878558 Eh     change    :  -0.1291647E-04 Eh
   gradient norm :     0.0015891 Eh/a0  converged?    E=F G=F D=F
   time step     :     0.5358972 fs     power     :   0.3127977E-09
   step length   :     0.0103264 a0     speed     :   0.4661016E-03

........................................................................
.............................. CYCLE   56 ..............................
........................................................................

 iter      E             dE          RMSdq      gap      omega  full diag
   1  -5198.6524769 -0.519865E+04  0.292E-04    4.06       0.0  T
   2  -5198.6524769 -0.185901E-08  0.172E-04    4.06       9.3  T
   3  -5198.6524769  0.240198E-08  0.268E-05    4.06      60.1  T
     SCC iter.                  ...        9 min, 48.510 sec
     gradient                   ...        4 min, 51.735 sec
 * total energy  : -5104.0878706 Eh     change    :  -0.1481905E-04 Eh
   gradient norm :     0.0016305 Eh/a0  converged?    E=F G=F D=F
   time step     :     0.5894869 fs     power     :   0.3280952E-09
   step length   :     0.0115596 a0     speed     :   0.4743333E-03

........................................................................
.............................. CYCLE   57 ..............................
........................................................................

 iter      E             dE          RMSdq      gap      omega  full diag
   1  -5198.6521503 -0.519865E+04  0.319E-04    4.06       0.0  T
   2  -5198.6521503 -0.237196E-08  0.189E-04    4.06       8.5  T
   3  -5198.6521503  0.834916E-08  0.408E-05    4.06      39.4  T
     SCC iter.                  ...        9 min, 49.918 sec
     gradient                   ...        4 min, 51.023 sec
 * total energy  : -5104.0878877 Eh     change    :  -0.1714455E-04 Eh
   gradient norm :     0.0015335 Eh/a0  converged?    E=F G=F D=F
   time step     :     0.6484356 fs     power     :   0.3448377E-09
   step length   :     0.0129998 a0     speed     :   0.4849352E-03

........................................................................
.............................. CYCLE   58 ..............................
........................................................................

 iter      E             dE          RMSdq      gap      omega  full diag
   1  -5198.6521963 -0.519865E+04  0.370E-04    4.06       0.0  T
   2  -5198.6521963 -0.395175E-08  0.223E-04    4.06       7.2  T
   3  -5198.6521962  0.226410E-07  0.637E-05    4.06      25.3  T
     SCC iter.                  ...        9 min, 46.418 sec
     gradient                   ...        4 min, 49.999 sec
 * total energy  : -5104.0879070 Eh     change    :  -0.1930697E-04 Eh
   gradient norm :     0.0014384 Eh/a0  converged?    E=F G=F D=F
   time step     :     0.7132792 fs     power     :   0.3488371E-09
   step length   :     0.0147577 a0     speed     :   0.5004655E-03

........................................................................
.............................. CYCLE   59 ..............................
........................................................................

 iter      E             dE          RMSdq      gap      omega  full diag
   1  -5198.6527636 -0.519865E+04  0.412E-04    4.06       0.0  T
   2  -5198.6527636 -0.393356E-08  0.247E-04    4.06       6.5  T
   3  -5198.6527636  0.189611E-07  0.599E-05    4.06      26.9  T
     SCC iter.                  ...        9 min, 48.714 sec
     gradient                   ...        4 min, 51.132 sec
 * total energy  : -5104.0879285 Eh     change    :  -0.2147258E-04 Eh
   gradient norm :     0.0015181 Eh/a0  converged?    E=F G=F D=F
   time step     :     0.7846071 fs     power     :   0.3519974E-09
   step length   :     0.0168313 a0     speed     :   0.5188969E-03

........................................................................
.............................. CYCLE   60 ..............................
........................................................................

 iter      E             dE          RMSdq      gap      omega  full diag
   1  -5198.6536806 -0.519865E+04  0.440E-04    4.06       0.0  T
   2  -5198.6536806 -0.377077E-08  0.260E-04    4.06       6.2  T
   3  -5198.6536806  0.901218E-08  0.455E-05    4.06      35.4  T
     SCC iter.                  ...        9 min, 47.495 sec
     gradient                   ...        4 min, 50.644 sec
 * total energy  : -5104.0879530 Eh     change    :  -0.2448810E-04 Eh
   gradient norm :     0.0015141 Eh/a0  converged?    E=F G=F D=F
   time step     :     0.8630678 fs     power     :   0.3699527E-09
   step length   :     0.0191380 a0     speed     :   0.5363716E-03

........................................................................
.............................. CYCLE   61 ..............................
........................................................................

 iter      E             dE          RMSdq      gap      omega  full diag
   1  -5198.6545393 -0.519865E+04  0.498E-04    4.06       0.0  T
   2  -5198.6545393 -0.574437E-08  0.296E-04    4.06       5.4  T
   3  -5198.6545393  0.281707E-07  0.726E-05    4.06      22.2  T
     SCC iter.                  ...        9 min, 51.231 sec
     gradient                   ...        4 min, 50.386 sec
 * total energy  : -5104.0879811 Eh     change    :  -0.2807771E-04 Eh
   gradient norm :     0.0014308 Eh/a0  converged?    E=F G=F D=F
   time step     :     0.9493746 fs     power     :   0.3834007E-09
   step length   :     0.0218704 a0     speed     :   0.5572298E-03

........................................................................
.............................. CYCLE   62 ..............................
........................................................................

 iter      E             dE          RMSdq      gap      omega  full diag
   1  -5198.6549081 -0.519865E+04  0.565E-04    4.06       0.0  T
   2  -5198.6549081 -0.705495E-08  0.336E-04    4.06       4.8  T
   3  -5198.6549081  0.252658E-07  0.704E-05    4.06      22.8  T
     SCC iter.                  ...        9 min, 47.402 sec
     gradient                   ...        4 min, 50.032 sec
 * total energy  : -5104.0880127 Eh     change    :  -0.3164119E-04 Eh
   gradient norm :     0.0014693 Eh/a0  converged?    E=F G=F D=F
   time step     :     1.0443120 fs     power     :   0.3904977E-09
   step length   :     0.0251402 a0     speed     :   0.5823097E-03

........................................................................
.............................. CYCLE   63 ..............................
........................................................................

 iter      E             dE          RMSdq      gap      omega  full diag
   1  -5198.6546803 -0.519865E+04  0.614E-04    4.06       0.0  T
   2  -5198.6546804 -0.724049E-08  0.364E-04    4.06       4.4  T
   3  -5198.6546803  0.312803E-07  0.803E-05    4.06      20.0  T
     SCC iter.                  ...        9 min, 47.560 sec
     gradient                   ...        4 min, 50.931 sec
 * total energy  : -5104.0880492 Eh     change    :  -0.3644244E-04 Eh
   gradient norm :     0.0014738 Eh/a0  converged?    E=F G=F D=F
   time step     :     1.1487432 fs     power     :   0.4129810E-09
   step length   :     0.0288611 a0     speed     :   0.6077218E-03

........................................................................
.............................. CYCLE   64 ..............................
........................................................................

 iter      E             dE          RMSdq      gap      omega  full diag
   1  -5198.6542567 -0.519865E+04  0.707E-04    4.06       0.0  T
   2  -5198.6542568 -0.110285E-07  0.423E-04    4.06       3.8  T
   3  -5198.6542567  0.698665E-07  0.111E-04    4.06      14.5  T
     SCC iter.                  ...        9 min, 48.692 sec
     gradient                   ...        4 min, 51.294 sec
 * total energy  : -5104.0880905 Eh     change    :  -0.4136966E-04 Eh
   gradient norm :     0.0013819 Eh/a0  converged?    E=F G=F D=F
   time step     :     1.2500000 fs     power     :   0.4269576E-09
   step length   :     0.0328978 a0     speed     :   0.6366072E-03

........................................................................
.............................. CYCLE   65 ..............................
........................................................................

 iter      E             dE          RMSdq      gap      omega  full diag
   1  -5198.6545858 -0.519865E+04  0.729E-04    4.06       0.0  T
   2  -5198.6545858 -0.100890E-07  0.432E-04    4.06       3.7  T
   3  -5198.6545858  0.331156E-07  0.871E-05    4.06      18.5  T
     SCC iter.                  ...        9 min, 47.284 sec
     gradient                   ...        4 min, 50.688 sec
 * total energy  : -5104.0881331 Eh     change    :  -0.4261281E-04 Eh
   gradient norm :     0.0014804 Eh/a0  converged?    E=F G=F D=F
   time step     :     1.2500000 fs     power     :   0.4414253E-09
   step length   :     0.0344418 a0     speed     :   0.6664859E-03

........................................................................
.............................. CYCLE   66 ..............................
........................................................................

 iter      E             dE          RMSdq      gap      omega  full diag
   1  -5198.6553344 -0.519866E+04  0.769E-04    4.06       0.0  T
   2  -5198.6553344 -0.119608E-07  0.457E-04    4.06       3.5  T
   3  -5198.6553343  0.827013E-07  0.122E-04    4.06      13.2  T
     SCC iter.                  ...        9 min, 47.044 sec
     gradient                   ...        4 min, 51.051 sec
 * total energy  : -5104.0881773 Eh     change    :  -0.4417220E-04 Eh
   gradient norm :     0.0014250 Eh/a0  converged?    E=F G=F D=F
   time step     :     1.2500000 fs     power     :   0.4578047E-09
   step length   :     0.0357995 a0     speed     :   0.6927597E-03

........................................................................
.............................. CYCLE   67 ..............................
........................................................................

 iter      E             dE          RMSdq      gap      omega  full diag
   1  -5198.6555487 -0.519866E+04  0.784E-04    4.06       0.0  T
   2  -5198.6555488 -0.170367E-07  0.463E-04    4.06       3.5  T
   3  -5198.6555487  0.551072E-07  0.118E-04    4.06      13.6  T
     SCC iter.                  ...        9 min, 46.876 sec
     gradient                   ...        4 min, 50.232 sec
 * total energy  : -5104.0882224 Eh     change    :  -0.4513248E-04 Eh
   gradient norm :     0.0016429 Eh/a0  converged?    E=F G=F D=F
   time step     :     1.2500000 fs     power     :   0.4573998E-09
   step length   :     0.0372046 a0     speed     :   0.7199497E-03
 * RMSD in coord.:     0.0059012 a0     energy gain  -0.4756166E-03 Eh

........................................................................
.............................. CYCLE   68 ..............................
........................................................................

 iter      E             dE          RMSdq      gap      omega  full diag
   1  -5198.6556004 -0.519866E+04  0.153E-04    4.06       0.0  T
   2  -5198.6556004 -0.538421E-09  0.898E-05    4.06      17.9  T
   3  -5198.6556004  0.326781E-08  0.270E-05    4.06      59.7  T
     SCC iter.                  ...        9 min, 46.738 sec
     gradient                   ...        4 min, 50.741 sec
 * total energy  : -5104.0882316 Eh     change    :  -0.9135477E-05 Eh
   gradient norm :     0.0015124 Eh/a0  converged?    E=F G=F D=F
   time step     :     0.2500000 fs     power     :   0.4798324E-09
   step length   :     0.0073136 a0     speed     :   0.7076269E-03

........................................................................
.............................. CYCLE   69 ..............................
........................................................................

 iter      E             dE          RMSdq      gap      omega  full diag
   1  -5198.6556713 -0.519866E+04  0.165E-04    4.06       0.0  T
   2  -5198.6556713 -0.245564E-08  0.980E-05    4.06      16.4  T
   3  -5198.6556713  0.276759E-08  0.358E-05    4.06      44.9  T
     SCC iter.                  ...        9 min, 46.974 sec
     gradient                   ...        4 min, 52.582 sec
 * total energy  : -5104.0882407 Eh     change    :  -0.9167848E-05 Eh
   gradient norm :     0.0013217 Eh/a0  converged?    E=F G=F D=F
   time step     :     0.2500000 fs     power     :   0.4749043E-09
   step length   :     0.0072677 a0     speed     :   0.7031926E-03

........................................................................
.............................. CYCLE   70 ..............................
........................................................................

 iter      E             dE          RMSdq      gap      omega  full diag
   1  -5198.6557516 -0.519866E+04  0.168E-04    4.06       0.0  T
   2  -5198.6557516 -0.202181E-08  0.100E-04    4.06      16.0  T
   3  -5198.6557516  0.317232E-08  0.332E-05    4.06      48.5  T
     SCC iter.                  ...        9 min, 48.286 sec
     gradient                   ...        4 min, 51.245 sec
 * total energy  : -5104.0882497 Eh     change    :  -0.8926518E-05 Eh
   gradient norm :     0.0013813 Eh/a0  converged?    E=F G=F D=F
   time step     :     0.2500000 fs     power     :   0.4602778E-09
   step length   :     0.0072959 a0     speed     :   0.7059181E-03

........................................................................
[...]
  3615   6 C     3616   6 C                                       1.5340290
  3617   6 C     3618   6 C                                       1.3908920
  3618   6 C     3619   6 C                                       1.3829465
  3619   6 C     3620   6 C                                       1.3841375
  3620   6 C     3621   6 C                                       1.3839485
  3617   6 C     3622   6 C                                       1.3885900
  3621   6 C     3622   6 C                                       1.3840854
  3616   6 C     3623   6 C                                       1.5380647
  3623   6 C     3624   6 C                                       1.5362772
  3625   6 C     3626   6 C                                       1.3901933
  3626   6 C     3627   6 C                                       1.3825445
  3627   6 C     3628   6 C                                       1.3853607
  3628   6 C     3629   6 C                                       1.3831684
  3625   6 C     3630   6 C                                       1.3886304
  3629   6 C     3630   6 C                                       1.3834596
  3624   6 C     3631   6 C                                       1.5366128
  3633   6 C     3634   6 C                                       1.3893618
  3634   6 C     3635   6 C                                       1.3832107
  3635   6 C     3636   6 C                                       1.3828229
  3636   6 C     3637   6 C                                       1.3839565
  3633   6 C     3638   6 C                                       1.3901457
  3637   6 C     3638   6 C                                       1.3822557
  3632   6 C     3639   6 C                                       1.5328455
  3639   6 C     3640   6 C                                       1.5390226
  3641   6 C     3642   6 C                                       1.3880084
  3642   6 C     3643   6 C                                       1.3843515
  3643   6 C     3644   6 C                                       1.3839822
  3644   6 C     3645   6 C                                       1.3842038
  3641   6 C     3646   6 C                                       1.3908477
  3645   6 C     3646   6 C                                       1.3818899
  3647   6 C     3648   6 C                                       1.5379735
  3649   6 C     3650   6 C                                       1.3899999
  3650   6 C     3651   6 C                                       1.3829579
  3651   6 C     3652   6 C                                       1.3847534
  3652   6 C     3653   6 C                                       1.3832052
  3649   6 C     3654   6 C                                       1.3889693
  3653   6 C     3654   6 C                                       1.3830485
  3648   6 C     3655   6 C                                       1.5370085
  3655   6 C     3656   6 C                                       1.5352002
  3657   6 C     3658   6 C                                       1.3887814
  3658   6 C     3659   6 C                                       1.3830088
  3659   6 C     3660   6 C                                       1.3822436
  3660   6 C     3661   6 C                                       1.3830542
  3657   6 C     3662   6 C                                       1.3902963
  3661   6 C     3662   6 C                                       1.3825120
  3656   6 C     3663   6 C                                       1.5386449
  3663   6 C     3664   6 C                                       1.5372945
  3665   6 C     3666   6 C                                       1.3894976
  3666   6 C     3667   6 C                                       1.3837635
  3667   6 C     3668   6 C                                       1.3843264
  3668   6 C     3669   6 C                                       1.3844507
  3665   6 C     3670   6 C                                       1.3893493
  3669   6 C     3670   6 C                                       1.3827664
  3664   6 C     3671   6 C                                       1.5335669
  3671   6 C     3672   6 C                                       1.5353464
  3673   6 C     3674   6 C                                       1.3899555
  3674   6 C     3675   6 C                                       1.3831494
  3675   6 C     3676   6 C                                       1.3847928
  3676   6 C     3677   6 C                                       1.3847275
  3673   6 C     3678   6 C                                       1.3892568
  3677   6 C     3678   6 C                                       1.3841531
  3672   6 C     3679   6 C                                       1.5356081
  3679   6 C     3680   6 C                                       1.5346195
  3681   6 C     3682   6 C                                       1.3895101
  3682   6 C     3683   6 C                                       1.3837020
  3683   6 C     3684   6 C                                       1.3840928
  3684   6 C     3685   6 C                                       1.3839319
  3681   6 C     3686   6 C                                       1.3897749
  3685   6 C     3686   6 C                                       1.3832184
  3680   6 C     3687   6 C                                       1.5361143
  3687   6 C     3688   6 C                                       1.5353016
  3549   6 C     3689   1 H                                       1.0941698
  3551   6 C     3690   1 H                                       1.0926536
  3551   6 C     3691   1 H                                       1.0920884
  3552   6 C     3692   1 H                                       1.0950351
  3559   6 C     3693   1 H                                       1.0922039
  3559   6 C     3694   1 H                                       1.0910236
  3560   6 C     3695   1 H                                       1.0952547
  3567   6 C     3696   1 H                                       1.0905617
  3567   6 C     3697   1 H                                       1.0903696
  3568   6 C     3698   1 H                                       1.0931401
  3575   6 C     3699   1 H                                       1.0928442
  3576   6 C     3700   1 H                                       1.0943481
  3583   6 C     3701   1 H                                       1.0902509
  3583   6 C     3702   1 H                                       1.0913340
  3584   6 C     3703   1 H                                       1.0955253
  3591   6 C     3704   1 H                                       1.0888045
  3591   6 C     3705   1 H                                       1.0921160
  3592   6 C     3706   1 H                                       1.0953621
  3599   6 C     3707   1 H                                       1.0929469
  3599   6 C     3708   1 H                                       1.0919209
  3600   6 C     3709   1 H                                       1.0914360
  3608   6 C     3710   1 H                                       1.0957154
  3615   6 C     3711   1 H                                       1.0892949
  3615   6 C     3712   1 H                                       1.0910932
  3616   6 C     3713   1 H                                       1.0951648
  3623   6 C     3714   1 H                                       1.0918670
  3623   6 C     3715   1 H                                       1.0902517
  3624   6 C     3716   1 H                                       1.0926291
  3631   6 C     3717   1 H                                       1.0922396
  3631   6 C     3718   1 H                                       1.0921454
  3632   6 C     3719   1 H                                       1.0942122
  3639   6 C     3720   1 H                                       1.0908208
  3639   6 C     3721   1 H                                       1.0908268
  3640   6 C     3722   1 H                                       1.0949112
  3647   6 C     3723   1 H                                       1.0936147
  3647   6 C     3724   1 H                                       1.0921915
  3648   6 C     3725   1 H                                       1.0962397
  3655   6 C     3726   1 H                                       1.0929731
  3655   6 C     3727   1 H                                       1.0920550
  3656   6 C     3728   1 H                                       1.0956915
  3663   6 C     3729   1 H                                       1.0931470
  3663   6 C     3730   1 H                                       1.0922988
  3664   6 C     3731   1 H                                       1.0949773
  3671   6 C     3732   1 H                                       1.0930026
  3671   6 C     3733   1 H                                       1.0917047
  3672   6 C     3734   1 H                                       1.0956106
  3679   6 C     3735   1 H                                       1.0921222
  3679   6 C     3736   1 H                                       1.0931777
  3543   6 C     3737   1 H                                       1.0801985
  3548   6 C     3738   1 H                                       1.0801933
  3547   6 C     3739   1 H                                       1.0803492
  3546   6 C     3740   1 H                                       1.0808221
  3545   6 C     3741   1 H                                       1.0811398
  3554   6 C     3742   1 H                                       1.0811346
  3555   6 C     3743   1 H                                       1.0807769
  3556   6 C     3744   1 H                                       1.0792636
  3557   6 C     3745   1 H                                       1.0814083
  3558   6 C     3746   1 H                                       1.0797729
  3562   6 C     3747   1 H                                       1.0797387
  3563   6 C     3748   1 H                                       1.0812522
  3564   6 C     3749   1 H                                       1.0797568
  3565   6 C     3750   1 H                                       1.0810972
  3566   6 C     3751   1 H                                       1.0803552
  3570   6 C     3752   1 H                                       1.0806358
  3571   6 C     3753   1 H                                       1.0801708
  3572   6 C     3754   1 H                                       1.0795247
  3573   6 C     3755   1 H                                       1.0811407
  3574   6 C     3756   1 H                                       1.0803474
  3575   6 C     3757   1 H                                       1.0931253
  3578   6 C     3758   1 H                                       1.0799832
  3579   6 C     3759   1 H                                       1.0810703
  3580   6 C     3760   1 H                                       1.0810403
  3581   6 C     3761   1 H                                       1.0805154
  3582   6 C     3762   1 H                                       1.0807356
  3586   6 C     3763   1 H                                       1.0818799
  3587   6 C     3764   1 H                                       1.0805133
  3588   6 C     3765   1 H                                       1.0802301
  3589   6 C     3766   1 H                                       1.0812494
  3590   6 C     3767   1 H                                       1.0800793
  3594   6 C     3768   1 H                                       1.0812966
  3595   6 C     3769   1 H                                       1.0803138
  3596   6 C     3770   1 H                                       1.0788623
  3597   6 C     3771   1 H                                       1.0801191
  3598   6 C     3772   1 H                                       1.0801280
  3602   6 C     3773   1 H                                       1.0813834
  3603   6 C     3774   1 H                                       1.0807346
  3604   6 C     3775   1 H                                       1.0800202
  3605   6 C     3776   1 H                                       1.0805175
  3606   6 C     3777   1 H                                       1.0801309
  3607   6 C     3778   1 H                                       1.0929002
  3607   6 C     3779   1 H                                       1.0925765
  3610   6 C     3780   1 H                                       1.0812575
  3611   6 C     3781   1 H                                       1.0804621
  3612   6 C     3782   1 H                                       1.0800587
  3613   6 C     3783   1 H                                       1.0805702
  3614   6 C     3784   1 H                                       1.0806521
  3618   6 C     3785   1 H                                       1.0809023
  3619   6 C     3786   1 H                                       1.0808502
  3620   6 C     3787   1 H                                       1.0802747
  3621   6 C     3788   1 H                                       1.0804535
  3622   6 C     3789   1 H                                       1.0811610
  3626   6 C     3790   1 H                                       1.0805465
  3627   6 C     3791   1 H                                       1.0806271
  3628   6 C     3792   1 H                                       1.0800325
  3629   6 C     3793   1 H                                       1.0800148
  3630   6 C     3794   1 H                                       1.0794106
  3634   6 C     3795   1 H                                       1.0812430
  3635   6 C     3796   1 H                                       1.0806709
  3636   6 C     3797   1 H                                       1.0788756
  3637   6 C     3798   1 H                                       1.0799089
  3638   6 C     3799   1 H                                       1.0803711
  3642   6 C     3800   1 H                                       1.0808530
  3643   6 C     3801   1 H                                       1.0808414
  3644   6 C     3802   1 H                                       1.0806621
  3645   6 C     3803   1 H                                       1.0806569
  3646   6 C     3804   1 H                                       1.0795722
  3650   6 C     3805   1 H                                       1.0800867
  3651   6 C     3806   1 H                                       1.0808676
  3652   6 C     3807   1 H                                       1.0788371
  3653   6 C     3808   1 H                                       1.0799250
  3654   6 C     3809   1 H                                       1.0815437
  3658   6 C     3810   1 H                                       1.0809557
  3659   6 C     3811   1 H                                       1.0795816
  3660   6 C     3812   1 H                                       1.0779527
  3661   6 C     3813   1 H                                       1.0798468
  3662   6 C     3814   1 H                                       1.0808335
  3666   6 C     3815   1 H                                       1.0806201
  3667   6 C     3816   1 H                                       1.0810450
  3668   6 C     3817   1 H                                       1.0808629
  3669   6 C     3818   1 H                                       1.0805946
  3670   6 C     3819   1 H                                       1.0805832
  3674   6 C     3820   1 H                                       1.0806034
  3675   6 C     3821   1 H                                       1.0813598
  3676   6 C     3822   1 H                                       1.0806574
  3677   6 C     3823   1 H                                       1.0811889
  3678   6 C     3824   1 H                                       1.0803845
  3686   6 C     3825   1 H                                       1.0801372
  3685   6 C     3826   1 H                                       1.0795550
  3684   6 C     3827   1 H                                       1.0802687
  3683   6 C     3828   1 H                                       1.0811085
  3682   6 C     3829   1 H                                       1.0804811
  3550   6 C     3830   1 H                                       1.0876588
  3550   6 C     3831   1 H                                       1.0877183
  3550   6 C     3832   1 H                                       1.0881737
  3680   6 C     3833   1 H                                       1.0958559
  3687   6 C     3834   1 H                                       1.0935929
  3687   6 C     3835   1 H                                       1.0918293
  3688   6 C     3836   6 C                                       1.5374505
  3837   6 C     3838   6 C                                       1.3903108
  3838   6 C     3839   6 C                                       1.3831586
  3839   6 C     3840   6 C                                       1.3844159
  3840   6 C     3841   6 C                                       1.3843152
  3837   6 C     3842   6 C                                       1.3886626
  3841   6 C     3842   6 C                                       1.3839752
  3838   6 C     3843   1 H                                       1.0796142
  3839   6 C     3844   1 H                                       1.0812655
  3840   6 C     3845   1 H                                       1.0795756
  3841   6 C     3846   1 H                                       1.0808007
  3842   6 C     3847   1 H                                       1.0804224
  3836   6 C     3848   6 C                                       1.5340279
  3836   6 C     3849   1 H                                       1.0924934
  3836   6 C     3850   1 H                                       1.0922088
  3851   6 C     3852   6 C                                       1.3897375
  3852   6 C     3853   6 C                                       1.3827799
  3853   6 C     3854   6 C                                       1.3845152
  3854   6 C     3855   6 C                                       1.3844272
  3851   6 C     3856   6 C                                       1.3883317
  3855   6 C     3856   6 C                                       1.3837485
  3852   6 C     3857   1 H                                       1.0807969
  3853   6 C     3858   1 H                                       1.0806057
  3854   6 C     3859   1 H                                       1.0801017
  3855   6 C     3860   1 H                                       1.0804827
  3856   6 C     3861   1 H                                       1.0810799
  3688   6 C     3862   1 H                                       1.0955920
  3848   6 C     3863   1 H                                       1.0916622
  3848   6 C     3864   1 H                                       1.0917038

 * 2 distinct bonds (by element types)

   Z      Z             #   av. dist./Å        max./Å        min./Å
   1 H    6 C        1944     1.0851033     1.0974852     1.0770374
   6 C    6 C        1853     1.4190854     1.5408133     1.3804533


optimized geometry written to: xtbopt.xyz


           -------------------------------------------------
          | TOTAL ENERGY            -5104.092881083112 Eh   |
          | GRADIENT NORM               0.000943980051 Eh/α |
          | HOMO-LUMO GAP               4.034848920557 eV   |
           -------------------------------------------------

------------------------------------------------------------------------
 * finished run on 2024/10/07 at 23:15:24.223     
------------------------------------------------------------------------
 total:
 * wall-time:     3 d,  2 h, 58 min, 10.996 sec
 *  cpu-time:    20 d,  4 h, 32 min,  4.696 sec
 * ratio c/w:     6.463 speedup
 SCF:
 * wall-time:     0 d,  0 h, 44 min, 38.512 sec
 *  cpu-time:     0 d,  5 h, 28 min,  3.868 sec
 * ratio c/w:     7.349 speedup
 ANC optimizer:
 * wall-time:     3 d,  2 h, 12 min, 22.167 sec
 *  cpu-time:    19 d, 23 h,  2 min, 28.768 sec
 * ratio c/w:     6.456 speedup

