3258
 energy: -3427.574063747539 gnorm: 0.000666564169 xtb: 6.6.1 (8d0f1dd)
C          124.04340986836684      121.05055098599848      128.01994755127694
C          123.91807102740215      119.59615775026640      127.58111925548661
C          122.50612660648059      119.21737364643330      127.13433664655790
C          122.07175572242826      119.90805647956589      125.84324914493878
C          120.70495817964152      119.41412714762745      125.37509683397157
C          120.18025292913978      120.15222989739213      124.14298242512390
C          121.06925782170759      119.95803718862879      122.91480492458631
C          120.36300905249738      120.27989160094428      121.59946252646321
C          120.09214560613678      121.76421898682729      121.36767518975437
C          119.37476098424911      121.97624079537103      120.03602376351475
C          119.03795214281432      123.43739005495308      119.74871586088530
C          118.26568800679202      123.57735251216154      118.43854844924938
C          117.84416187214809      125.01313126222604      118.13498905966988
C          117.04291667923287      125.10121098185571      116.83688354858884
C          116.49946031140109      126.50323273100342      116.57041928638377
C          115.64924106601644      126.55993041091114      115.30150596938570
C          114.98601768261850      127.92405671565916      115.11557076989286
C          113.99784890905042      127.96489517306310      113.94719148557866
C          114.66253349313209      128.07573870437022      112.57524172929118
C          113.62907097622586      127.98071248622692      111.45389882391893
C          114.23190919691953      128.14414594489668      110.05986334547194
C          113.20098540666683      127.97794857222772      108.93805125212131
C          112.74576337714710      126.53139427299726      108.75725231724377
C          111.74427647934213      126.34878135024394      107.61808292554134
C          111.27866161864371      124.89680060298977      107.52956985607833
C          110.23020036546805      124.65279456951333      106.44582168750435
C          109.78154314370825      123.19379610706130      106.44589294225615
C          108.66119420434541      122.88484066472073      105.45532706173735
C          108.24330132859400      121.41906893090984      105.54861653911627
C          107.07600795410296      121.04993284884300      104.63814871314062
C          106.76977858432740      119.55497456693818      104.70708824648607
C          105.53589017903700      119.16948814180553      103.89638393685057
C          105.30421968991784      117.66091625639368      103.88681082485455
C          104.00880252065006      117.26544667188706      103.18159302869022
C          103.86244376429428      115.75011630408827      103.06595212250640
C          102.50392683078587      115.32943047562719      102.51067035981667
C          102.36392946618801      113.80935068305411      102.46726026690541
C          100.98296770542169      113.35283190394014      102.00460909035732
C          100.85585841147079      111.83142388697955      101.96157775625490
C           99.44467907177756      111.38769376934343      101.58205913638534
C           99.33190373991405      109.89473842196450      101.27125347003036
C           99.50301366660186      108.97405007520926      102.47976491318833
C           99.33249935797207      107.51609438778456      102.05750165474745
C           99.48841736622393      106.48814327224446      103.17967791208210
C          100.88621854195483      106.43103915739398      103.79820380393791
C          101.11672821538170      105.11988383390775      104.55200512749296
C          102.37413610059863      105.15338567756847      105.41964113710812
C          102.66274074821746      103.80938632738828      106.08609943770927
C          103.85333999494998      103.87391454456790      107.04213282623465
C          104.17399949612725      102.51491189693738      107.66204817674102
C          105.30042276773682      102.58989540049842      108.69008320394384
C          105.61844869092430      101.23443925075814      109.32191281998068
C          106.63516595296778      101.36662929754786      110.45317671531680
C          107.04120788895733      100.02965041944564      111.07134233214404
C          107.96665196645382      100.24082198279872      112.26730397672888
C          108.52994609638620       98.95340156837136      112.86432560948393
C          109.53907590959180       99.27514038467783      113.96474972192894
C          110.22772667792201       98.05284710370802      114.56817704062149
C          111.37127978826550       98.47643802731415      115.48805922841140
C          112.17030071505303       97.29823238977148      116.04163298002118
C          113.53435804973277       97.71614624263921      116.59339863990004
C          113.45986776553913       98.60255470706277      117.83309110505010
C          114.84561114865097       99.03926539107957      118.30521651904407
C          114.77693302948896       99.89578738556135      119.56803577627259
C          116.13611158260549      100.49028594486451      119.93208146736717
C          116.14302647132941      101.22322533181479      121.27450916645128
C          115.37440331208997      102.54220911153443      121.24558128037886
C          115.25718696979519      103.17481100096890      122.63041604309792
C          114.48076725373214      104.49265357926218      122.63702271355193
C          113.00823172087766      104.33477315461383      122.26861130959983
C          112.23638072429004      105.64918519045048      122.35739815725972
C          110.82080899711390      105.50166678201754      121.80503093676224
C          110.07014060766159      106.82848713418980      121.71916612695375
C          108.65168710377330      106.63292595356944      121.18758188977097
C          107.93546918545637      107.94545680272967      120.87976274760629
C          106.54294424989496      107.69708232044765      120.30354131243547
C          105.85572000158231      108.97198573722120      119.81943961862056
C          104.52521125800848      108.66382328228592      119.13564308879238
C          103.86133079913107      109.90075971605192      118.53412342662884
C          102.61511536631215      109.53611751809879      117.72957971630080
C          101.95503931238395      110.75084961125589      117.08061920138518
C          100.81662839529450      110.35156114753161      116.14289651484100
C          100.14317919860552      111.56385578563660      115.50270308697665
C           99.14705726677772      111.17324881550776      114.41139845053874
C           98.49658807698560      112.39699220790713      113.76915942861645
C           97.57608474480638      112.04030095568390      112.60307703731111
C           96.99963166528745      113.28888515547338      111.93752984941223
C           96.02240440549025      112.95740599134506      110.81126218026098
C           95.39833081544479      114.20301002034201      110.17552132725237
C           96.37067438961266      114.95289766719397      109.26824100950748
C           95.77299174521772      116.19808065345822      108.61233301686387
C           95.50096130948717      117.32982361058005      109.60209528268636
C           95.26243933555111      118.66047191890638      108.89190377078020
C           94.90606704129389      119.80458308940179      109.84227630152593
C           95.99353759026764      120.08401222323310      110.87767824055111
C           95.72681199544844      121.36060418525790      111.67421908076727
C           96.93238499767860      121.82459198745104      112.49509694034768
C           97.36068394072457      120.83787399950990      113.57962339359716
C           98.56943975136500      121.34344929244332      114.36603687922479
C           99.08169808862216      120.30191966736274      115.35830770122764
C          100.29917744189737      120.78582851324609      116.14408406099498
C          100.89534169219210      119.67509797296280      117.00711967806275
C          102.16939095192168      120.10320768349365      117.73363650470851
C          102.80470653850280      118.94282224149504      118.49977448851774
C          104.19429460680541      119.28117639098419      119.03743884460367
C          104.89072034359610      118.06173812092233      119.63795644732372
C          106.31708689325410      118.36612230743340      120.09246715769221
C          107.03198591110359      117.11318747941608      120.59422531877874
C          108.48638810689083      117.37423340000505      120.98120647026742
C          109.22643276801273      116.08023577240846      121.31262405795832
C          110.70979658539019      116.29821661809738      121.60521523222565
C          111.45745507159329      114.97411850375393      121.74330415559001
C          112.95904934618778      115.15957946963825      121.94626250802528
C          113.69078128544119      113.82299153831102      122.04247646615363
C          115.19019433273205      113.99037962940990      122.27454592394218
C          115.91519505342453      112.64828961567177      122.32655229001899
C          117.41060733792266      112.80067424907477      122.59031068454001
C          118.13365594046992      111.45737172490485      122.56981152832390
C          119.62749643387278      111.59460284455025      122.84284462592142
C          120.35393253098049      110.26036185720957      122.74312334826277
H          120.06119284951636      112.29284099394381      122.12366185571821
H          119.77293578815424      112.01429201569547      123.84306775198129
H          117.69276926057788      110.79646184879832      123.31931677340800
H          117.99102136631333      110.98938415200227      121.59378250091666
H          117.84606139251183      113.45307482750171      121.82962154202339
H          117.56182005368446      113.28079465554485      123.56203164667832
H          115.47273789786412      112.02907064613228      123.11134231236666
H          115.77167123950579      112.12701877839058      121.37699359575031
H          115.61428325627432      114.59581566947779      121.46964357406897
H          115.35411878669530      114.52791259213515      123.21314381493757
H          113.26363271356939      113.23929216599244      122.86211699846585
H          113.53175557902003      113.25864502135224      121.11935605468548
H          113.36658612291811      115.73313913243763      121.10932133930693
H          113.13615122246310      115.73608245147464      122.85813892948829
H          111.04391181883508      114.41429708402863      122.58553911234335
H          111.29350280065859      114.38048263928931      120.83986029808511
H          111.15694334373698      116.87840887276117      120.79307376120609
H          110.82410643255773      116.88263752429646      122.52111833874886
H          108.75457697574944      115.59777466965413      122.17184020588577
H          109.12967434577105      115.39726596554422      120.46572719074666
H          108.99216803326664      117.86980826167637      120.14729861226452
H          108.52404039539589      118.05388906250391      121.83559173972407
H          106.49317330107908      116.70911243398392      121.45557069003056
H          107.00576400473369      116.35555304034216      119.80738622960270
H          106.87590723622334      118.78569655226920      119.25167983137632
H          106.29843160430609      119.12225573299108      120.88134897571032
H          104.30834570598950      117.69171394777615      120.48619460013397
H          104.91993325960672      117.26680595446288      118.88872208613016
H          104.80661793176945      119.67419546436675      118.22119568965662
H          104.11512494908476      120.06637385641872      119.79345568409805
H          102.15241504288822      118.65025729432239      119.32673560428172
H          102.88703367816788      118.08289667568455      117.83073351165187
H          102.88703079568536      120.47947748304190      116.99968644686476
H          101.94707745203584      120.92363247960543      118.42052623969437
H          100.15274489781942      119.34652794428375      117.73901933099296
H          101.12771487699288      118.82160020606047      116.36586190558160
H          101.05660884222236      121.13858415258936      115.44038782538043
H          100.01680913509918      121.63260507462553      116.77468496078362
H           98.28036679818901      120.03998007538380      116.05415685546542
H           99.35116077426953      119.39624596141267      114.80927444342129
H           99.37172319842800      121.59220510013552      113.66666024471324
H           98.30208682556136      122.25902777720140      114.89969374844249
H           96.52586057412572      120.66640760228135      114.26420493908265
H           97.61780270731242      119.87964649804671      113.12435380530755
H           97.77408051583633      122.00031629380645      111.82066430599180
H           96.68822674329262      122.78080636417933      112.96607155072107
H           95.45915178164685      122.16144174178015      110.97900002423232
H           94.87172872112431      121.20482054220918      112.33731392931415
H           96.06362733419395      119.24051493385643      111.56495368661612
H           96.95153950799052      120.17731259116778      110.36178843274651
H           94.73965700154237      120.70941916358537      109.24990252366004
H           93.96904949090536      119.57306593775294      110.35149019367388
H           96.16112690228340      118.92788564562001      108.32912646841595
H           94.44899180047534      118.53782917696937      108.17101755074609
H           94.63227575576896      117.09123747537458      110.21842309333448
H           96.36501080374991      117.42467700845322      110.26150726262196
H           96.48131681654314      116.56155908642610      107.86239743330955
H           94.85150867064017      115.93167761563622      108.08829194619373
H           97.25148041056629      115.24945783701955      109.84062559866075
H           96.69737862813597      114.26941981418679      108.48166746330479
H           94.53025931942740      113.90237692449379      109.58243342582121
H           95.04409529939920      114.86244527374849      110.96960592379637
H           96.53583603334960      112.37591101986510      110.04165381310538
H           95.22347596717817      112.33189143486275      111.21870116069330
H           96.48028354103354      113.88813595252033      112.68885740502870
H           97.82165347924636      113.89196314767786      111.54745874788301
H           98.13532004849517      111.46267172182715      111.86329163792097
H           96.75930658461725      111.40994825481846      112.96465635002153
H           97.92324674732036      112.93627031799605      114.52793857936376
H           99.27931309097328      113.06869894317181      113.40914966228058
H           99.66655609222150      110.59718173362539      113.64168473600698
H           98.37263659067450      110.52932048317133      114.83621544583188
H           99.63037054071934      112.14448154687263      116.27364981282727
H          100.91183362298459      112.20619966096807      115.06634647955021
H          101.21630186524121      109.70672411776427      115.35612627414848
H          100.07355303604220      109.77112655737849      116.69589176720953
H          101.57422387460727      111.41935867388413      117.85639657437704
H          102.70561157159949      111.30456315958411      116.51047663370585
H          102.89637927834215      108.82522708004862      116.94840594949447
H          101.89383991626366      109.03666209026574      118.38185136572744
H          103.59533252302214      110.60118064400942      119.32906919438065
H          104.57298683274638      110.40614216684320      117.87602556986452
H          104.70151972574310      107.93664291017910      118.33859844578836
H          103.84491208374124      108.20098553913543      119.85551546515637
H          105.69167832000656      109.64929067347474      120.66066716677545
H          106.51012865770763      109.48325335200467      119.10872824233688
H          106.62943089655917      107.00606764422420      119.46086391176206
H          105.91883458178685      107.21215953915193      121.05885612641903
H          107.86042797435896      108.55087336577303      121.78594345677664
H          108.52717256837568      108.51201948770399      120.15636900851905
H          108.69925645625058      106.04149182115012      120.26943835303419
H          108.06497468391123      106.06203612426613      121.91274729520583
H          110.03769291404058      107.30355300573416      122.70224254509142
H          110.61439179697113      107.50063135627273      121.05122700879609
H          110.87511027330024      105.06683720066600      120.80410986110276
H          110.26198869535794      104.80278254293073      122.43242892245351
H          112.19556266317703      105.98839397206615      123.39505119438064
H          112.76686250835797      106.41258413640260      121.78233279219369
H          112.93004097703911      103.96330132187173      121.24642844080434
H          112.54594214503310      103.59598248708967      122.92776030287283
H          114.54676624355180      104.92724313650172      123.63780319550666
H          114.95024337373570      105.18957910110331      121.93792581283358
H          114.76431566900897      102.47333834154938      123.30929972694895
H          116.26305432162894      103.35473084057169      123.02304997551362
H          115.88275685521778      103.23730220193492      120.57282554507324
H          114.37539174262764      102.36360358239635      120.84959614830005
H          115.71382067696989      100.56669479264785      122.03641016205297
H          117.17856399570643      101.42531373614869      121.56386736237367
H          116.87029750893579       99.68163087318908      119.97223591387355
H          116.44926202724628      101.17885322569276      119.14546526266889
H          114.05317345975917      100.69655334795011      119.40613703927379
H          114.41244096147186       99.28663280675474      120.39956325307131
H          115.46283445556357       98.15690523973741      118.49530965676897
H          115.32898789940661       99.61103067782305      117.50882004081576
H          112.86932861412549       99.49373590794811      117.61086454445972
H          112.95389545083373       98.05852866032971      118.63553333255399
H          114.10623036352781       96.81802197450600      116.83997758280977
H          114.08032577696780       98.24721081298556      115.81047478786773
H          111.59514219974761       96.79257626327266      116.82068984870178
H          112.33444047874167       96.57801473612911      115.23481541577685
H          112.04995477997620       99.11986447993428      114.92172982389920
H          110.96300701234995       99.06574080278949      116.31102830700421
H          109.50500245948680       97.45481357666058      115.12733731252709
H          110.62624683874388       97.42430643614352      113.76868437115461
H          110.30582402981723       99.93115887905077      113.54292139917496
H          109.03451351024056       99.82737315916950      114.75990486160900
H          107.71925728375301       98.34176173777568      113.26684164778102
H          109.02092882096905       98.37426202427919      112.07763936960568
H          108.80633390720620      100.86317116130492      111.95038807315285
H          107.42809887583694      100.78586391110240      113.04527637977209
H          106.14831248184568       99.48686483024959      111.38738020968988
H          107.54845369495338       99.42079707668836      110.31873464825497
H          107.52828799590478      101.86673153816604      110.07069962402510
H          106.21300828026457      102.00288342186587      111.23428274507671
H          104.69882827033737      100.79729589509051      109.71908052771140
H          106.00386268073910      100.55356352822122      108.55848838065454
H          106.20114997445611      102.98494780577334      108.21366582031915
H          105.01409220388675      103.28984279218675      109.47812991178324
H          103.27737215788754      102.12485778034630      108.14793516363818
H          104.45176339759672      101.81441454802162      106.86978652341797
H          104.73057005658029      104.24067229328968      106.50388703200620
H          103.63394950663799      104.58887647088333      107.83771082836297
H          101.77599731841207      103.48715947543346      106.64002290377830
H          102.85686119167077      103.05878670027722      105.31589735324762
H          103.23070719636995      105.43905785762783      104.80411982642525
H          102.25069173360690      105.91394571606055      106.19272183867908
H          100.24983837631176      104.91573908653947      105.18512474057339
H          101.19112243970129      104.30177552280553      103.83002326995167
H          101.63991005209505      106.52363402156389      103.01268073920612
H          101.01710516102632      107.27040329550033      104.48246867417437
H           98.75597683686999      106.69265120169645      103.96397930352809
H           99.25337029915535      105.50323083711837      102.76572741778254
H           98.33749359934532      107.39510199313852      101.61848329746228
H          100.05840962086310      107.29869752151841      101.27068329629859
H          100.49333419616487      109.11613544257818      102.91172484337795
H           98.76333287588426      109.22694336007412      103.24351389682393
H           98.34828551753695      109.70624656723727      100.83076800228947
H          100.07972434467818      109.63143144704300      100.51829905862576
H           98.75670940181475      111.64410201227298      102.39028153829287
H           99.13023140257843      111.94512589323728      100.69472207699769
H          101.56691566768647      111.43315854067430      101.23345398561221
H          101.11608160587197      111.42490460392321      102.93904662922951
H          100.22681501871487      113.75488109133997      102.68389319881250
H          100.78052882098187      113.75759318217108      101.00898741695313
H          103.12479474077277      113.39511590499409      101.79991347962142
H          102.55047292063436      113.41075297107702      103.46795537102577
H          101.71381938866422      115.74572287652222      103.14031998203291
H          102.37452475336053      115.74107870441480      101.50730260225833
H          104.65207168959427      115.36041090539059      102.41818949503866
H          103.99725731249380      115.29785916054334      104.05198580749705
H          103.15756080833108      117.66751843218381      103.73763158683907
H          103.98688599309720      117.70773100119439      102.18380551579270
H          106.14659283404387      117.17803128913926      103.38637462197278
H          105.27637879437161      117.29370703343939      104.91698403983033
H          104.66232274568657      119.66921067048273      104.31861931536581
H          105.65555819012053      119.51789313081119      102.86787130995874
H          107.63401022953093      118.99782222719971      104.33800793952128
H          106.61357998824109      119.26737892775967      105.75014622378960
H          106.19032928779403      121.61923919316335      104.93433212007349
H          107.31332598877800      121.32201414022350      103.60743433093495
H          109.10088485532158      120.78869690748631      105.30024936242469
H          107.96240301004310      121.20185404062309      106.58071195940514
H          107.80034905167727      123.52176406724161      105.67065700745881
H          108.99593933762522      123.10771846707182      104.44019665545571
H          110.64324578617290      122.56006027482637      106.22058231095779
H          109.43692643851304      122.93955283624994      107.45130372732011
H          109.36744371041273      125.29858687819940      106.62431093842339
H          110.64038284186854      124.91332473320675      105.46749834550715
H          112.14352365064654      124.25622955292242      107.34203024550344
H          110.85884018486828      124.60597254244394      108.49601308504964
H          110.88161850586961      126.99957142801448      107.78553697006815
H          112.20188182826506      126.64870602175408      106.67188155739831
H          113.62059924631461      125.90690577070141      108.56517415267980
H          112.28201801992442      126.17658184900610      109.67903743551237
H          112.33486993298158      128.61107501442774      109.14806899050400
H          113.64180819936706      128.32667490336667      108.00030045749959
H          114.68001314075364      129.13851124213892      109.98528820177249
H          115.03131811027377      127.41281027361826      109.92004595412149
H          113.13944366334292      127.00919732950989      111.52509568011251
H          112.86322100770010      128.74613542859856      111.60441561124375
H          115.19615118260957      129.02711347541722      112.50527978759999
H          115.39701011248381      127.27707517923992      112.45711810474305
H          113.38045391282269      127.06422491977241      113.97482210257047
H          113.33185591688252      128.82226319051261      114.07636166539426
H          114.44525612630714      128.16937195472588      116.03364401242457
H          115.75166363807095      128.69081444182729      114.97408656116716
H          116.27414457684819      126.32733955788760      114.43741265989118
H          114.87220287299436      125.79542292254399      115.36351750096462
H          115.88812269054647      126.81373698180892      117.42212466172509
H          117.32880340006243      127.21051127307621      116.48856079385163
H          117.67282985747410      124.78956823007684      116.00062212469848
H          116.20468313042163      124.40412851199105      116.89282161225849
H          117.23313854162181      125.38917011844536      118.95984964737724
H          118.72907788762906      125.65091336965563      118.06535291840065
H          118.87729094157663      123.19685489320780      117.61699980277572
H          117.36944767382776      122.95568918100375      118.49413457762004
H          118.43535024344283      123.83823436877577      120.56772444990781
H          119.95826208549965      124.02489378568183      119.69960809846778
H          119.99783398559001      121.58706666088325      119.22677656753336
H          118.44635084596473      121.39931698395148      120.04454992175448
H          119.47607290764253      122.15821587689031      122.17801039852775
H          121.03599273748830      122.31548834591254      121.36918200951700
H          120.97852743326445      119.91216693966552      120.77503065493299
H          119.41342657486723      119.74280853470358      121.57295498284088
H          121.96548454980238      120.57435009748856      123.00398949854389
H          121.38821756628987      118.91334157822288      122.88282694462508
H          119.17908787783674      119.77529187257976      123.91676988509890
H          120.08622075415430      121.21560180009213      124.37269664644165
H          120.76837339636657      118.34560622048367      125.15067321817708
H          119.98767734093749      119.53490747892657      126.19198172760279
H          122.02366071364671      120.98759619742887      125.99790707774122
H          122.81631708740554      119.71102903123605      125.06955859572605
H          122.47026439275972      118.13612688453118      126.98034366373297
H          121.79926084269191      119.45919847853148      127.93239273826113
H          124.61587612084359      119.40351155520781      126.76273708860121
H          124.20460147696227      118.95189336621613      128.41666603081325
H          123.32992123331096      121.27171970841334      128.81117146629381
H          125.04471058673604      121.24665644187399      128.39743882181904
H          123.85701224078858      121.72612775577002      127.18926522874644
H          121.40363149707936      110.37301890450503      123.00851591261777
H          119.90828970900722      109.52806958440445      123.41094404508878
H          120.30198647166614      109.87179061561498      121.72942408292461
C          116.29521948459120      121.94389725468140      122.67472478131113
C          114.94413868435282      122.55615917905421      122.32938104179426
C          114.96248286992116      123.26135166273049      120.97593149299475
C          113.59818987932378      123.84159062636154      120.61191297205029
C          113.62031289746641      124.57870797579245      119.27557957348002
C          112.25026579411113      125.14057423945829      118.89989114694194
C          112.29458162107390      125.87208388031324      117.56093603798099
C          110.95644164396519      126.47471055034137      117.12894873771651
C          109.91107605395780      125.42733093196564      116.74709033728708
C          108.67522286784650      126.05541162320218      116.10361999864020
C          107.73264604893853      125.02594369402715      115.47689096917537
C          106.96227767931073      124.15466117136796      116.46988685811515
C          105.88695721787323      124.91926882260877      117.24141199419101
C          104.86048318926210      123.99659209437299      117.90319828157185
C          105.41606995825691      123.10878864050160      119.01808568385596
C          105.77165345224832      123.88580318298625      120.28344640356633
C          106.23062318872198      122.98781824224680      121.43459728071743
C          107.61456703775490      122.38392000270659      121.20760438941113
C          108.12831262190123      121.62012168012384      122.42647459440937
C          109.55081976174625      121.11143896074196      122.20760510084207
C          110.10878429450216      120.35748662827494      123.41265232206983