      -----------------------------------------------------------      
     |                   =====================                   |     
     |                           x T B                           |     
     |                   =====================                   |     
     |                         S. Grimme                         |     
     |          Mulliken Center for Theoretical Chemistry        |     
     |                    University of Bonn                     |     
      -----------------------------------------------------------      

   * xtb version 6.6.1 (8d0f1dd) compiled by 'stahn@M-Bot' on 2023-08-01

   xtb is free software: you can redistribute it and/or modify it under
   the terms of the GNU Lesser General Public License as published by
   the Free Software Foundation, either version 3 of the License, or
   (at your option) any later version.
   
   xtb is distributed in the hope that it will be useful,
   but WITHOUT ANY WARRANTY; without even the implied warranty of
   MERCHANTABILITY or FITNESS FOR A PARTICULAR PURPOSE.  See the
   GNU Lesser General Public License for more details.
   
   Cite this work as:
   * C. Bannwarth, E. Caldeweyher, S. Ehlert, A. Hansen, P. Pracht,
     J. Seibert, S. Spicher, S. Grimme, WIREs Comput. Mol. Sci., 2020, 11,
     e01493. DOI: 10.1002/wcms.1493
   
   for GFN2-xTB:
   * C. Bannwarth, S. Ehlert and S. Grimme., J. Chem. Theory Comput., 2019,
     15, 1652-1671. DOI: 10.1021/acs.jctc.8b01176
   for GFN1-xTB:
   * S. Grimme, C. Bannwarth, P. Shushkov, J. Chem. Theory Comput., 2017,
     13, 1989-2009. DOI: 10.1021/acs.jctc.7b00118
   for GFN0-xTB:
   * P. Pracht, E. Caldeweyher, S. Ehlert, S. Grimme, ChemRxiv, 2019, preprint.
     DOI: 10.26434/chemrxiv.8326202.v1
   for GFN-FF:
   * S. Spicher and S. Grimme, Angew. Chem. Int. Ed., 2020, 59, 15665-15673.
     DOI: 10.1002/anie.202004239
   
   for ALPB and GBSA implicit solvation:
   * S. Ehlert, M. Stahn, S. Spicher, S. Grimme, J. Chem. Theory Comput.,
     2021, 17, 4250-4261. DOI: 10.1021/acs.jctc.1c00471
   
   for DFT-D4:
   * E. Caldeweyher, C. Bannwarth and S. Grimme, J. Chem. Phys., 2017,
     147, 034112. DOI: 10.1063/1.4993215
   * E. Caldeweyher, S. Ehlert, A. Hansen, H. Neugebauer, S. Spicher,
     C. Bannwarth and S. Grimme, J. Chem. Phys., 2019, 150, 154122.
     DOI: 10.1063/1.5090222
   * E. Caldeweyher, J.-M. Mewes, S. Ehlert and S. Grimme, Phys. Chem. Chem. Phys.
     2020, 22, 8499-8512. DOI: 10.1039/D0CP00502A
   
   for sTDA-xTB:
   * S. Grimme and C. Bannwarth, J. Chem. Phys., 2016, 145, 054103.
     DOI: 10.1063/1.4959605
   
   in the mass-spec context:
   * V. Asgeirsson, C. Bauer and S. Grimme, Chem. Sci., 2017, 8, 4879.
     DOI: 10.1039/c7sc00601b
   * J. Koopman and S. Grimme, ACS Omega 2019, 4, 12, 15120-15133.
     DOI: 10.1021/acsomega.9b02011
   
   for metadynamics refer to:
   * S. Grimme, J. Chem. Theory Comput., 2019, 155, 2847-2862
     DOI: 10.1021/acs.jctc.9b00143
   
   for SPH calculations refer to:
   * S. Spicher and S. Grimme, J. Chem. Theory Comput., 2021, 17, 1701-1714
     DOI: 10.1021/acs.jctc.0c01306
   
   with help from (in alphabetical order)
   P. Atkinson, C. Bannwarth, F. Bohle, G. Brandenburg, E. Caldeweyher
   M. Checinski, S. Dohm, S. Ehlert, S. Ehrlich, I. Gerasimov, C. Hölzer
   A. Katbashev, J. Koopman, C. Lavigne, S. Lehtola, F. März, M. Müller,
   F. Musil, H. Neugebauer, J. Pisarek, C. Plett, P. Pracht, F. Pultar,
   J. Seibert, P. Shushkov, S. Spicher, M. Stahn, M. Steiner, T. Strunk,
   J. Stückrath, T. Rose, and J. Unsleber
   
 * started run on 2024/10/03 at 21:21:51.650     

           -------------------------------------------------
          |                Calculation Setup                |
           -------------------------------------------------

          program call               : /home/abt-grimme/AK-bin/xtb input.xyz --input input.inp --opt
          hostname                   : boar097.thch.uni-bonn.de
          coordinate file            : input.xyz
          omp threads                :                     8

   ID    Z sym.   atoms
    1    6 C      1-120, 363-482, 725-844, 1087-1206, 1449-1568, 1811-1930,
                  2173-2292, 2535-2654, 2897-3016
    2    1 H      121-362, 483-724, 845-1086, 1207-1448, 1569-1810,
                  1931-2172, 2293-2534, 2655-2896, 3017-3258

molecular fragmentation (1/2 indicates fragments):
111111111111111111111111111111111111111111111111111111111111111111111111
111111111111111111111111111111111111111111111111111111111111111111111111
111111111111111111111111111111111111111111111111111111111111111111111111
111111111111111111111111111111111111111111111111111111111111111111111111
111111111111111111111111111111111111111111111111111111111111111111111111
112222222222222222222222222222222222222222222222222222222222222222222222
222222222222222222222222222222222222222222222222222222222222222222222222
222222222222222222222222222222222222222222222222222222222222222222222222
222222222222222222222222222222222222222222222222222222222222222222222222
222222222222222222222222222222222222222222222222222222222222222222222222
222222222222222222222222222222222222222222222222222222222222222222222222
222222222222222222222222222222222222222222222222222222222222222222222222
222222222222222222222222222222222222222222222222222222222222222222222222
222222222222222222222222222222222222222222222222222222222222222222222222
222222222222222222222222222222222222222222222222222222222222222222222222
222222222222222222222222222222222222222222222222222222222222222222222222
222222222222222222222222222222222222222222222222222222222222222222222222
222222222222222222222222222222222222222222222222222222222222222222222222
222222222222222222222222222222222222222222222222222222222222222222222222
222222222222222222222222222222222222222222222222222222222222222222222222
222222222222222222222222222222222222222222222222222222222222222222222222
222222222222222222222222222222222222222222222222222222222222222222222222
222222222222222222222222222222222222222222222222222222222222222222222222
222222222222222222222222222222222222222222222222222222222222222222222222
222222222222222222222222222222222222222222222222222222222222222222222222
222222222222222222222222222222222222222222222222222222222222222222222222
222222222222222222222222222222222222222222222222222222222222222222222222
222222222222222222222222222222222222222222222222222222222222222222222222
222222222222222222222222222222222222222222222222222222222222222222222222
222222222222222222222222222222222222222222222222222222222222222222222222
222222222222222222222222222222222222222222222222222222222222222222222222
222222222222222222222222222222222222222222222222222222222222222222222222
222222222222222222222222222222222222222222222222222222222222222222222222
222222222222222222222222222222222222222222222222222222222222222222222222
222222222222222222222222222222222222222222222222222222222222222222222222
222222222222222222222222222222222222222222222222222222222222222222222222
222222222222222222222222222222222222222222222222222222222222222222222222
222222222222222222222222222222222222222222222222222222222222222222222222
222222222222222222222222222222222222222222222222222222222222222222222222
222222222222222222222222222222222222222222222222222222222222222222222222
222222222222222222222222222222222222222222222222222222222222222222222222
222222222222222222222222222222222222222222222222222222222222222222222222
222222222222222222222222222222222222222222222222222222222222222222222222
222222222222222222222222222222222222222222222222222222222222222222222222
222222222222222222222222222222222222222222222222222222222222222222222222
222222222222222222
# atoms in fragment 1/2:   362  2896
 fragment masses (1/2) :     1685.21    13481.68
CMA distance (Bohr)    :  15.996
constraining FC (au)   :  0.0500

           -------------------------------------------------
          |                 G F N 2 - x T B                 |
           -------------------------------------------------

        Reference                      10.1021/acs.jctc.8b01176
      * Hamiltonian:
        H0-scaling (s, p, d)           1.850000    2.230000    2.230000
        zeta-weighting                 0.500000
      * Dispersion:
        s8                             2.700000
        a1                             0.520000
        a2                             5.000000
        s9                             5.000000
      * Repulsion:
        kExp                           1.500000    1.000000
        rExp                           1.000000
      * Coulomb:
        alpha                          2.000000
        third order                    shell-resolved
        anisotropic                    true
        a3                             3.000000
        a5                             4.000000
        cn-shift                       1.200000
        cn-exp                         4.000000
        max-rad                        5.000000


          ...................................................
          :                      SETUP                      :
          :.................................................:
          :  # basis functions                6498          :
          :  # atomic orbitals                6498          :
          :  # shells                         4338          :
          :  # electrons                      6498          :
          :  max. iterations                   250          :
          :  Hamiltonian                  GFN2-xTB          :
          :  restarted?                      false          :
          :  GBSA solvation                  false          :
          :  PC potential                    false          :
          :  electronic temp.          300.0000000     K    :
          :  accuracy                    1.0000000          :
          :  -> integral cutoff          0.2500000E+02      :
          :  -> integral neglect         0.1000000E-07      :
          :  -> SCF convergence          0.1000000E-05 Eh   :
          :  -> wf. convergence          0.1000000E-03 e    :
          :  Broyden damping             0.4000000          :
          ...................................................

 iter      E             dE          RMSdq      gap      omega  full diag
   1  -3473.5716829 -0.347357E+04  0.244E+00   11.37       0.0  T
   2  -3478.6197919 -0.504811E+01  0.134E+00   11.47       1.0  T
   3  -3478.8263567 -0.206565E+00  0.594E-01   11.45       1.0  T
   4  -3478.8467930 -0.204363E-01  0.753E-02   11.47       1.0  T
   5  -3478.8477883 -0.995370E-03  0.391E-02   11.47       1.0  T
   6  -3478.8479972 -0.208814E-03  0.683E-03   11.47       1.0  T
   7  -3478.8480144 -0.172657E-04  0.124E-03   11.47       1.4  T
   8  -3478.8480155 -0.106278E-05  0.388E-04   11.47       4.5  T
   9  -3478.8480155 -0.680575E-07  0.142E-04   11.47      12.3  T
  10  -3478.8480156 -0.376485E-08  0.423E-05   11.47      41.4  T

   *** convergence criteria satisfied after 10 iterations ***

         #    Occupation            Energy/Eh            Energy/eV
      -------------------------------------------------------------
         1        2.0000           -0.6261025             -17.0371
       ...           ...                  ...                  ...
      3243        2.0000           -0.4021650             -10.9435
      3244        2.0000           -0.4021432             -10.9429
      3245        2.0000           -0.4020816             -10.9412
      3246        2.0000           -0.4017525             -10.9322
      3247        2.0000           -0.4015270             -10.9261
      3248        2.0000           -0.4011129             -10.9148
      3249        2.0000           -0.4010753             -10.9138 (HOMO)
      3250                          0.0205560               0.5594 (LUMO)
      3251                          0.0213218               0.5802
      3252                          0.0220725               0.6006
      3253                          0.0223600               0.6084
      3254                          0.0228355               0.6214
       ...                                ...                  ...
      6498                          0.3897283              10.6050
      -------------------------------------------------------------
                  HL-Gap            0.4216313 Eh           11.4732 eV
             Fermi-level           -0.1902597 Eh           -5.1772 eV

 SCC (total)                   0 d,  0 h, 14 min, 51.233 sec
 SCC setup                      ...        0 min,  0.446 sec (  0.050%)
 Dispersion                     ...        0 min,  3.573 sec (  0.401%)
 classical contributions        ...        0 min,  0.152 sec (  0.017%)
 integral evaluation            ...        0 min,  5.870 sec (  0.659%)
 iterations                     ...       10 min, 26.765 sec ( 70.326%)
 molecular gradient             ...        4 min,  5.706 sec ( 27.569%)
 printout                       ...        0 min,  8.721 sec (  0.979%)

         :::::::::::::::::::::::::::::::::::::::::::::::::::::
         ::                     SUMMARY                     ::
         :::::::::::::::::::::::::::::::::::::::::::::::::::::
         :: total energy           -3427.570774343686 Eh    ::
         :: gradient norm              0.019190201536 Eh/a0 ::
         :: HOMO-LUMO gap             11.473171949061 eV    ::
         ::.................................................::
         :: SCC energy             -3478.848015551271 Eh    ::
         :: -> isotropic ES            0.416595668839 Eh    ::
         :: -> anisotropic ES          1.122944741970 Eh    ::
         :: -> anisotropic XC          1.946548387291 Eh    ::
         :: -> dispersion             -4.073052294662 Eh    ::
         :: repulsion energy          50.614074584983 Eh    ::
         :: add. restraining           0.000000000000 Eh    ::
         :: total charge              -0.000000000009 e     ::
         :::::::::::::::::::::::::::::::::::::::::::::::::::::

      ----------------------------------------------------------- 
     |              Fast Inertial Relaxation Engine              |
      ----------------------------------------------------------- 

          ...................................................
          :                      SETUP                      :
          :.................................................:
          :   energy convergence        0.5000000E-05 Eh    :
          :   grad. convergence         0.1000000E-02 Eh/a0 :
          :   optimization log               true           :
          :   writing optlog all                1     steps :
          :   Hessian reset                    20     steps :
          :   time step scaling                 5     steps :
          :   maximium step len.        1.0000000     a0    :
          :   initial time step         0.2500000     fs    :
          :   maximum time step         1.2500000     fs    :
          :   power reset thr           0.0000000     au    :
          :   alpha parameter           0.1000000           :
          :   BFGS update                   false           :
          :   preconditioning               false           :
          ...................................................

........................................................................
.............................. CYCLE    1 ..............................
........................................................................

 iter      E             dE          RMSdq      gap      omega  full diag
   1  -3478.8517072 -0.347885E+04  0.276E-04   11.47       0.0  T
   2  -3478.8517072 -0.307718E-07  0.157E-04   11.47      11.1  T
   3  -3478.8517072 -0.720320E-09  0.510E-05   11.47      34.4  T
     SCC iter.                  ...        2 min, 58.002 sec
     gradient                   ...        4 min,  4.205 sec
 * total energy  : -3427.5708157 Eh     change    :  -0.4139954E-04 Eh
   gradient norm :     0.0176384 Eh/a0  converged?    E=F G=F D=F
   time step     :     0.2500000 fs     power     :   0.2105079E-08
   step length   :     0.0022491 a0     speed     :   0.2176077E-03

........................................................................
.............................. CYCLE    2 ..............................
........................................................................

 iter      E             dE          RMSdq      gap      omega  full diag
   1  -3478.8570798 -0.347886E+04  0.399E-04   11.47       0.0  T
   2  -3478.8570799 -0.645337E-07  0.228E-04   11.47       7.7  T
   3  -3478.8570799 -0.141790E-08  0.738E-05   11.47      23.8  T
     SCC iter.                  ...        3 min,  6.929 sec
     gradient                   ...        4 min,  3.888 sec
 * total energy  : -3427.5708700 Eh     change    :  -0.5422775E-04 Eh
   gradient norm :     0.0154065 Eh/a0  converged?    E=F G=F D=F
   time step     :     0.2500000 fs     power     :   0.2680518E-08
   step length   :     0.0032825 a0     speed     :   0.3175951E-03

........................................................................
.............................. CYCLE    3 ..............................
........................................................................

 iter      E             dE          RMSdq      gap      omega  full diag
   1  -3478.8638975 -0.347886E+04  0.508E-04   11.47       0.0  T
   2  -3478.8638976 -0.103718E-06  0.290E-04   11.47       6.0  T
   3  -3478.8638976 -0.236696E-08  0.934E-05   11.47      18.8  T
     SCC iter.                  ...        2 min, 58.204 sec
     gradient                   ...        4 min,  5.168 sec
 * total energy  : -3427.5709285 Eh     change    :  -0.5849963E-04 Eh
   gradient norm :     0.0126192 Eh/a0  converged?    E=F G=F D=F
   time step     :     0.2500000 fs     power     :   0.2787148E-08
   step length   :     0.0041841 a0     speed     :   0.4048304E-03

........................................................................
.............................. CYCLE    4 ..............................
........................................................................

 iter      E             dE          RMSdq      gap      omega  full diag
   1  -3478.8718560 -0.347887E+04  0.595E-04   11.47       0.0  T
   2  -3478.8718562 -0.140608E-06  0.340E-04   11.47       5.2  T
   3  -3478.8718562 -0.318232E-08  0.109E-04   11.47      16.1  T
     SCC iter.                  ...        3 min,  0.498 sec
     gradient                   ...        4 min,  5.864 sec
 * total energy  : -3427.5709822 Eh     change    :  -0.5376532E-04 Eh
   gradient norm :     0.0094762 Eh/a0  converged?    E=F G=F D=F
   time step     :     0.2500000 fs     power     :   0.2422104E-08
   step length   :     0.0049187 a0     speed     :   0.4759088E-03

........................................................................
.............................. CYCLE    5 ..............................
........................................................................

 iter      E             dE          RMSdq      gap      omega  full diag
   1  -3478.8805811 -0.347888E+04  0.656E-04   11.47       0.0  T
   2  -3478.8805813 -0.167763E-06  0.375E-04   11.47       4.7  T
   3  -3478.8805813 -0.385171E-08  0.118E-04   11.47      14.8  T
     SCC iter.                  ...        3 min,  1.260 sec
     gradient                   ...        4 min,  5.802 sec
 * total energy  : -3427.5710235 Eh     change    :  -0.4125789E-04 Eh
   gradient norm :     0.0063486 Eh/a0  converged?    E=F G=F D=F
   time step     :     0.2500000 fs     power     :   0.1669804E-08
   step length   :     0.0054562 a0     speed     :   0.5279155E-03

........................................................................
.............................. CYCLE    6 ..............................
........................................................................

 iter      E             dE          RMSdq      gap      omega  full diag
   1  -3478.8905317 -0.347889E+04  0.759E-04   11.47       0.0  T
   2  -3478.8905319 -0.215017E-06  0.434E-04   11.47       4.0  T
   3  -3478.8905319 -0.513091E-08  0.132E-04   11.47      13.2  T
     SCC iter.                  ...        2 min, 58.040 sec
     gradient                   ...        4 min,  5.123 sec
 * total energy  : -3427.5710487 Eh     change    :  -0.2517734E-04 Eh
   gradient norm :     0.0041392 Eh/a0  converged?    E=F G=F D=F
   time step     :     0.2750000 fs     power     :   0.5962556E-09
   step length   :     0.0063707 a0     speed     :   0.5603652E-03

........................................................................
.............................. CYCLE    7 ..............................
........................................................................

 iter      E             dE          RMSdq      gap      omega  full diag
   1  -3478.9006439 -0.347890E+04  0.805E-04   11.47       0.0  T
   2  -3478.9006441 -0.214732E-06  0.462E-04   11.47       3.8  T
   3  -3478.9006441 -0.532646E-08  0.129E-04   11.47      13.6  T
     SCC iter.                  ...        2 min, 57.905 sec
     gradient                   ...        4 min,  5.762 sec
 * total energy  : -3427.5710520 Eh     change    :  -0.3321399E-05 Eh
   gradient norm :     0.0053895 Eh/a0  converged?    E=T G=F D=F
   time step     :     0.3025000 fs     power     :  -0.4370740E-09
   step length   :     0.0068683 a0     speed     :   0.5492132E-03

........................................................................
.............................. CYCLE    8 ..............................
........................................................................
 * reset velocities

 iter      E             dE          RMSdq      gap      omega  full diag
   1  -3478.9005195 -0.347890E+04  0.150E-05   11.47       0.0  T
   2  -3478.9005195 -0.139153E-09  0.821E-06   11.47     213.5  T
   3  -3478.9005195 -0.268301E-10  0.344E-06   11.47     509.9  T
     SCC iter.                  ...        2 min, 57.491 sec
     gradient                   ...        4 min,  5.867 sec
 * total energy  : -3427.5710526 Eh     change    :  -0.6034306E-06 Eh
   gradient norm :     0.0052219 Eh/a0  converged?    E=T G=F D=T
   time step     :     0.1512500 fs     power     :   0.5204690E-10
   step length   :     0.0001156 a0     speed     :   0.1848723E-04

........................................................................
.............................. CYCLE    9 ..............................
........................................................................

 iter      E             dE          RMSdq      gap      omega  full diag
   1  -3478.9002732 -0.347890E+04  0.283E-05   11.47       0.0  T
   2  -3478.9002732 -0.236469E-09  0.165E-05   11.47     106.2  T
   3  -3478.9002732 -0.254659E-10  0.411E-06   11.47     426.6  T
     SCC iter.                  ...        2 min, 59.889 sec
     gradient                   ...        4 min,  4.582 sec
 * total energy  : -3427.5710538 Eh     change    :  -0.1166014E-05 Eh
   gradient norm :     0.0051013 Eh/a0  converged?    E=T G=F D=T
   time step     :     0.1512500 fs     power     :   0.1010344E-09
   step length   :     0.0002266 a0     speed     :   0.3624354E-04

........................................................................
.............................. CYCLE   10 ..............................
........................................................................

 iter      E             dE          RMSdq      gap      omega  full diag
   1  -3478.8999107 -0.347890E+04  0.415E-05   11.47       0.0  T
   2  -3478.8999107 -0.501586E-09  0.242E-05   11.47      72.3  T
   3  -3478.8999107 -0.318323E-11  0.607E-06   11.47     288.8  T
     SCC iter.                  ...        3 min,  2.645 sec
     gradient                   ...        4 min,  6.914 sec
 * total energy  : -3427.5710554 Eh     change    :  -0.1684904E-05 Eh
   gradient norm :     0.0049255 Eh/a0  converged?    E=T G=F D=T
   time step     :     0.1512500 fs     power     :   0.1447922E-09
   step length   :     0.0003357 a0     speed     :   0.5369243E-04

........................................................................
.............................. CYCLE   11 ..............................
........................................................................

 iter      E             dE          RMSdq      gap      omega  full diag
   1  -3478.8994404 -0.347890E+04  0.544E-05   11.47       0.0  T
   2  -3478.8994404 -0.785349E-09  0.317E-05   11.47      55.2  T
   3  -3478.8994404  0.181899E-11  0.791E-06   11.47     221.5  T
     SCC iter.                  ...        3 min,  0.246 sec
     gradient                   ...        4 min,  3.987 sec
 * total energy  : -3427.5710576 Eh     change    :  -0.2119968E-05 Eh
   gradient norm :     0.0046999 Eh/a0  converged?    E=T G=F D=T
   time step     :     0.1512500 fs     power     :   0.1815229E-09
   step length   :     0.0004412 a0     speed     :   0.7055781E-04

........................................................................
.............................. CYCLE   12 ..............................
........................................................................

 iter      E             dE          RMSdq      gap      omega  full diag
   1  -3478.8988734 -0.347890E+04  0.666E-05   11.47       0.0  T
   2  -3478.8988734 -0.105820E-08  0.389E-05   11.47      45.1  T
   3  -3478.8988734 -0.954969E-10  0.957E-06   11.47     183.0  T
     SCC iter.                  ...        2 min, 57.649 sec
     gradient                   ...        4 min,  5.209 sec
 * total energy  : -3427.5710600 Eh     change    :  -0.2471454E-05 Eh
   gradient norm :     0.0044322 Eh/a0  converged?    E=T G=F D=T
   time step     :     0.1512500 fs     power     :   0.2098751E-09
   step length   :     0.0005418 a0     speed     :   0.8664263E-04

........................................................................
.............................. CYCLE   13 ..............................
........................................................................

 iter      E             dE          RMSdq      gap      omega  full diag
   1  -3478.8982241 -0.347890E+04  0.778E-05   11.47       0.0  T
   2  -3478.8982241 -0.151795E-08  0.455E-05   11.47      38.5  T
   3  -3478.8982241 -0.222826E-10  0.110E-05   11.47     158.8  T
     SCC iter.                  ...        3 min,  0.247 sec
     gradient                   ...        4 min,  5.634 sec
 * total energy  : -3427.5710628 Eh     change    :  -0.2714118E-05 Eh
   gradient norm :     0.0041327 Eh/a0  converged?    E=T G=F D=T
   time step     :     0.1512500 fs     power     :   0.2290796E-09
   step length   :     0.0006364 a0     speed     :   0.1017775E-03

........................................................................
.............................. CYCLE   14 ..............................
........................................................................

 iter      E             dE          RMSdq      gap      omega  full diag
   1  -3478.8974307 -0.347890E+04  0.979E-05   11.47       0.0  T
   2  -3478.8974307 -0.230375E-08  0.572E-05   11.47      30.6  T
   3  -3478.8974307 -0.632099E-10  0.136E-05   11.47     128.4  T
     SCC iter.                  ...        2 min, 57.829 sec
     gradient                   ...        4 min,  5.861 sec
 * total energy  : -3427.5710659 Eh     change    :  -0.3161092E-05 Eh
   gradient norm :     0.0037797 Eh/a0  converged?    E=T G=F D=T
   time step     :     0.1663750 fs     power     :   0.2394387E-09
   step length   :     0.0008063 a0     speed     :   0.1172261E-03

........................................................................
.............................. CYCLE   15 ..............................
........................................................................

 iter      E             dE          RMSdq      gap      omega  full diag
   1  -3478.8964940 -0.347890E+04  0.121E-04   11.47       0.0  T
   2  -3478.8964940 -0.335285E-08  0.706E-05   11.47      24.8  T
   3  -3478.8964940 -0.923137E-10  0.163E-05   11.47     107.3  T
     SCC iter.                  ...        3 min,  8.943 sec
     gradient                   ...        4 min,  5.336 sec
 * total energy  : -3427.5710694 Eh     change    :  -0.3521107E-05 Eh
   gradient norm :     0.0033890 Eh/a0  converged?    E=T G=F D=F
   time step     :     0.1830125 fs     power     :   0.2386241E-09
   step length   :     0.0010032 a0     speed     :   0.1325900E-03

........................................................................
.............................. CYCLE   16 ..............................
........................................................................

 iter      E             dE          RMSdq      gap      omega  full diag
   1  -3478.8954357 -0.347890E+04  0.145E-04   11.47       0.0  T
   2  -3478.8954357 -0.459022E-08  0.852E-05   11.47      20.6  T
   3  -3478.8954357 -0.518412E-10  0.189E-05   11.47      92.9  T
     SCC iter.                  ...        3 min,  5.900 sec
     gradient                   ...        4 min,  4.932 sec
 * total energy  : -3427.5710732 Eh     change    :  -0.3749508E-05 Eh
   gradient norm :     0.0029990 Eh/a0  converged?    E=T G=F D=F
   time step     :     0.2013138 fs     power     :   0.2255855E-09
   step length   :     0.0012261 a0     speed     :   0.1473260E-03

........................................................................
.............................. CYCLE   17 ..............................
........................................................................

 iter      E             dE          RMSdq      gap      omega  full diag
   1  -3478.8943136 -0.347889E+04  0.171E-04   11.47       0.0  T
   2  -3478.8943137 -0.570299E-08  0.100E-04   11.47      17.5  T
   3  -3478.8943137 -0.105956E-09  0.208E-05   11.47      84.4  T
     SCC iter.                  ...        3 min,  3.738 sec
     gradient                   ...        4 min,  7.218 sec
 * total energy  : -3427.5710770 Eh     change    :  -0.3792999E-05 Eh
   gradient norm :     0.0026792 Eh/a0  converged?    E=T G=F D=F
   time step     :     0.2214451 fs     power     :   0.2019892E-09
   step length   :     0.0014713 a0     speed     :   0.1607126E-03

........................................................................
.............................. CYCLE   18 ..............................
........................................................................

 iter      E             dE          RMSdq      gap      omega  full diag
   1  -3478.8932397 -0.347889E+04  0.195E-04   11.47       0.0  T
   2  -3478.8932397 -0.620639E-08  0.115E-04   11.47      15.3  T
   3  -3478.8932397 -0.147338E-09  0.213E-05   11.47      82.1  T
     SCC iter.                  ...        3 min,  0.220 sec
     gradient                   ...        4 min,  8.371 sec
 * total energy  : -3427.5710807 Eh     change    :  -0.3714610E-05 Eh
   gradient norm :     0.0025154 Eh/a0  converged?    E=T G=F D=F
   time step     :     0.2435896 fs     power     :   0.1737023E-09
   step length   :     0.0017306 a0     speed     :   0.1718493E-03

........................................................................
.............................. CYCLE   19 ..............................
........................................................................

 iter      E             dE          RMSdq      gap      omega  full diag
   1  -3478.8923866 -0.347889E+04  0.215E-04   11.47       0.0  T
   2  -3478.8923866 -0.589034E-08  0.127E-04   11.47      13.8  T
   3  -3478.8923866 -0.150521E-09  0.200E-05   11.47      87.7  T
     SCC iter.                  ...        3 min,  1.066 sec
     gradient                   ...        4 min,  6.604 sec
 * total energy  : -3427.5710842 Eh     change    :  -0.3498007E-05 Eh
   gradient norm :     0.0025365 Eh/a0  converged?    E=T G=F D=F
   time step     :     0.2679486 fs     power     :   0.1503867E-09
   step length   :     0.0019936 a0     speed     :   0.1799673E-03

........................................................................
.............................. CYCLE   20 ..............................
........................................................................

 iter      E             dE          RMSdq      gap      omega  full diag
   1  -3478.8919649 -0.347889E+04  0.232E-04   11.47       0.0  T
   2  -3478.8919650 -0.438376E-08  0.137E-04   11.47      12.8  T
   3  -3478.8919650 -0.104592E-09  0.172E-05   11.47     101.7  T
     SCC iter.                  ...        2 min, 58.827 sec
     gradient                   ...        4 min,  5.313 sec
 * total energy  : -3427.5710878 Eh     change    :  -0.3629740E-05 Eh
   gradient norm :     0.0026526 Eh/a0  converged?    E=T G=F D=F
   time step     :     0.2947435 fs     power     :   0.1410396E-09
   step length   :     0.0022588 a0     speed     :   0.1853737E-03
 * RMSD in coord.:     0.0005741 a0     energy gain  -0.3134758E-03 Eh

........................................................................
.............................. CYCLE   21 ..............................
........................................................................

 iter      E             dE          RMSdq      gap      omega  full diag
   1  -3478.8920929 -0.347889E+04  0.189E-04   11.47       0.0  T
   2  -3478.8920929 -0.174350E-08  0.111E-04   11.47      15.7  T
   3  -3478.8920929 -0.945874E-10  0.115E-05   11.47     152.5  T
     SCC iter.                  ...        2 min, 57.834 sec
     gradient                   ...        4 min,  5.050 sec
 * total energy  : -3427.5710909 Eh     change    :  -0.3084356E-05 Eh
   gradient norm :     0.0026970 Eh/a0  converged?    E=T G=F D=F
   time step     :     0.2500000 fs     power     :   0.1497672E-09
   step length   :     0.0019286 a0     speed     :   0.1866003E-03

........................................................................
.............................. CYCLE   22 ..............................
........................................................................

 iter      E             dE          RMSdq      gap      omega  full diag
   1  -3478.8926949 -0.347889E+04  0.184E-04   11.47       0.0  T
   2  -3478.8926949 -0.150203E-08  0.108E-04   11.47      16.2  T
   3  -3478.8926949 -0.727596E-11  0.113E-05   11.47     154.6  T
     SCC iter.                  ...        2 min, 57.551 sec
     gradient                   ...        4 min,  7.203 sec
 * total energy  : -3427.5710942 Eh     change    :  -0.3296359E-05 Eh
   gradient norm :     0.0026177 Eh/a0  converged?    E=T G=F D=F
   time step     :     0.2500000 fs     power     :   0.1634330E-09
   step length   :     0.0019485 a0     speed     :   0.1885283E-03

........................................................................
.............................. CYCLE   23 ..............................
........................................................................

 iter      E             dE          RMSdq      gap      omega  full diag
   1  -3478.8937255 -0.347889E+04  0.184E-04   11.47       0.0  T
   2  -3478.8937255 -0.183763E-08  0.107E-04   11.47      16.4  T
   3  -3478.8937255 -0.133696E-09  0.125E-05   11.47     139.6  T
     SCC iter.                  ...        2 min, 59.216 sec
     gradient                   ...        4 min,  6.797 sec
 * total energy  : -3427.5710977 Eh     change    :  -0.3455595E-05 Eh
   gradient norm :     0.0024010 Eh/a0  converged?    E=T G=F D=F
   time step     :     0.2500000 fs     power     :   0.1727239E-09
   step length   :     0.0019834 a0     speed     :   0.1919054E-03

........................................................................
.............................. CYCLE   24 ..............................
........................................................................

 iter      E             dE          RMSdq      gap      omega  full diag
   1  -3478.8951126 -0.347890E+04  0.187E-04   11.47       0.0  T
   2  -3478.8951126 -0.282125E-08  0.108E-04   11.47      16.2  T
   3  -3478.8951126 -0.123691E-09  0.146E-05   11.47     120.3  T
     SCC iter.                  ...        3 min,  7.149 sec
     gradient                   ...        4 min,  4.636 sec
 * total energy  : -3427.5711011 Eh     change    :  -0.3492281E-05 Eh
   gradient norm :     0.0020698 Eh/a0  converged?    E=T G=F D=F
   time step     :     0.2500000 fs     power     :   0.1706583E-09
   step length   :     0.0020319 a0     speed     :   0.1965950E-03

........................................................................
.............................. CYCLE   25 ..............................
........................................................................

 iter      E             dE          RMSdq      gap      omega  full diag
   1  -3478.8967587 -0.347890E+04  0.192E-04   11.47       0.0  T
   2  -3478.8967587 -0.400132E-08  0.110E-04   11.47      15.9  T
   3  -3478.8967587 -0.859472E-10  0.168E-05   11.47     104.2  T
     SCC iter.                  ...        3 min,  4.671 sec
     gradient                   ...        4 min,  5.585 sec
 * total energy  : -3427.5711044 Eh     change    :  -0.3234079E-05 Eh
   gradient norm :     0.0016861 Eh/a0  converged?    E=T G=F D=F
   time step     :     0.2500000 fs     power     :   0.1544795E-09
   step length   :     0.0020873 a0     speed     :   0.2019537E-03

........................................................................
.............................. CYCLE   26 ..............................
........................................................................

 iter      E             dE          RMSdq      gap      omega  full diag
   1  -3478.8987175 -0.347890E+04  0.214E-04   11.47       0.0  T
   2  -3478.8987175 -0.589625E-08  0.123E-04   11.47      14.3  T
   3  -3478.8987175 -0.188265E-09  0.204E-05   11.47      85.7  T
     SCC iter.                  ...        2 min, 57.394 sec
     gradient                   ...        4 min,  6.504 sec
 * total energy  : -3427.5711073 Eh     change    :  -0.2967705E-05 Eh
   gradient norm :     0.0013471 Eh/a0  converged?    E=T G=F D=F
   time step     :     0.2750000 fs     power     :   0.1233308E-09
   step length   :     0.0023633 a0     speed     :   0.2078743E-03

........................................................................
.............................. CYCLE   27 ..............................
........................................................................

 iter      E             dE          RMSdq      gap      omega  full diag
   1  -3478.9007695 -0.347890E+04  0.229E-04   11.47       0.0  T
   2  -3478.9007695 -0.684668E-08  0.131E-04   11.47      13.3  T
   3  -3478.9007695 -0.179625E-09  0.217E-05   11.47      80.9  T
     SCC iter.                  ...        2 min, 58.855 sec
     gradient                   ...        4 min,  3.994 sec
 * total energy  : -3427.5711099 Eh     change    :  -0.2540892E-05 Eh
   gradient norm :     0.0013002 Eh/a0  converged?    E=T G=F D=F
   time step     :     0.3025000 fs     power     :   0.8629835E-10
   step length   :     0.0026510 a0     speed     :   0.2119837E-03

........................................................................
.............................. CYCLE   28 ..............................
........................................................................

 iter      E             dE          RMSdq      gap      omega  full diag
   1  -3478.9025230 -0.347890E+04  0.229E-04   11.47       0.0  T
   2  -3478.9025230 -0.526325E-08  0.131E-04   11.47      13.4  T
   3  -3478.9025230 -0.167802E-09  0.184E-05   11.47      95.2  T
     SCC iter.                  ...        2 min, 58.217 sec
     gradient                   ...        4 min,  4.293 sec
 * total energy  : -3427.5711119 Eh     change    :  -0.2018109E-05 Eh
   gradient norm :     0.0015437 Eh/a0  converged?    E=T G=F D=F
   time step     :     0.3327500 fs     power     :   0.6222067E-10
   step length   :     0.0028912 a0     speed     :   0.2101718E-03

........................................................................
.............................. CYCLE   29 ..............................
........................................................................

 iter      E             dE          RMSdq      gap      omega  full diag
   1  -3478.9036357 -0.347890E+04  0.216E-04   11.47       0.0  T
   2  -3478.9036357 -0.259661E-08  0.125E-04   11.47      14.1  T
   3  -3478.9036357 -0.126420E-09  0.126E-05   11.47     139.3  T
     SCC iter.                  ...        2 min, 57.542 sec
     gradient                   ...        4 min,  6.518 sec
 * total energy  : -3427.5711139 Eh     change    :  -0.1984587E-05 Eh
   gradient norm :     0.0017668 Eh/a0  converged?    E=T G=F D=F
   time step     :     0.3660250 fs     power     :   0.6051003E-10
   step length   :     0.0030835 a0     speed     :   0.2037767E-03

........................................................................
.............................. CYCLE   30 ..............................
........................................................................

 iter      E             dE          RMSdq      gap      omega  full diag
   1  -3478.9038954 -0.347890E+04  0.204E-04   11.47       0.0  T
   2  -3478.9038954 -0.121872E-08  0.119E-04   11.47      14.7  T
   3  -3478.9038954 -0.132331E-09  0.951E-06   11.47     184.3  T
     SCC iter.                  ...        2 min, 57.886 sec
     gradient                   ...        4 min,  6.190 sec
 * total energy  : -3427.5711164 Eh     change    :  -0.2481791E-05 Eh
   gradient norm :     0.0017696 Eh/a0  converged?    E=T G=F D=F
   time step     :     0.4026275 fs     power     :   0.7269379E-10
   step length   :     0.0032971 a0     speed     :   0.1980800E-03

........................................................................
.............................. CYCLE   31 ..............................
........................................................................

 iter      E             dE          RMSdq      gap      omega  full diag
   1  -3478.9032197 -0.347890E+04  0.203E-04   11.47       0.0  T
   2  -3478.9032197 -0.281079E-08  0.120E-04   11.47      14.6  T
   3  -3478.9032197 -0.138243E-09  0.122E-05   11.47     143.1  T
     SCC iter.                  ...        2 min, 58.866 sec
     gradient                   ...        4 min, 10.243 sec
 * total energy  : -3427.5711194 Eh     change    :  -0.2988665E-05 Eh
   gradient norm :     0.0015251 Eh/a0  converged?    E=T G=F D=F
   time step     :     0.4428903 fs     power     :   0.8101450E-10
   step length   :     0.0035894 a0     speed     :   0.1960360E-03

........................................................................
.............................. CYCLE   32 ..............................
........................................................................

 iter      E             dE          RMSdq      gap      omega  full diag
   1  -3478.9017472 -0.347890E+04  0.212E-04   11.47       0.0  T
   2  -3478.9017472 -0.658110E-08  0.125E-04   11.47      14.0  T
   3  -3478.9017472 -0.252385E-09  0.197E-05   11.47      89.0  T
     SCC iter.                  ...        3 min,  1.355 sec
     gradient                   ...        4 min, 11.131 sec
 * total energy  : -3427.5711226 Eh     change    :  -0.3254176E-05 Eh
   gradient norm :     0.0012533 Eh/a0  converged?    E=T G=F D=F
   time step     :     0.4871793 fs     power     :   0.7245963E-10
   step length   :     0.0039762 a0     speed     :   0.1974211E-03

........................................................................
.............................. CYCLE   33 ..............................
........................................................................

 iter      E             dE          RMSdq      gap      omega  full diag
   1  -3478.9000545 -0.347890E+04  0.208E-04   11.47       0.0  T
   2  -3478.9000545 -0.793580E-08  0.123E-04   11.47      14.2  T
   3  -3478.9000545 -0.177351E-09  0.225E-05   11.47      77.9  T
     SCC iter.                  ...        3 min,  2.423 sec
     gradient                   ...        4 min,  6.185 sec
 * total energy  : -3427.5711256 Eh     change    :  -0.2956619E-05 Eh
   gradient norm :     0.0013601 Eh/a0  converged?    E=T G=F D=F
   time step     :     0.5358972 fs     power     :   0.5691011E-10
   step length   :     0.0044092 a0     speed     :   0.1990171E-03

........................................................................
.............................. CYCLE   34 ..............................
........................................................................

 iter      E             dE          RMSdq      gap      omega  full diag
   1  -3478.8990821 -0.347890E+04  0.185E-04   11.47       0.0  T
   2  -3478.8990821 -0.340515E-08  0.110E-04   11.47      15.9  T
   3  -3478.8990821 -0.125056E-09  0.122E-05   11.47     143.2  T
     SCC iter.                  ...        2 min, 57.093 sec
     gradient                   ...        4 min,  4.779 sec
 * total energy  : -3427.5711287 Eh     change    :  -0.3084871E-05 Eh
   gradient norm :     0.0015968 Eh/a0  converged?    E=T G=F D=F
   time step     :     0.5894869 fs     power     :   0.6005440E-10
   step length   :     0.0048147 a0     speed     :   0.1975650E-03

........................................................................
.............................. CYCLE   35 ..............................
........................................................................

 iter      E             dE          RMSdq      gap      omega  full diag
   1  -3478.8995006 -0.347890E+04  0.198E-04   11.47       0.0  T
   2  -3478.8995006 -0.103410E-08  0.116E-04   11.47      15.1  T
   3  -3478.8995006 -0.123237E-09  0.707E-06   11.47     247.8  T
     SCC iter.                  ...        3 min,  0.839 sec
     gradient                   ...        4 min,  5.590 sec
 * total energy  : -3427.5711328 Eh     change    :  -0.4128711E-05 Eh
   gradient norm :     0.0014897 Eh/a0  converged?    E=T G=F D=F
   time step     :     0.6484356 fs     power     :   0.7786798E-10
   step length   :     0.0053025 a0     speed     :   0.1978014E-03

........................................................................
.............................. CYCLE   36 ..............................
........................................................................

 iter      E             dE          RMSdq      gap      omega  full diag
   1  -3478.9014397 -0.347890E+04  0.263E-04   11.47       0.0  T
   2  -3478.9014397 -0.768023E-08  0.152E-04   11.47      11.5  T
   3  -3478.9014397 -0.262844E-09  0.224E-05   11.47      78.2  T
     SCC iter.                  ...        2 min, 56.577 sec
     gradient                   ...        4 min,  5.606 sec
 * total energy  : -3427.5711378 Eh     change    :  -0.4987180E-05 Eh
   gradient norm :     0.0011122 Eh/a0  converged?    E=T G=F D=F
   time step     :     0.7132792 fs     power     :   0.7894526E-10
   step length   :     0.0060006 a0     speed     :   0.2034924E-03

........................................................................
.............................. CYCLE   37 ..............................
........................................................................

 iter      E             dE          RMSdq      gap      omega  full diag
   1  -3478.9039630 -0.347890E+04  0.299E-04   11.47       0.0  T
   2  -3478.9039630 -0.135069E-07  0.174E-04   11.47      10.1  T
   3  -3478.9039630 -0.401997E-09  0.310E-05   11.47      56.4  T
     SCC iter.                  ...        3 min,  0.986 sec
     gradient                   ...        4 min,  5.798 sec
 * total energy  : -3427.5711424 Eh     change    :  -0.4637968E-05 Eh
   gradient norm :     0.0012242 Eh/a0  converged?    E=T G=F D=F
   time step     :     0.7846071 fs     power     :   0.6139974E-10
   step length   :     0.0068599 a0     speed     :   0.2114862E-03

........................................................................
.............................. CYCLE   38 ..............................
........................................................................

 iter      E             dE          RMSdq      gap      omega  full diag
   1  -3478.9050969 -0.347891E+04  0.266E-04   11.47       0.0  T
   2  -3478.9050969 -0.622913E-08  0.157E-04   11.47      11.2  T
   3  -3478.9050969 -0.334239E-09  0.220E-05   11.47      79.6  T
     SCC iter.                  ...        3 min,  2.874 sec
     gradient                   ...        4 min,  5.132 sec
 * total energy  : -3427.5711473 Eh     change    :  -0.4928826E-05 Eh
   gradient norm :     0.0013436 Eh/a0  converged?    E=T G=F D=F
   time step     :     0.8630678 fs     power     :   0.6627897E-10
   step length   :     0.0076601 a0     speed     :   0.2146855E-03

........................................................................
.............................. CYCLE   39 ..............................
........................................................................

 iter      E             dE          RMSdq      gap      omega  full diag
   1  -3478.9040577 -0.347890E+04  0.291E-04   11.47       0.0  T
   2  -3478.9040577 -0.972341E-08  0.170E-04   11.47      10.3  T
   3  -3478.9040577 -0.368345E-09  0.285E-05   11.47      61.4  T
     SCC iter.                  ...        3 min,  0.250 sec
     gradient                   ...        4 min,  6.000 sec
 * total energy  : -3427.5711533 Eh     change    :  -0.5927081E-05 Eh
   gradient norm :     0.0010351 Eh/a0  converged?    E=F G=F D=F
   time step     :     0.9493746 fs     power     :   0.6977876E-10
   step length   :     0.0086413 a0     speed     :   0.2201693E-03

........................................................................
.............................. CYCLE   40 ..............................
........................................................................

 iter      E             dE          RMSdq      gap      omega  full diag
   1  -3478.9025110 -0.347890E+04  0.315E-04   11.47       0.0  T
   2  -3478.9025110 -0.108198E-07  0.183E-04   11.47       9.6  T
   3  -3478.9025110 -0.424734E-09  0.266E-05   11.47      65.8  T
     SCC iter.                  ...        3 min,  2.400 sec
     gradient                   ...        4 min,  7.913 sec
 * total energy  : -3427.5711590 Eh     change    :  -0.5776747E-05 Eh
   gradient norm :     0.0012832 Eh/a0  converged?    E=F G=F D=F
   time step     :     1.0443120 fs     power     :   0.5885184E-10
   step length   :     0.0098561 a0     speed     :   0.2282913E-03

........................................................................
.............................. CYCLE   41 ..............................
........................................................................

 iter      E             dE          RMSdq      gap      omega  full diag
   1  -3478.9035099 -0.347890E+04  0.316E-04   11.47       0.0  T
   2  -3478.9035100 -0.464934E-08  0.184E-04   11.47       9.5  T
   3  -3478.9035100 -0.454747E-09  0.131E-05   11.47     133.6  T
     SCC iter.                  ...        3 min,  5.054 sec
     gradient                   ...        4 min,  5.737 sec
 * total energy  : -3427.5711662 Eh     change    :  -0.7193873E-05 Eh
   gradient norm :     0.0011493 Eh/a0  converged?    E=F G=F D=F
   time step     :     1.1487432 fs     power     :   0.7510638E-10
   step length   :     0.0110831 a0     speed     :   0.2333738E-03

........................................................................
.............................. CYCLE   42 ..............................
........................................................................

 iter      E             dE          RMSdq      gap      omega  full diag
   1  -3478.9060535 -0.347891E+04  0.394E-04   11.47       0.0  T
   2  -3478.9060536 -0.198766E-07  0.230E-04   11.47       7.6  T
   3  -3478.9060536 -0.592991E-09  0.342E-05   11.47      51.3  T
     SCC iter.                  ...        2 min, 57.165 sec
     gradient                   ...        4 min,  6.317 sec
 * total energy  : -3427.5711742 Eh     change    :  -0.7967656E-05 Eh
   gradient norm :     0.0011932 Eh/a0  converged?    E=F G=F D=F
   time step     :     1.2500000 fs     power     :   0.6811126E-10
   step length   :     0.0126336 a0     speed     :   0.2444738E-03
 * RMSD in coord.:     0.0016498 a0     energy gain  -0.8638813E-04 Eh

........................................................................
.............................. CYCLE   43 ..............................
........................................................................

 iter      E             dE          RMSdq      gap      omega  full diag
   1  -3478.9061198 -0.347891E+04  0.608E-05   11.47       0.0  T
   2  -3478.9061198 -0.202817E-09  0.358E-05   11.47      49.0  T
   3  -3478.9061198  0.190994E-10  0.220E-06   11.47     795.7  T
     SCC iter.                  ...        2 min, 58.043 sec
     gradient                   ...        4 min,  6.994 sec
 * total energy  : -3427.5711757 Eh     change    :  -0.1511089E-05 Eh
   gradient norm :     0.0012182 Eh/a0  converged?    E=T G=F D=F
   time step     :     0.2500000 fs     power     :   0.7896999E-10
   step length   :     0.0024290 a0     speed     :   0.2350147E-03

........................................................................
.............................. CYCLE   44 ..............................
........................................................................

 iter      E             dE          RMSdq      gap      omega  full diag
   1  -3478.9057851 -0.347891E+04  0.593E-05   11.47       0.0  T
   2  -3478.9057851 -0.278305E-09  0.346E-05   11.47      50.7  T
   3  -3478.9057851 -0.345608E-10  0.434E-06   11.47     403.7  T
     SCC iter.                  ...        2 min, 56.256 sec
     gradient                   ...        4 min,  6.698 sec
 * total energy  : -3427.5711774 Eh     change    :  -0.1693936E-05 Eh
   gradient norm :     0.0011349 Eh/a0  converged?    E=T G=F D=F
   time step     :     0.2500000 fs     power     :   0.8811608E-10
   step length   :     0.0023598 a0     speed     :   0.2283210E-03

........................................................................
.............................. CYCLE   45 ..............................
........................................................................

 iter      E             dE          RMSdq      gap      omega  full diag
   1  -3478.9051358 -0.347891E+04  0.689E-05   11.47       0.0  T
   2  -3478.9051358 -0.771252E-09  0.400E-05   11.47      43.8  T
   3  -3478.9051358  0.300133E-10  0.770E-06   11.47     227.5  T
     SCC iter.                  ...        2 min, 56.710 sec
     gradient                   ...        4 min,  5.543 sec
 * total energy  : -3427.5711792 Eh     change    :  -0.1787356E-05 Eh
   gradient norm :     0.0009922 Eh/a0  converged?    E=T G=T D=F
   time step     :     0.2500000 fs     power     :   0.9112405E-10
   step length   :     0.0023235 a0     speed     :   0.2248071E-03

   *** GEOMETRY OPTIMIZATION CONVERGED AFTER 45 CYCLES ***

------------------------------------------------------------------------
 total energy gain   :        -0.0004049 Eh       -0.2541 kcal/mol
 total RMSD          :         0.0020058 a0        0.0011 Å
 total power (kW/mol):        -0.0236211 (step)   -0.0001 (real)
------------------------------------------------------------------------

 FIRE (total)                  0 d,  5 h, 33 min, 43.349 sec
 setup                          ...        0 min,  0.116 sec (  0.001%)
 velocities                     ...        0 min,  0.003 sec (  0.000%)
 propagation                    ...        0 min,  0.005 sec (  0.000%)
 singlepoint calculation        ...      333 min, 42.477 sec ( 99.996%)
 log and printout               ...        0 min,  0.672 sec (  0.003%)
 preconditioner                 ...        0 min,  0.000 sec (  0.000%)
 model hessian                  ...        0 min,  0.000 sec (  0.000%)
 hessian update                 ...        0 min,  0.000 sec (  0.000%)

================
 final structure:
================
3258
 xtb: 6.6.1 (8d0f1dd)
C          124.04219011934379      121.04941240399481      128.01897097948176
C          123.91755223516763      119.59526706392631      127.58005415408329
C          122.50545016523390      119.21696386250260      127.13358931690372
C          122.07192180113667      119.90815645309365      125.84239979710335
C          120.70500933683060      119.41401565282781      125.37456785616587
C          120.17969102662458      120.15295359325657      124.14307537786387
C          121.06911309073986      119.95896004235109      122.91499566967252
C          120.36290828605024      120.28079606914493      121.59926788411757
C          120.09222511365739      121.76535659901212      121.36769513008112
C          119.37477916093246      121.97703728046625      120.03575294750520
C          119.03800770465455      123.43840957928333      119.74858253900989
C          118.26556841472689      123.57807102081080      118.43826580377041
C          117.84390445805785      125.01408455586028      118.13520014449291
C          117.04294859959178      125.10175563551978      116.83675888618960
C          116.49933573699815      126.50388225025019      116.57044019312153
C          115.64932756221498      126.55996593568038      115.30122882814683
C          114.98625317962647      127.92427117029344      115.11506202494660
C          113.99797154814544      127.96495001953878      113.94682471878804
C          114.66297428311309      128.07540435608240      112.57491821845888
C          113.62912308124680      127.98016039598768      111.45387155542609
C          114.23209809454622      128.14355997539849      110.05982029086964
C          113.20100919962007      127.97776922358076      108.93828896548305
C          112.74630845568882      126.53097517055713      108.75710314390604
C          111.74451186739459      126.34915450251601      107.61788787531312
C          111.27892619258409      124.89698768925869      107.52965336867649
C          110.23011918777496      124.65361880135384      106.44575625577865
C          109.78186121395417      123.19422924471110      106.44601851596923
C          108.66100718134993      122.88562247863044      105.45542053686316
C          108.24334236080576      121.41948537181457      105.54890907905690
C          107.07589743063761      121.05058723976400      104.63795983900847
C          106.76999066855019      119.55525939152868      104.70728549812894
C          105.53574133183022      119.16993290608494      103.89640917783305
C          105.30462798031934      117.66090142309726      103.88706403544721
C          104.00877820063467      117.26563555756547      103.18178263152103
C          103.86242416982304      115.74998133868073      103.06633938484725
C          102.50344991073868      115.32985953613445      102.51080415359301
C          102.36396253223194      113.80938622214539      102.46770482841335
C          100.98282084445972      113.35298951663789      102.00458683655351
C          100.85619075812201      111.83131248433791      101.96172526793248
C           99.44455449238346      111.38777380102971      101.58267191577762
C           99.33267678895247      109.89486609097267      101.27154912501582
C           99.50371046170132      108.97407385039496      102.48020512154571
C           99.33327973183425      107.51620256913760      102.05672654669605
C           99.48830379507807      106.48813474816413      103.17891083121133
C          100.88626817135112      106.43093926564534      103.79772379549119
C          101.11631318933628      105.11918594535827      104.55109040970480
C          102.37374018327291      105.15313591520940      105.41923456881675
C          102.66200018990951      103.80861036866747      106.08551404540403
C          103.85282653552419      103.87357783507213      107.04181635428048
C          104.17331906118255      102.51398186875338      107.66142617134511
C          105.30045807218633      102.58942235192458      108.68917645593567
C          105.61820478732884      101.23344165307624      109.32085937813659
C          106.63525374577139      101.36613112938051      110.45219938397987
C          107.04118947622322      100.02865005388588      111.07015809624737
C          107.96648214371648      100.24019848100383      112.26661710347669
C          108.52974805302355       98.95221568905804      112.86330661455000
C          109.53869950796251       99.27431027781820      113.96426098350521
C          110.22719424244397       98.05146099129492      114.56756987865502
C          111.37070918893205       98.47576453695854      115.48769126993027
C          112.16957565833587       97.29722949667662      116.04162110811825
C          113.53392550685378       97.71547338690512      116.59287798347027
C          113.45878491499653       98.60198487037741      117.83287760341322
C          114.84495988821936       99.03830719500708      118.30506953166352
C          114.77566995540647       99.89481857116158      119.56824094552312
C          116.13528835215466      100.48939844681908      119.93192540867004
C          116.14225134245638      101.22192474225675      121.27487079780472
C          115.37361520364885      102.54134984994013      121.24566343543256
C          115.25672446602148      103.17409783775611      122.63083901389315
C          114.48052718565906      104.49231220211891      122.63706227886169
C          113.00767550809434      104.33392275592712      122.26877906380851
C          112.23615420689147      105.64889550195286      122.35754515156346
C          110.82033575186648      105.50110180276168      121.80497596614909
C          110.06978774457983      106.82840699663588      121.71920619685638
C          108.65101761291861      106.63259524753295      121.18759860581527
C          107.93513970740081      107.94566513071557      120.87973315028778
C          106.54225937317233      107.69670624897385      120.30381038151981
C          105.85536739954388      108.97207380596900      119.81958405673957
C          104.52487701723798      108.66355482141373      119.13539195111601
C          103.86155880944675      109.90112514334240      118.53400256631160
C          102.61526037338241      109.53613869407049      117.72936509266626
C          101.95545211628789      110.75134576429167      117.08053819233288
C          100.81703985724880      110.35168155677432      116.14267329832826
C          100.14355386156805      111.56443469027718      115.50287470780333
C           99.14757348441026      111.17348031262172      114.41127410260928
C           98.49683118373558      112.39752652323331      113.76941602762135
C           97.57634609584223      112.04051934116444      112.60316495437468
C           96.99991010831506      113.28956085862914      111.93805531105006
C           96.02288467057551      112.95784199662744      110.81147206042768
C           95.39847349180810      114.20354339665104      110.17630979335340
C           96.37079296427761      114.95310214973600      109.26843413055171
C           95.77309168718868      116.19856880900495      108.61256304650014
C           95.50069443882174      117.32996241727163      109.60287900606848
C           95.26215009353969      118.66070564804994      108.89229347728819
C           94.90534492532007      119.80463389594526      109.84296407166102
C           95.99341366939170      120.08380989193674      110.87816296033756
C           95.72687371167943      121.36056232891335      111.67480371318905
C           96.93275609129599      121.82437880471704      112.49530692702182
C           97.36091251369238      120.83720943536626      113.57969460432155
C           98.56972840756309      121.34320042288455      114.36602940504112
C           99.08183036214396      120.30147421191909      115.35837337428643
C          100.29942065553517      120.78604423803478      116.14386687429534
C          100.89575991118812      119.67517978475726      117.00685085835711
C          102.17002256202328      120.10397083005623      117.73301052525278
C          102.80497596815670      118.94330634871105      118.49941296698195
C          104.19465313702320      119.28213228811721      119.03719307890923
C          104.89056889833520      118.06221894068300      119.63794794000859
C          106.31702453546249      118.36712870781031      120.09265885403242
C          107.03135321848843      117.11376905296328      120.59503292404729
C          108.48608456648591      117.37528068301322      120.98170819830285
C          109.22600904770938      116.08080909292015      121.31308690465154
C          110.70977905465830      116.29917613396620      121.60516829601433
C          111.45709420609504      114.97453101518346      121.74365734319106
C          112.95903617579206      115.16038875405933      121.94636917935151
C          113.69039487340035      113.82321688124347      122.04286598958734
C          115.19018146165371      113.99099893779754      122.27465235070461
C          115.91480381237996      112.64828745348755      122.32680556991653
C          117.41059263760887      112.80103045436269      122.59035656583491
C          118.13317323285575      111.45701611392657      122.56990524880017
C          119.62741803393078      111.59425559539646      122.84279645890378
C          120.35360756375971      110.25946253324842      122.74337420054997
H          120.06068448697133      112.29243061490575      122.12356121534670
H          119.77178596928282      112.01300225707959      123.84280246109050
H          117.69233926177029      110.79743075593204      123.31997795350543
H          117.98967347759687      110.98867224574755      121.59417336503958
H          117.84576362372330      113.45329275774363      121.82959588947875
H          117.56103957921108      113.28011299788375      123.56188086513770
H          115.47276721153007      112.03042430147737      123.11216122862034
H          115.77069350588521      112.12658887988960      121.37759303886064
H          115.61406672775220      114.59617229503704      121.46961318179963
H          115.35371253950588      114.52756823575683      123.21309360708702
H          113.26382172786001      113.24073692212585      122.86299216446150
H          113.53104060007783      113.25847994489500      121.12011060253135
H          113.36651677300324      115.73343080754104      121.10924285910124
H          113.13593106250657      115.73611399769986      122.85805813213719
H          111.04419814627745      114.41581527163513      122.58633900582426
H          111.29317774028878      114.38019467278203      120.84066490852132
H          111.15719430711874      116.87879756627044      120.79295707306493
H          110.82417443562007      116.88270422599209      122.52091821664827
H          108.75529511711197      115.59928474628967      122.17279966351217
H          109.12915644734598      115.39706302007508      120.46672475154590
H          108.99227492710509      117.87059552979663      120.14797031124799
H          108.52371864719689      118.05355288967368      121.83634514012813
H          106.49335206219018      116.71128140573586      121.45683613778918
H          107.00517551490539      116.35528968616867      119.80888257448716
H          106.87650030744331      118.78650210413764      119.25216915356943
H          106.29806686230633      119.12209588134604      120.88165115433273
H          104.30889388112210      117.69340981424776      120.48633576926312
H          104.91999057854878      117.26662733700984      118.88927774409743
H          104.80754979611355      119.67557137075659      118.22142397255880
H          104.11498314084253      120.06579900717077      119.79373279607124
H          102.15337245934791      118.65192338765991      119.32651146439443
H          102.88713202950055      118.08267430608294      117.83102846305414
H          102.88787646787894      120.48067153075598      116.99945915474372
H          101.94712175973244      120.92324910069223      118.42003887791736
H          100.15389597288085      119.34775909900046      117.73927549206616
H          101.12762214308677      118.82096547492091      116.36609417624626
H          101.05660139679186      121.13961636682470      115.44032729694223
H          100.01637610064959      121.63136930229990      116.77500737411609
H           98.28093783503114      120.04047802162324      116.05438657557117
H           99.35103845640553      119.39532991239300      114.80972673973125
H           99.37211349302088      121.59251571091058      113.66696186803325
H           98.30170397403316      122.25764495688748      114.90010192932976
H           96.52632947381659      120.66670096854158      114.26413991380082
H           97.61768343362269      119.87853645694818      113.12487641246341
H           97.77429075420822      122.00114239911517      111.82098285597039
H           96.68803441858319      122.77942102435590      112.96722005688454
H           95.45920753304397      122.16095618542167      110.97955368537409
H           94.87265439955266      121.20374679080447      112.33803788976871
H           96.06349564716274      119.24021115908364      111.56518831065708
H           96.95128975032686      120.17647117547162      110.36176623615383
H           94.73908640703793      120.70927253555308      109.25084313632550
H           93.96904756378252      119.57229568758632      110.35236202682893
H           96.16105442852670      118.92794824666076      108.32987908496534
H           94.44905878270959      118.53722949232466      108.17171118239273
H           94.63188058708131      117.09110906349048      110.21823953938444
H           96.36457747220423      117.42463287764863      110.26253655667034
H           96.48187638287288      116.56215866549310      107.86315543223542
H           94.85190654976299      115.93221666181840      108.08885476750444
H           97.25257042342783      115.24934289378643      109.83974339504331
H           96.69638087064958      114.26970189308487      108.48149675741701
H           94.53128821003236      113.90307305793873      109.58279406177765
H           95.04482656240125      114.86295301846043      110.97028268496294
H           96.53630646671711      112.37675248924997      110.04179575604532
H           95.22450780898679      112.33296848108526      111.21940872453897
H           96.48005013055013      113.88767002345845      112.68947991930867
H           97.82180336800502      113.89358874168057      111.54872328711092
H           98.13526717046464      111.46274447865765      111.86341625792454
H           96.75976948753261      111.41148801109127      112.96535406649515
H           97.92317798541430      112.93546641001481      114.52821705463319
H           99.27919217218647      113.07027748135567      113.40999522249948
H           99.66684047887178      110.59715613035098      113.64170068642598
H           98.37350728308498      110.53088442220410      114.83677440318181
H           99.63035430716594      112.14372751568077      116.27389459611065
H          100.91218260693903      112.20779810616544      115.06744920671754
H          101.21648423031985      109.70655549424004      115.35616257166869
H          100.07448244025861      109.77280448360523      116.69637807127674
H          101.57426603780981      111.41880293529768      117.85639573572355
H          102.70624705998398      111.30595082588127      116.51111412162582
H          102.89635512858588      108.82479497449235      116.94870746414904
H          101.89464878115798      109.03858028762362      118.38236908029550
H          103.59547001038362      110.60056838214106      119.32921272571335
H          104.57366306433740      110.40732426319097      117.87661789828724
H          104.70105156150194      107.93611110483955      118.33883255185904
H          103.84522939012915      108.20268660539024      119.85579541382781
H          105.69089655984135      109.64842375998052      120.66093251092614
H          106.51052335495717      109.48403047001429      119.10972074237679
H          106.62880526343795      107.00547927727014      119.46161553404437
H          105.91930469300196      107.21355685497549      121.06007581038695
H          107.86031698892735      108.55029215054411      121.78596736097927
H          108.52732405542339      108.51257226065590      120.15678991445400
H          108.69872649347170      106.04108351403946      120.26972457542342
H          108.06472003854934      106.06328480729891      121.91326477143065
H          110.03732209663620      107.30257598667018      122.70225317929639
H          110.61428162971771      107.50087323084931      121.05168786648530
H          110.87439066163952      105.06611706799809      120.80418130862111
H          110.26189569777958      104.80342054270075      122.43299789107635
H          112.19485694315377      105.98726928523239      123.39486286108418
H          112.76667934159634      106.41245524769820      121.78266870939886
H          112.92910327999228      103.96219169413087      121.24671190537961
H          112.54587279259481      103.59652629767224      122.92873387562706
H          114.54575394549990      104.92643546554220      123.63753673348701
H          114.94962021583159      105.18936633461725      121.93773311221821
H          114.76320791309371      102.47347413648103      123.30896843463698
H          116.26242983471487      103.35444381990722      123.02222699457461
H          115.88187128701647      103.23631571655582      120.57261250102846
H          114.37471235330160      102.36300558618785      120.84951201617299
H          115.71236483927788      100.56565035914969      122.03561197231417
H          117.17744443747227      101.42452247929614      121.56354506912797
H          116.86873982293089       99.68067629166812      119.97225302245491
H          116.44860635656819      101.17807396315654      119.14535372652789
H          114.05190437671669      100.69559599647465      119.40666161532005
H          114.41279567556512       99.28530031717924      120.39931663886138
H          115.46105681140227       98.15613508390349      118.49608931456876
H          115.32889084660047       99.61000688468354      117.50895408393586
H          112.86838726976627       99.49328177518069      117.61081985314082
H          112.95395338324089       98.05746671480183      118.63473630204672
H          114.10522405284667       96.81794541514186      116.84034917270657
H          114.08002263675122       98.24674856800414      115.81015862522240
H          111.59473507689388       96.79342960072189      116.82115048094636
H          112.33348823441618       96.57769760591781      115.23489508389876
H          112.04923669927669       99.11955054791278      114.92147992945036
H          110.96196228982642       99.06522195691367      116.31006956480937
H          109.50445223988153       97.45487033051174      115.12689392317722
H          110.62575207012331       97.42380626740861      113.76802356247642
H          110.30519144725972       99.93095747003545      113.54281573418233
H          109.03368492851017       99.82630373938554      114.75911114696923
H          107.71920472478415       98.34164792084304      113.26588172264495
H          109.02110328621228       98.37443934592433      112.07653973021793
H          108.80606194930745      100.86286701190862      111.94991932196963
H          107.42768010362575      100.78501580285253      113.04432951157935
H          106.14859502283966       99.48664225196532      111.38644080455840
H          107.54913943208938       99.42095263929725      110.31766982232809
H          107.52833267190245      101.86599905938368      110.06936546829702
H          106.21335780261678      102.00227577092762      111.23328408438033
H          104.69903159374927      100.79736417006427      109.71856940777636
H          106.00439995315242      100.55334827548081      108.55772277997542
H          106.20114389304304      102.98422074505692      108.21248725004813
H          105.01448759560323      103.28919743133615      109.47730992431397
H          103.27733578305393      102.12460248844262      108.14783770570078
H          104.45164582566734      101.81428610493707      106.86933216682108
H          104.73041978892394      104.24060670735922      106.50432244976200
H          103.63324860743515      104.58807405660480      107.83758072430645
H          101.77594798092198      103.48756357349296      106.63981943333820
H          102.85684018774393      103.05853292202809      105.31563414531752
H          103.23082688419652      105.43939058270391      104.80461671064349
H          102.25003993059303      105.91313151486619      106.19274736000956
H          100.25012880701635      104.91559630436026      105.18432639712165
H          101.19212077208199      104.30187378695220      103.82906838227582
H          101.64070435104081      106.52377749512617      103.01295061830137
H          101.01734093843086      107.26982325200514      104.48254654948737
H           98.75695331838682      106.69350585701595      103.96334727893134
H           99.25416096818144      105.50339340187531      102.76532444541506
H           98.33863479140281      107.39595553592765      101.61842474446713
H          100.05931306318398      107.29928899052841      101.27007898727221
H          100.49390182067118      109.11609830041218      102.91286859925781
H           98.76406505780366      109.22631640965676      103.24370127237087
H           98.34940219780475      109.70643472959490      100.83211508482684
H          100.08070138110308      109.63207045185590      100.51892938885928
H           98.75764318546382      111.64390042218571      102.39141388402911
H           99.13107137944387      111.94550092827711      100.69583535499211
H          101.56715722091951      111.43386636208294      101.23337685520598
H          101.11730694976085      111.42524556901994      102.93922560243821
H          100.22733510536825      113.75503237474175      102.68405522681246
H          100.78190099931712      113.75733306242145      101.00914789276683
H          103.12531599077096      113.39590662493025      101.80083408239184
H          102.55092528510539      113.41132242128703      103.46858603860058
H          101.71375297379164      115.74647786662048      103.14023285935046
H          102.37548029167846      115.74106103512946      101.50756837018281
H          104.65180083193360      115.36054710558156      102.41849877728153
H          103.99784196553779      115.29770117401083      104.05228692591963
H          103.15816832446555      117.66763189106126      103.73797092527479
H          103.98782005762865      117.70724386264742      102.18409863046436
H          106.14681572930941      117.17845073915433      103.38627730583012
H          105.27731368791686      117.29354087153821      104.91713452314215
H          104.66239806211102      119.66906891758822      104.31879604243996
H          105.65620250964039      119.51741044992414      102.86813528184544
H          107.63383949190138      118.99799570761375      104.33796574385494
H          106.61388317430229      119.26736503809926      105.75020043636917
H          106.19055595694228      121.61916749951817      104.93425640149296
H          107.31411951867263      121.32148660833602      103.60761273329015
[...]
  3011   6 C     3012   6 C                                       1.5260501
  3012   6 C     3013   6 C                                       1.5265485
  3013   6 C     3014   6 C                                       1.5267811
  3014   6 C     3015   6 C                                       1.5262756
  3015   6 C     3016   6 C                                       1.5236890
  3015   6 C     3017   1 H                                       1.0926243
  3015   6 C     3018   1 H                                       1.0923636
  3014   6 C     3019   1 H                                       1.0926431
  3014   6 C     3020   1 H                                       1.0925137
  3013   6 C     3021   1 H                                       1.0928411
  3013   6 C     3022   1 H                                       1.0925558
  3012   6 C     3023   1 H                                       1.0923201
  3012   6 C     3024   1 H                                       1.0925885
  3011   6 C     3025   1 H                                       1.0925212
  3011   6 C     3026   1 H                                       1.0926353
  3010   6 C     3027   1 H                                       1.0913031
  3010   6 C     3028   1 H                                       1.0932840
  3009   6 C     3029   1 H                                       1.0923813
  3009   6 C     3030   1 H                                       1.0926277
  3008   6 C     3031   1 H                                       1.0923304
  3008   6 C     3032   1 H                                       1.0936659
  3007   6 C     3033   1 H                                       1.0915548
  3007   6 C     3034   1 H                                       1.0921038
  3006   6 C     3035   1 H                                       1.0919105
  3006   6 C     3036   1 H                                       1.0924790
  3005   6 C     3037   1 H                                       1.0911238
  3005   6 C     3038   1 H                                       1.0924061
  3004   6 C     3039   1 H                                       1.0922436
  3004   6 C     3040   1 H                                       1.0933327
  3003   6 C     3041   1 H                                       1.0906849
  3003   6 C     3042   1 H                                       1.0937015
  3002   6 C     3043   1 H                                       1.0916189
  3002   6 C     3044   1 H                                       1.0913832
  3001   6 C     3045   1 H                                       1.0916070
  3001   6 C     3046   1 H                                       1.0926365
  3000   6 C     3047   1 H                                       1.0915305
  3000   6 C     3048   1 H                                       1.0939952
  2999   6 C     3049   1 H                                       1.0926795
  2999   6 C     3050   1 H                                       1.0911009
  2998   6 C     3051   1 H                                       1.0913995
  2998   6 C     3052   1 H                                       1.0928056
  2997   6 C     3053   1 H                                       1.0920134
  2997   6 C     3054   1 H                                       1.0914450
  2996   6 C     3055   1 H                                       1.0922436
  2996   6 C     3056   1 H                                       1.0926752
  2995   6 C     3057   1 H                                       1.0924512
  2995   6 C     3058   1 H                                       1.0912205
  2994   6 C     3059   1 H                                       1.0917005
  2994   6 C     3060   1 H                                       1.0922856
  2993   6 C     3061   1 H                                       1.0932156
  2993   6 C     3062   1 H                                       1.0922194
  2992   6 C     3063   1 H                                       1.0909681
  2992   6 C     3064   1 H                                       1.0929985
  2991   6 C     3065   1 H                                       1.0919600
  2991   6 C     3066   1 H                                       1.0921595
  2990   6 C     3067   1 H                                       1.0915239
  2990   6 C     3068   1 H                                       1.0916246
  2989   6 C     3069   1 H                                       1.0923739
  2989   6 C     3070   1 H                                       1.0929767
  2988   6 C     3071   1 H                                       1.0926187
  2988   6 C     3072   1 H                                       1.0920418
  2987   6 C     3073   1 H                                       1.0899110
  2987   6 C     3074   1 H                                       1.0931628
  2986   6 C     3075   1 H                                       1.0930567
  2986   6 C     3076   1 H                                       1.0927748
  2985   6 C     3077   1 H                                       1.0907542
  2985   6 C     3078   1 H                                       1.0917804
  2984   6 C     3079   1 H                                       1.0934251
  2984   6 C     3080   1 H                                       1.0926329
  2983   6 C     3081   1 H                                       1.0919043
  2983   6 C     3082   1 H                                       1.0937140
  2982   6 C     3083   1 H                                       1.0924977
  2982   6 C     3084   1 H                                       1.0915938
  2981   6 C     3085   1 H                                       1.0926922
  2981   6 C     3086   1 H                                       1.0936175
  2980   6 C     3087   1 H                                       1.0923921
  2980   6 C     3088   1 H                                       1.0919790
  2979   6 C     3089   1 H                                       1.0929225
  2979   6 C     3090   1 H                                       1.0934455
  2978   6 C     3091   1 H                                       1.0929768
  2978   6 C     3092   1 H                                       1.0905750
  2977   6 C     3093   1 H                                       1.0898637
  2977   6 C     3094   1 H                                       1.0931711
  2976   6 C     3095   1 H                                       1.0938544
  2976   6 C     3096   1 H                                       1.0932373
  2975   6 C     3097   1 H                                       1.0916405
  2975   6 C     3098   1 H                                       1.0914637
  2974   6 C     3099   1 H                                       1.0910689
  2974   6 C     3100   1 H                                       1.0927204
  2973   6 C     3101   1 H                                       1.0908546
  2973   6 C     3102   1 H                                       1.0923041
  2972   6 C     3103   1 H                                       1.0919400
  2972   6 C     3104   1 H                                       1.0920281
  2971   6 C     3105   1 H                                       1.0909589
  2971   6 C     3106   1 H                                       1.0930248
  2970   6 C     3107   1 H                                       1.0927721
  2970   6 C     3108   1 H                                       1.0916492
  2969   6 C     3109   1 H                                       1.0912682
  2969   6 C     3110   1 H                                       1.0925548
  2968   6 C     3111   1 H                                       1.0932517
  2968   6 C     3112   1 H                                       1.0925282
  2967   6 C     3113   1 H                                       1.0915829
  2967   6 C     3114   1 H                                       1.0921305
  2966   6 C     3115   1 H                                       1.0929618
  2966   6 C     3116   1 H                                       1.0933801
  2965   6 C     3117   1 H                                       1.0918805
  2965   6 C     3118   1 H                                       1.0924737
  2964   6 C     3119   1 H                                       1.0920296
  2964   6 C     3120   1 H                                       1.0935998
  2963   6 C     3121   1 H                                       1.0922053
  2963   6 C     3122   1 H                                       1.0927451
  2962   6 C     3123   1 H                                       1.0913124
  2962   6 C     3124   1 H                                       1.0933692
  2961   6 C     3125   1 H                                       1.0932252
  2961   6 C     3126   1 H                                       1.0927269
  2960   6 C     3127   1 H                                       1.0920678
  2960   6 C     3128   1 H                                       1.0927448
  2959   6 C     3129   1 H                                       1.0928478
  2959   6 C     3130   1 H                                       1.0927240
  2958   6 C     3131   1 H                                       1.0923595
  2958   6 C     3132   1 H                                       1.0927776
  2957   6 C     3133   1 H                                       1.0925494
  2957   6 C     3134   1 H                                       1.0923839
  2956   6 C     3135   1 H                                       1.0923849
  2956   6 C     3136   1 H                                       1.0909147
  2955   6 C     3137   1 H                                       1.0921603
  2955   6 C     3138   1 H                                       1.0929585
  2954   6 C     3139   1 H                                       1.0932344
  2954   6 C     3140   1 H                                       1.0926265
  2953   6 C     3141   1 H                                       1.0898466
  2953   6 C     3142   1 H                                       1.0930203
  2952   6 C     3143   1 H                                       1.0929543
  2952   6 C     3144   1 H                                       1.0925341
  2951   6 C     3145   1 H                                       1.0926299
  2951   6 C     3146   1 H                                       1.0927574
  2950   6 C     3147   1 H                                       1.0927480
  2950   6 C     3148   1 H                                       1.0912470
  2949   6 C     3149   1 H                                       1.0914797
  2949   6 C     3150   1 H                                       1.0928131
  2948   6 C     3151   1 H                                       1.0929020
  2948   6 C     3152   1 H                                       1.0928886
  2947   6 C     3153   1 H                                       1.0927211
  2947   6 C     3154   1 H                                       1.0929284
  2946   6 C     3155   1 H                                       1.0923751
  2946   6 C     3156   1 H                                       1.0913662
  2945   6 C     3157   1 H                                       1.0932007
  2945   6 C     3158   1 H                                       1.0920520
  2944   6 C     3159   1 H                                       1.0923757
  2944   6 C     3160   1 H                                       1.0926849
  2943   6 C     3161   1 H                                       1.0929576
  2943   6 C     3162   1 H                                       1.0926780
  2942   6 C     3163   1 H                                       1.0930345
  2942   6 C     3164   1 H                                       1.0922879
  2941   6 C     3165   1 H                                       1.0927942
  2941   6 C     3166   1 H                                       1.0921380
  2940   6 C     3167   1 H                                       1.0927446
  2940   6 C     3168   1 H                                       1.0926190
  2939   6 C     3169   1 H                                       1.0927135
  2939   6 C     3170   1 H                                       1.0915749
  2938   6 C     3171   1 H                                       1.0921872
  2938   6 C     3172   1 H                                       1.0914001
  2937   6 C     3173   1 H                                       1.0927718
  2937   6 C     3174   1 H                                       1.0914527
  2936   6 C     3175   1 H                                       1.0913843
  2936   6 C     3176   1 H                                       1.0928739
  2935   6 C     3177   1 H                                       1.0935104
  2935   6 C     3178   1 H                                       1.0930602
  2934   6 C     3179   1 H                                       1.0932549
  2934   6 C     3180   1 H                                       1.0894791
  2933   6 C     3181   1 H                                       1.0900878
  2933   6 C     3182   1 H                                       1.0931386
  2932   6 C     3183   1 H                                       1.0921435
  2932   6 C     3184   1 H                                       1.0917209
  2931   6 C     3185   1 H                                       1.0918730
  2931   6 C     3186   1 H                                       1.0920904
  2930   6 C     3187   1 H                                       1.0903272
  2930   6 C     3188   1 H                                       1.0938003
  2929   6 C     3189   1 H                                       1.0903834
  2929   6 C     3190   1 H                                       1.0919548
  2928   6 C     3191   1 H                                       1.0927782
  2928   6 C     3192   1 H                                       1.0916518
  2927   6 C     3193   1 H                                       1.0931855
  2927   6 C     3194   1 H                                       1.0931238
  2926   6 C     3195   1 H                                       1.0915899
  2926   6 C     3196   1 H                                       1.0925124
  2925   6 C     3197   1 H                                       1.0920092
  2925   6 C     3198   1 H                                       1.0913074
  2924   6 C     3199   1 H                                       1.0921656
  2924   6 C     3200   1 H                                       1.0931702
  2923   6 C     3201   1 H                                       1.0921105
  2923   6 C     3202   1 H                                       1.0917583
  2922   6 C     3203   1 H                                       1.0925410
  2922   6 C     3204   1 H                                       1.0920772
  2921   6 C     3205   1 H                                       1.0913405
  2921   6 C     3206   1 H                                       1.0924642
  2920   6 C     3207   1 H                                       1.0922416
  2920   6 C     3208   1 H                                       1.0922104
  2919   6 C     3209   1 H                                       1.0925250
  2919   6 C     3210   1 H                                       1.0931826
  2918   6 C     3211   1 H                                       1.0932958
  2918   6 C     3212   1 H                                       1.0916914
  2917   6 C     3213   1 H                                       1.0921778
  2917   6 C     3214   1 H                                       1.0926762
  2916   6 C     3215   1 H                                       1.0916311
  2916   6 C     3216   1 H                                       1.0915323
  2915   6 C     3217   1 H                                       1.0928295
  2915   6 C     3218   1 H                                       1.0907940
  2914   6 C     3219   1 H                                       1.0932019
  2914   6 C     3220   1 H                                       1.0941752
  2913   6 C     3221   1 H                                       1.0920246
  2913   6 C     3222   1 H                                       1.0900808
  2912   6 C     3223   1 H                                       1.0929304
  2912   6 C     3224   1 H                                       1.0927385
  2911   6 C     3225   1 H                                       1.0922125
  2911   6 C     3226   1 H                                       1.0924783
  2910   6 C     3227   1 H                                       1.0936114
  2910   6 C     3228   1 H                                       1.0935503
  2909   6 C     3229   1 H                                       1.0929056
  2909   6 C     3230   1 H                                       1.0921049
  2908   6 C     3231   1 H                                       1.0912960
  2908   6 C     3232   1 H                                       1.0910046
  2907   6 C     3233   1 H                                       1.0931295
  2907   6 C     3234   1 H                                       1.0913086
  2906   6 C     3235   1 H                                       1.0926979
  2906   6 C     3236   1 H                                       1.0930956
  2905   6 C     3237   1 H                                       1.0910399
  2905   6 C     3238   1 H                                       1.0930624
  2904   6 C     3239   1 H                                       1.0934052
  2904   6 C     3240   1 H                                       1.0915639
  2903   6 C     3241   1 H                                       1.0924416
  2903   6 C     3242   1 H                                       1.0932251
  2902   6 C     3243   1 H                                       1.0924685
  2902   6 C     3244   1 H                                       1.0917785
  2901   6 C     3245   1 H                                       1.0933526
  2901   6 C     3246   1 H                                       1.0925041
  2900   6 C     3247   1 H                                       1.0923758
  2900   6 C     3248   1 H                                       1.0927096
  2899   6 C     3249   1 H                                       1.0936266
  2899   6 C     3250   1 H                                       1.0924059
  2898   6 C     3251   1 H                                       1.0922959
  2898   6 C     3252   1 H                                       1.0927101
  2897   6 C     3253   1 H                                       1.0882187
  2897   6 C     3254   1 H                                       1.0875910
  2897   6 C     3255   1 H                                       1.0877741
  3016   6 C     3256   1 H                                       1.0879019
  3016   6 C     3257   1 H                                       1.0882430
  3016   6 C     3258   1 H                                       1.0875047

 * 2 distinct bonds (by element types)

   Z      Z             #   av. dist./Å        max./Å        min./Å
   1 H    6 C        2178     1.0922783     1.0942582     1.0859325
   6 C    6 C        1071     1.5274442     1.5351513     1.5227964


optimized geometry written to: xtbopt.xyz


           -------------------------------------------------
          | TOTAL ENERGY            -3427.571179200060 Eh   |
          | GRADIENT NORM               0.000992901279 Eh/α |
          | HOMO-LUMO GAP              11.471612256847 eV   |
           -------------------------------------------------

------------------------------------------------------------------------
 * finished run on 2024/10/04 at 03:18:27.572     
------------------------------------------------------------------------
 total:
 * wall-time:     0 d,  5 h, 56 min, 35.894 sec
 *  cpu-time:     1 d,  5 h, 49 min, 31.604 sec
 * ratio c/w:     5.018 speedup
 SCF:
 * wall-time:     0 d,  0 h, 14 min, 51.363 sec
 *  cpu-time:     0 d,  1 h, 32 min, 52.848 sec
 * ratio c/w:     6.252 speedup
 ANC optimizer:
 * wall-time:     0 d,  5 h, 41 min,  2.023 sec
 *  cpu-time:     1 d,  4 h, 15 min, 40.780 sec
 * ratio c/w:     4.972 speedup

