3258
 energy: -3427.571179200060 gnorm: 0.000992901279 xtb: 6.6.1 (8d0f1dd)
C          124.04219011934379      121.04941240399481      128.01897097948176
C          123.91755223516763      119.59526706392631      127.58005415408329
C          122.50545016523390      119.21696386250260      127.13358931690372
C          122.07192180113667      119.90815645309365      125.84239979710335
C          120.70500933683060      119.41401565282781      125.37456785616587
C          120.17969102662458      120.15295359325657      124.14307537786387
C          121.06911309073986      119.95896004235109      122.91499566967252
C          120.36290828605024      120.28079606914493      121.59926788411757
C          120.09222511365739      121.76535659901212      121.36769513008112
C          119.37477916093246      121.97703728046625      120.03575294750520
C          119.03800770465455      123.43840957928333      119.74858253900989
C          118.26556841472689      123.57807102081080      118.43826580377041
C          117.84390445805785      125.01408455586028      118.13520014449291
C          117.04294859959178      125.10175563551978      116.83675888618960
C          116.49933573699815      126.50388225025019      116.57044019312153
C          115.64932756221498      126.55996593568038      115.30122882814683
C          114.98625317962647      127.92427117029344      115.11506202494660
C          113.99797154814544      127.96495001953878      113.94682471878804
C          114.66297428311309      128.07540435608240      112.57491821845888
C          113.62912308124680      127.98016039598768      111.45387155542609
C          114.23209809454622      128.14355997539849      110.05982029086964
C          113.20100919962007      127.97776922358076      108.93828896548305
C          112.74630845568882      126.53097517055713      108.75710314390604
C          111.74451186739459      126.34915450251601      107.61788787531312
C          111.27892619258409      124.89698768925869      107.52965336867649
C          110.23011918777496      124.65361880135384      106.44575625577865
C          109.78186121395417      123.19422924471110      106.44601851596923
C          108.66100718134993      122.88562247863044      105.45542053686316
C          108.24334236080576      121.41948537181457      105.54890907905690
C          107.07589743063761      121.05058723976400      104.63795983900847
C          106.76999066855019      119.55525939152868      104.70728549812894
C          105.53574133183022      119.16993290608494      103.89640917783305
C          105.30462798031934      117.66090142309726      103.88706403544721
C          104.00877820063467      117.26563555756547      103.18178263152103
C          103.86242416982304      115.74998133868073      103.06633938484725
C          102.50344991073868      115.32985953613445      102.51080415359301
C          102.36396253223194      113.80938622214539      102.46770482841335
C          100.98282084445972      113.35298951663789      102.00458683655351
C          100.85619075812201      111.83131248433791      101.96172526793248
C           99.44455449238346      111.38777380102971      101.58267191577762
C           99.33267678895247      109.89486609097267      101.27154912501582
C           99.50371046170132      108.97407385039496      102.48020512154571
C           99.33327973183425      107.51620256913760      102.05672654669605
C           99.48830379507807      106.48813474816413      103.17891083121133
C          100.88626817135112      106.43093926564534      103.79772379549119
C          101.11631318933628      105.11918594535827      104.55109040970480
C          102.37374018327291      105.15313591520940      105.41923456881675
C          102.66200018990951      103.80861036866747      106.08551404540403
C          103.85282653552419      103.87357783507213      107.04181635428048
C          104.17331906118255      102.51398186875338      107.66142617134511
C          105.30045807218633      102.58942235192458      108.68917645593567
C          105.61820478732884      101.23344165307624      109.32085937813659
C          106.63525374577139      101.36613112938051      110.45219938397987
C          107.04118947622322      100.02865005388588      111.07015809624737
C          107.96648214371648      100.24019848100383      112.26661710347669
C          108.52974805302355       98.95221568905804      112.86330661455000
C          109.53869950796251       99.27431027781820      113.96426098350521
C          110.22719424244397       98.05146099129492      114.56756987865502
C          111.37070918893205       98.47576453695854      115.48769126993027
C          112.16957565833587       97.29722949667662      116.04162110811825
C          113.53392550685378       97.71547338690512      116.59287798347027
C          113.45878491499653       98.60198487037741      117.83287760341322
C          114.84495988821936       99.03830719500708      118.30506953166352
C          114.77566995540647       99.89481857116158      119.56824094552312
C          116.13528835215466      100.48939844681908      119.93192540867004
C          116.14225134245638      101.22192474225675      121.27487079780472
C          115.37361520364885      102.54134984994013      121.24566343543256
C          115.25672446602148      103.17409783775611      122.63083901389315
C          114.48052718565906      104.49231220211891      122.63706227886169
C          113.00767550809434      104.33392275592712      122.26877906380851
C          112.23615420689147      105.64889550195286      122.35754515156346
C          110.82033575186648      105.50110180276168      121.80497596614909
C          110.06978774457983      106.82840699663588      121.71920619685638
C          108.65101761291861      106.63259524753295      121.18759860581527
C          107.93513970740081      107.94566513071557      120.87973315028778
C          106.54225937317233      107.69670624897385      120.30381038151981
C          105.85536739954388      108.97207380596900      119.81958405673957
C          104.52487701723798      108.66355482141373      119.13539195111601
C          103.86155880944675      109.90112514334240      118.53400256631160
C          102.61526037338241      109.53613869407049      117.72936509266626
C          101.95545211628789      110.75134576429167      117.08053819233288
C          100.81703985724880      110.35168155677432      116.14267329832826
C          100.14355386156805      111.56443469027718      115.50287470780333
C           99.14757348441026      111.17348031262172      114.41127410260928
C           98.49683118373558      112.39752652323331      113.76941602762135
C           97.57634609584223      112.04051934116444      112.60316495437468
C           96.99991010831506      113.28956085862914      111.93805531105006
C           96.02288467057551      112.95784199662744      110.81147206042768
C           95.39847349180810      114.20354339665104      110.17630979335340
C           96.37079296427761      114.95310214973600      109.26843413055171
C           95.77309168718868      116.19856880900495      108.61256304650014
C           95.50069443882174      117.32996241727163      109.60287900606848
C           95.26215009353969      118.66070564804994      108.89229347728819
C           94.90534492532007      119.80463389594526      109.84296407166102
C           95.99341366939170      120.08380989193674      110.87816296033756
C           95.72687371167943      121.36056232891335      111.67480371318905
C           96.93275609129599      121.82437880471704      112.49530692702182
C           97.36091251369238      120.83720943536626      113.57969460432155
C           98.56972840756309      121.34320042288455      114.36602940504112
C           99.08183036214396      120.30147421191909      115.35837337428643
C          100.29942065553517      120.78604423803478      116.14386687429534
C          100.89575991118812      119.67517978475726      117.00685085835711
C          102.17002256202328      120.10397083005623      117.73301052525278
C          102.80497596815670      118.94330634871105      118.49941296698195
C          104.19465313702320      119.28213228811721      119.03719307890923
C          104.89056889833520      118.06221894068300      119.63794794000859
C          106.31702453546249      118.36712870781031      120.09265885403242
C          107.03135321848843      117.11376905296328      120.59503292404729
C          108.48608456648591      117.37528068301322      120.98170819830285
C          109.22600904770938      116.08080909292015      121.31308690465154
C          110.70977905465830      116.29917613396620      121.60516829601433
C          111.45709420609504      114.97453101518346      121.74365734319106
C          112.95903617579206      115.16038875405933      121.94636917935151
C          113.69039487340035      113.82321688124347      122.04286598958734
C          115.19018146165371      113.99099893779754      122.27465235070461
C          115.91480381237996      112.64828745348755      122.32680556991653
C          117.41059263760887      112.80103045436269      122.59035656583491
C          118.13317323285575      111.45701611392657      122.56990524880017
C          119.62741803393078      111.59425559539646      122.84279645890378
C          120.35360756375971      110.25946253324842      122.74337420054997
H          120.06068448697133      112.29243061490575      122.12356121534670
H          119.77178596928282      112.01300225707959      123.84280246109050
H          117.69233926177029      110.79743075593204      123.31997795350543
H          117.98967347759687      110.98867224574755      121.59417336503958
H          117.84576362372330      113.45329275774363      121.82959588947875
H          117.56103957921108      113.28011299788375      123.56188086513770
H          115.47276721153007      112.03042430147737      123.11216122862034
H          115.77069350588521      112.12658887988960      121.37759303886064
H          115.61406672775220      114.59617229503704      121.46961318179963
H          115.35371253950588      114.52756823575683      123.21309360708702
H          113.26382172786001      113.24073692212585      122.86299216446150
H          113.53104060007783      113.25847994489500      121.12011060253135
H          113.36651677300324      115.73343080754104      121.10924285910124
H          113.13593106250657      115.73611399769986      122.85805813213719
H          111.04419814627745      114.41581527163513      122.58633900582426
H          111.29317774028878      114.38019467278203      120.84066490852132
H          111.15719430711874      116.87879756627044      120.79295707306493
H          110.82417443562007      116.88270422599209      122.52091821664827
H          108.75529511711197      115.59928474628967      122.17279966351217
H          109.12915644734598      115.39706302007508      120.46672475154590
H          108.99227492710509      117.87059552979663      120.14797031124799
H          108.52371864719689      118.05355288967368      121.83634514012813
H          106.49335206219018      116.71128140573586      121.45683613778918
H          107.00517551490539      116.35528968616867      119.80888257448716
H          106.87650030744331      118.78650210413764      119.25216915356943
H          106.29806686230633      119.12209588134604      120.88165115433273
H          104.30889388112210      117.69340981424776      120.48633576926312
H          104.91999057854878      117.26662733700984      118.88927774409743
H          104.80754979611355      119.67557137075659      118.22142397255880
H          104.11498314084253      120.06579900717077      119.79373279607124
H          102.15337245934791      118.65192338765991      119.32651146439443
H          102.88713202950055      118.08267430608294      117.83102846305414
H          102.88787646787894      120.48067153075598      116.99945915474372
H          101.94712175973244      120.92324910069223      118.42003887791736
H          100.15389597288085      119.34775909900046      117.73927549206616
H          101.12762214308677      118.82096547492091      116.36609417624626
H          101.05660139679186      121.13961636682470      115.44032729694223
H          100.01637610064959      121.63136930229990      116.77500737411609
H           98.28093783503114      120.04047802162324      116.05438657557117
H           99.35103845640553      119.39532991239300      114.80972673973125
H           99.37211349302088      121.59251571091058      113.66696186803325
H           98.30170397403316      122.25764495688748      114.90010192932976
H           96.52632947381659      120.66670096854158      114.26413991380082
H           97.61768343362269      119.87853645694818      113.12487641246341
H           97.77429075420822      122.00114239911517      111.82098285597039
H           96.68803441858319      122.77942102435590      112.96722005688454
H           95.45920753304397      122.16095618542167      110.97955368537409
H           94.87265439955266      121.20374679080447      112.33803788976871
H           96.06349564716274      119.24021115908364      111.56518831065708
H           96.95128975032686      120.17647117547162      110.36176623615383
H           94.73908640703793      120.70927253555308      109.25084313632550
H           93.96904756378252      119.57229568758632      110.35236202682893
H           96.16105442852670      118.92794824666076      108.32987908496534
H           94.44905878270959      118.53722949232466      108.17171118239273
H           94.63188058708131      117.09110906349048      110.21823953938444
H           96.36457747220423      117.42463287764863      110.26253655667034
H           96.48187638287288      116.56215866549310      107.86315543223542
H           94.85190654976299      115.93221666181840      108.08885476750444
H           97.25257042342783      115.24934289378643      109.83974339504331
H           96.69638087064958      114.26970189308487      108.48149675741701
H           94.53128821003236      113.90307305793873      109.58279406177765
H           95.04482656240125      114.86295301846043      110.97028268496294
H           96.53630646671711      112.37675248924997      110.04179575604532
H           95.22450780898679      112.33296848108526      111.21940872453897
H           96.48005013055013      113.88767002345845      112.68947991930867
H           97.82180336800502      113.89358874168057      111.54872328711092
H           98.13526717046464      111.46274447865765      111.86341625792454
H           96.75976948753261      111.41148801109127      112.96535406649515
H           97.92317798541430      112.93546641001481      114.52821705463319
H           99.27919217218647      113.07027748135567      113.40999522249948
H           99.66684047887178      110.59715613035098      113.64170068642598
H           98.37350728308498      110.53088442220410      114.83677440318181
H           99.63035430716594      112.14372751568077      116.27389459611065
H          100.91218260693903      112.20779810616544      115.06744920671754
H          101.21648423031985      109.70655549424004      115.35616257166869
H          100.07448244025861      109.77280448360523      116.69637807127674
H          101.57426603780981      111.41880293529768      117.85639573572355
H          102.70624705998398      111.30595082588127      116.51111412162582
H          102.89635512858588      108.82479497449235      116.94870746414904
H          101.89464878115798      109.03858028762362      118.38236908029550
H          103.59547001038362      110.60056838214106      119.32921272571335
H          104.57366306433740      110.40732426319097      117.87661789828724
H          104.70105156150194      107.93611110483955      118.33883255185904
H          103.84522939012915      108.20268660539024      119.85579541382781
H          105.69089655984135      109.64842375998052      120.66093251092614
H          106.51052335495717      109.48403047001429      119.10972074237679
H          106.62880526343795      107.00547927727014      119.46161553404437
H          105.91930469300196      107.21355685497549      121.06007581038695
H          107.86031698892735      108.55029215054411      121.78596736097927
H          108.52732405542339      108.51257226065590      120.15678991445400
H          108.69872649347170      106.04108351403946      120.26972457542342
H          108.06472003854934      106.06328480729891      121.91326477143065
H          110.03732209663620      107.30257598667018      122.70225317929639
H          110.61428162971771      107.50087323084931      121.05168786648530
H          110.87439066163952      105.06611706799809      120.80418130862111
H          110.26189569777958      104.80342054270075      122.43299789107635
H          112.19485694315377      105.98726928523239      123.39486286108418
H          112.76667934159634      106.41245524769820      121.78266870939886
H          112.92910327999228      103.96219169413087      121.24671190537961
H          112.54587279259481      103.59652629767224      122.92873387562706
H          114.54575394549990      104.92643546554220      123.63753673348701
H          114.94962021583159      105.18936633461725      121.93773311221821
H          114.76320791309371      102.47347413648103      123.30896843463698
H          116.26242983471487      103.35444381990722      123.02222699457461
H          115.88187128701647      103.23631571655582      120.57261250102846
H          114.37471235330160      102.36300558618785      120.84951201617299
H          115.71236483927788      100.56565035914969      122.03561197231417
H          117.17744443747227      101.42452247929614      121.56354506912797
H          116.86873982293089       99.68067629166812      119.97225302245491
H          116.44860635656819      101.17807396315654      119.14535372652789
H          114.05190437671669      100.69559599647465      119.40666161532005
H          114.41279567556512       99.28530031717924      120.39931663886138
H          115.46105681140227       98.15613508390349      118.49608931456876
H          115.32889084660047       99.61000688468354      117.50895408393586
H          112.86838726976627       99.49328177518069      117.61081985314082
H          112.95395338324089       98.05746671480183      118.63473630204672
H          114.10522405284667       96.81794541514186      116.84034917270657
H          114.08002263675122       98.24674856800414      115.81015862522240
H          111.59473507689388       96.79342960072189      116.82115048094636
H          112.33348823441618       96.57769760591781      115.23489508389876
H          112.04923669927669       99.11955054791278      114.92147992945036
H          110.96196228982642       99.06522195691367      116.31006956480937
H          109.50445223988153       97.45487033051174      115.12689392317722
H          110.62575207012331       97.42380626740861      113.76802356247642
H          110.30519144725972       99.93095747003545      113.54281573418233
H          109.03368492851017       99.82630373938554      114.75911114696923
H          107.71920472478415       98.34164792084304      113.26588172264495
H          109.02110328621228       98.37443934592433      112.07653973021793
H          108.80606194930745      100.86286701190862      111.94991932196963
H          107.42768010362575      100.78501580285253      113.04432951157935
H          106.14859502283966       99.48664225196532      111.38644080455840
H          107.54913943208938       99.42095263929725      110.31766982232809
H          107.52833267190245      101.86599905938368      110.06936546829702
H          106.21335780261678      102.00227577092762      111.23328408438033
H          104.69903159374927      100.79736417006427      109.71856940777636
H          106.00439995315242      100.55334827548081      108.55772277997542
H          106.20114389304304      102.98422074505692      108.21248725004813
H          105.01448759560323      103.28919743133615      109.47730992431397
H          103.27733578305393      102.12460248844262      108.14783770570078
H          104.45164582566734      101.81428610493707      106.86933216682108
H          104.73041978892394      104.24060670735922      106.50432244976200
H          103.63324860743515      104.58807405660480      107.83758072430645
H          101.77594798092198      103.48756357349296      106.63981943333820
H          102.85684018774393      103.05853292202809      105.31563414531752
H          103.23082688419652      105.43939058270391      104.80461671064349
H          102.25003993059303      105.91313151486619      106.19274736000956
H          100.25012880701635      104.91559630436026      105.18432639712165
H          101.19212077208199      104.30187378695220      103.82906838227582
H          101.64070435104081      106.52377749512617      103.01295061830137
H          101.01734093843086      107.26982325200514      104.48254654948737
H           98.75695331838682      106.69350585701595      103.96334727893134
H           99.25416096818144      105.50339340187531      102.76532444541506
H           98.33863479140281      107.39595553592765      101.61842474446713
H          100.05931306318398      107.29928899052841      101.27007898727221
H          100.49390182067118      109.11609830041218      102.91286859925781
H           98.76406505780366      109.22631640965676      103.24370127237087
H           98.34940219780475      109.70643472959490      100.83211508482684
H          100.08070138110308      109.63207045185590      100.51892938885928
H           98.75764318546382      111.64390042218571      102.39141388402911
H           99.13107137944387      111.94550092827711      100.69583535499211
H          101.56715722091951      111.43386636208294      101.23337685520598
H          101.11730694976085      111.42524556901994      102.93922560243821
H          100.22733510536825      113.75503237474175      102.68405522681246
H          100.78190099931712      113.75733306242145      101.00914789276683
H          103.12531599077096      113.39590662493025      101.80083408239184
H          102.55092528510539      113.41132242128703      103.46858603860058
H          101.71375297379164      115.74647786662048      103.14023285935046
H          102.37548029167846      115.74106103512946      101.50756837018281
H          104.65180083193360      115.36054710558156      102.41849877728153
H          103.99784196553779      115.29770117401083      104.05228692591963
H          103.15816832446555      117.66763189106126      103.73797092527479
H          103.98782005762865      117.70724386264742      102.18409863046436
H          106.14681572930941      117.17845073915433      103.38627730583012
H          105.27731368791686      117.29354087153821      104.91713452314215
H          104.66239806211102      119.66906891758822      104.31879604243996
H          105.65620250964039      119.51741044992414      102.86813528184544
H          107.63383949190138      118.99799570761375      104.33796574385494
H          106.61388317430229      119.26736503809926      105.75020043636917
H          106.19055595694228      121.61916749951817      104.93425640149296
H          107.31411951867263      121.32148660833602      103.60761273329015
H          109.10063205298215      120.78884012469697      105.30072338216546
H          107.96202764214571      121.20211304829982      106.58085253311650
H          107.80027629852196      123.52148978184492      105.67153695032542
H          108.99601517125495      123.10747243162858      104.44063674758215
H          110.64316401017092      122.56018847893841      106.22037478744743
H          109.43749882548630      122.93932584111948      107.45140910687500
H          109.36727385228525      125.29815901361928      106.62494178243929
H          110.64043695091213      124.91312919911273      105.46785371772394
H          112.14336193102376      124.25596701537573      107.34176040681395
H          110.85917647971930      124.60515218232585      108.49594758186836
H          110.88199607719220      126.99905207697132      107.78567393903852
H          112.20255840909198      126.64753974025135      106.67208726121272
H          113.62099393477310      125.90657600654275      108.56399884013260
H          112.28291242080675      126.17488687488503      109.67870256108624
H          112.33475559666344      128.60976485648868      109.14885002922328
H          113.64159016939641      128.32573089981648      108.00068637946542
H          114.67915851896899      129.13782726205375      109.98578990120700
H          115.03171662065236      127.41257277821414      109.91986677653017
H          113.13901171853195      127.00873004761725      111.52542395531053
H          112.86385758360521      128.74559782992844      111.60455993436373
H          115.19524267460349      129.02685829727957      112.50490142151959
H          115.39786541529389      127.27709606840811      112.45697358858746
H          113.37968054914474      127.06471246515579      113.97479460845632
H          113.33285864774417      128.82258908754460      114.07553953227213
H          114.44572242660257      128.16946704790823      116.03292601093142
H          115.75212246390117      128.68982280696127      114.97250552318957
H          116.27431399533674      126.32660588097747      114.43742847672245
H          114.87230175154190      125.79512127683437      115.36311546251180
H          115.88783831229462      126.81363371634485      117.42176993810730
H          117.32855545932445      127.21021647069676      116.48788298371480
H          117.67304321741688      124.78978275805349      116.00066990695767
H          116.20485770638692      124.40415235390140      116.89230402890793
H          117.23257716914860      125.38920809655586      118.95960670790930
H          118.72870346133425      125.65079667296706      118.06493405131809
H          118.87697714783863      123.19763400464316      117.61652757577914
H          117.36947158167777      122.95581834099102      118.49365777851942
H          118.43526344548870      123.83839011336805      120.56723509408681
H          119.95826155642145      124.02465212161680      119.69844695385622
H          119.99779443062722      121.58750699669214      119.22659144099475
H          118.44645821319202      121.39954112414200      120.04392973201010
H          119.47594467405264      122.15835578818327      122.17770351298515
H          121.03597970223828      122.31541701210246      121.36823968787360
H          120.97822765360198      119.91266707457523      120.77475497294597
H          119.41318177358828      119.74362114112108      121.57229598695788
H          121.96433209760049      120.57589782656667      123.00374112060879
H          121.38861741729752      118.91440671065862      122.88234947016178
H          119.17833127655271      119.77668446622536      123.91655971161552
H          120.08693299937065      121.21596087014677      124.37262039661886
H          120.76820839669872      118.34557409865290      125.14933600411661
H          119.98793193995293      119.53463145284083      126.19115394131735
H          122.02305664719786      120.98719980995840      125.99752874057923
H          122.81623218363561      119.71131578947708      125.06853496590242
H          122.46816521313963      118.13576499325245      126.97992479471966
H          121.79876365751058      119.46029959766716      127.93090913925461
H          124.61540745247223      119.40283097510731      126.76181261888901
H          124.20344349963305      118.95104625068353      128.41556617574196
H          123.32854692021199      121.27030776051997      128.81003759416416
H          125.04330525259687      121.24554492726895      128.39682925649430
H          123.85612535997817      121.72546940423892      127.18858818724037
H          121.40285793345807      110.37322408536353      123.00840712177862
H          119.90779856344523      109.52805587709605      123.41175171325057
H          120.30144558412744      109.86997860086993      121.72994284750710
C          116.29530004480615      121.94419105341329      122.67430442519769
C          114.94386082705920      122.55607700323280      122.32890696120087
C          114.96259716432687      123.26158697904071      120.97544742590784
C          113.59803766090715      123.84197984071547      120.61189580853856
C          113.62056680220581      124.57905750633689      119.27536406685827
C          112.25031082163460      125.14107900076209      118.90004114985280
C          112.29498155512336      125.87248890281273      117.56083756624172
C          110.95677606137021      126.47509581649859      117.12894784230818
C          109.91122958566110      125.42739470225406      116.74774807118942
C          108.67544145563660      126.05564432743263      116.10394822448299
C          107.73288177472168      125.02624146251836      115.47700875343732
C          106.96308081767867      124.15456559797587      116.47059733829076
C          105.88771382702181      124.91940179114049      117.24205147293065
C          104.86131263980504      123.99649141568945      117.90340464440860
C          105.41672285169146      123.10846843122771      119.01834270121087
C          105.77302874983478      123.88598580583337      120.28331782779986
C          106.23144579671472      122.98799284136874      121.43448739194699
C          107.61549726714617      122.38412036486189      121.20729299223774
C          108.12875658804467      121.62049929691437      122.42661869579607
C          109.55135157047221      121.11165277476572      122.20775040867316
C          110.10868096088849      120.35737018678415      123.41312893822581