3864
 energy: -5104.236102211147 gnorm: 0.000986959384 xtb: 6.6.1 (8d0f1dd)
C           57.90120430728418       36.86525477882866       45.16995919875806
C           58.83125771501437       37.88457246918914       44.99667957320401
C           59.44545724580902       38.41660234185388       46.12402349478048
C           59.13348107761548       37.95199720839959       47.38932186068825
C           58.20496562958537       36.93844256515791       47.54777730705518
C           57.59295542040223       36.39018157031932       46.43260804350048
C           59.14032712140873       38.44865125455902       43.63107004691236
C           59.58305496772172       37.36258943083858       42.65006487662681
C           57.90622240965249       39.20756925463893       43.11437119961482
C           58.19695491173575       40.21797695125326       41.99383855393158
C           56.89235511083564       40.61712521232786       41.34966852732455
C           55.93781203467159       41.35199483625043       42.04358424610285
C           54.74395339478652       41.70577982386674       41.44211206282280
C           54.47461664670683       41.31526946372794       40.14149924843819
C           55.40918083920526       40.56751611756290       39.44602395882524
C           56.60955165071202       40.23005229711289       40.04603443560516
C           58.95036279197592       41.44533232734213       42.51956854093588
C           59.24425178188297       42.45663395023973       41.40585038935714
C           60.02445837251145       41.82919736959385       40.27652584303841
C           61.23720878651584       41.18735118921516       40.50433901407624
C           61.95352173190211       40.63323279514906       39.45901896173922
C           61.47357111382751       40.71923666856134       38.16279262833906
C           60.27455602225887       41.36650562748257       37.92147748269914
C           59.55755419395003       41.91359266937907       38.97078814660187
C           60.03540694596794       43.66864039003807       41.92356567165030
C           59.24867077626437       44.63178591962710       42.83152019508739
C           60.24121921740947       45.51042050219676       43.55047874921924
C           60.33616015771224       45.48394133096676       44.93597576270570
C           61.26269018290331       46.26562722129463       45.60257706826983
C           62.11537668663911       47.09121068016826       44.89038478312592
C           62.04203832307928       47.11468954262836       43.50802107400574
C           61.11453921904138       46.33227688967584       42.84531922855989
C           58.22039494019186       45.44213680045267       42.03041294249577
C           57.16440123063326       46.15950772950799       42.89718117943405
C           55.91516109462947       46.32494291495377       42.06623203227902
C           55.85006028609623       47.23271405051906       41.01588808694163
C           54.73513443473647       47.29649145822164       40.20045827948869
C           53.66064908890734       46.45436916306046       40.42516357275562
C           53.70575647503113       45.55471471113749       41.47488042111698
C           54.82594880443696       45.48998764844985       42.28403651358971
C           57.71166693862769       47.47749946546378       43.45399766149097
C           56.77312247694204       48.19983053162386       44.43579645048484
C           56.25415622082495       47.26007771529475       45.49226826069896
C           57.10878646902862       46.66535935148833       46.41247940088817
C           56.61937337515701       45.81040406768235       47.38307976708701
C           55.26658969701901       45.52527313563019       47.44463307049370
C           54.40621887453408       46.10726070331934       46.52966801775059
C           54.89791842748116       46.96674540775567       45.56351484081154
C           57.54564731301686       49.37770062716984       45.05629823030232
C           56.78531026073825       50.10762966452050       46.17312472013855
C           55.44832738934166       50.57926260438222       45.65216905418645
C           55.36913906443938       51.48150483439197       44.59613987718986
C           54.14638500854502       51.85742106093161       44.07185383039249
C           52.97623379700621       51.32990939483378       44.59036751063541
C           53.03976904822276       50.45740180292150       45.66217072331806
C           54.26559098219526       50.08862619663161       46.18996039087991
C           57.57612884757035       51.29907527988831       46.74360209548959
C           58.98714540496469       50.98081153359594       47.26919610104927
C           58.94855035696193       49.91080495523868       48.33031318773058
C           58.35839796184275       50.14140948397412       49.56734661473362
C           58.25827931385646       49.13223533799602       50.50664806800108
C           58.76227324240764       47.87275808619353       50.23071174168832
C           59.38928223491290       47.63916469551001       49.02072471379352
C           59.48384692876459       48.65351678631610       48.08359758433226
C           59.65012109927352       52.26775066685652       47.78414517120727
C           61.13796178189754       52.05791171496099       48.12232204747720
C           61.37204882255521       51.94503693782698       49.60806592392269
C           61.96436286291961       50.81070487066656       50.14615906352891
C           62.22913389851870       50.72528918884917       51.50023442351868
C           61.90524422899681       51.77512350716297       52.34224683849039
C           61.30651776218992       52.90832796151327       51.81961234600454
C           61.04474405349084       52.99121939528800       50.46382431083580
C           62.03241253768032       53.18860714858580       47.58399809234356
C           62.08768157061297       53.27526662032572       46.05234819676220
C           62.61696070828276       54.62092136385928       45.62141536722574
C           63.82958429791809       55.10447425063346       46.10039270299499
C           64.31010130545012       56.33717673997027       45.69763889405358
C           63.59274456955480       57.10645389269584       44.79666890392219
C           62.38871442157747       56.63200986611479       44.30681118621544
C           61.90400606573539       55.40296809834027       44.72021284226993
C           62.93277707655957       52.15959556801597       45.41667613702013
C           62.65055174478692       52.07212994712764       43.90363767353211
C           63.87430502241276       51.63742271483034       43.12796988922802
C           63.94885340699125       50.47608130248485       42.37046745403397
C           65.09283069189462       50.16006925053243       41.65655394678516
C           66.19269697169746       50.99676873912453       41.69152604022340
C           66.13442489764653       52.16046704015471       42.44132945072035
C           64.98646277679224       52.47763533069904       43.14127487539233
C           61.40257913579756       51.22198135705935       43.64423847522109
C           60.82131235759456       51.52772410258795       42.25882736008152
C           60.15177540013918       52.88069546384798       42.25449892443623
C           60.59323395782449       53.89580069812119       41.41648846493199
C           59.96239027893080       55.12793412900799       41.39720673403077
C           58.87715831072458       55.36577231476326       42.22069924226638
C           58.42990415575629       54.36572031066668       43.06715912457936
C           59.06344452612342       53.13757120204817       43.08130864783828
C           59.83485047108297       50.45868798087714       41.76488836950720
C           59.66113355879801       50.60724360736714       40.24469793123195
C           60.83654252026650       49.97946144818302       39.54104673091614
C           61.04768244944320       48.60623989734431       39.59464545394280
C           62.15240338610694       48.03181678552096       38.99564662609139
C           63.07276758014386       48.82511249923926       38.33130886392863
C           62.87210070180963       50.19241333102728       38.26373447014409
C           61.76166550125231       50.76155068171615       38.86288657002987
C           58.32815642045470       50.06377821594800       39.71358614317275
C           57.97496310448002       50.75419013139797       38.38925095208764
C           57.82123400319327       52.24167288008260       38.59523974881095
C           58.63407224838794       53.13515975697332       37.90818620102693
C           58.50954872891247       54.50002359416158       38.09785752121581
C           57.57084643900376       54.99546749257770       38.98494507029601
C           56.75567365714821       54.11644802844116       39.67582430962351
C           56.88115474324595       52.75316985176131       39.48247240393913
C           56.71055686966719       50.15120077180747       37.76107128707744
C           56.36285190571220       50.84172887332689       36.43800716845087
C           57.52215465001266       50.84187090663995       35.47204286243042
C           57.90930660016164       52.02813263528259       34.85888722652918
C           58.95025879371322       52.05184454482769       33.94666135832864
C           59.62122974994559       50.88302850151221       33.63053863242413
C           59.24066003348367       49.69434495065012       34.23069242770782
C           58.19845864082708       49.67333023308092       35.14004568542926
C           55.16251739773993       50.20442142264152       35.72074077419106
C           53.81403140622188       50.24232069360419       36.45943276243058
C           52.75771177090878       49.67358111098802       35.54285952255093
C           52.03530964272379       48.54561504405007       35.90685772539726
C           51.08516923876615       48.00274128939377       35.06041608135781
C           50.83534588751077       48.58892497163702       33.83236052848277
C           51.54009462529676       49.72007064130262       33.46143782196985
C           52.48866695875240       50.25817253158518       34.31036595613241
C           53.41418982366663       51.65042161739096       36.90994452207667
C           52.11938833066916       51.66155318734100       37.73528497430376
C           52.24485521381284       50.81928662966840       38.97877363004297
C           51.33177457772988       49.80694107406672       39.24309583517501
C           51.42469875394484       49.05777722225932       40.40317189857978
C           52.43983245030353       49.29761448324912       41.31216962806512
C           53.36187795724017       50.29583525965892       41.05393874502577
C           53.25606858917402       51.05534922769704       39.90356710694950
C           51.78454620033561       53.10950690945590       38.11307336426696
C           50.47800801468055       53.25815434291009       38.90509841632067
C           49.26842487065039       52.93476283683254       38.06807111663797
C           49.00999524686966       53.60644694285593       36.87941603050182
C           47.91999026307563       53.27267505871182       36.09583647324010
C           47.05065562999878       52.27637695821380       36.50294797849087
C           47.27008409718280       51.63105073655819       37.70830496419923
C           48.37462839015150       51.95289317823516       38.47704021992486
C           50.42518224502683       54.68744038661516       39.45827557144171
C           49.11738881782180       55.07146120880205       40.15642325141794
H           59.96940608290458       39.15381393848057       43.74541346735928
H           57.17951862477111       38.47994767521881       42.74308953444765
H           57.44133119096318       39.73991182267052       43.94634785594513
H           58.81709320364570       39.73463439677165       41.23078404261457
H           58.34876851198690       41.92245537191714       43.29406417544546
H           59.88941651300505       41.12793257082628       42.97494147242809
H           58.28804141964631       42.79935255050854       40.99744496607691
H           60.90727169207096       43.30447121107157       42.47445136784775
H           60.40814245994584       44.22461385127449       41.05957183970081
H           58.70791230155960       44.04255298843018       43.57855735302454
H           57.69583632337427       44.75673207388333       41.36040838336726
H           56.91926485413613       45.50532183941471       43.74132176572773
H           58.64782912731091       47.25915991021551       43.96784866731061
H           57.94470237068725       48.15531388310946       42.63086752272588
H           55.91328372401554       48.58836810236153       43.87801960678392
H           58.48173630258140       48.99384353972317       45.45915973771888
H           57.79421233246968       50.08186389262391       44.25994601379506
H           56.60852003358427       49.39634844046233       46.98776867826471
H           57.66729916044221       52.07198374020749       45.97709826663243
H           56.99029606375687       51.72343665113770       47.56184652176935
H           59.59062048323131       50.61418170802490       46.43127692706402
H           61.46933861370587       51.12123791343306       47.66289165230988
H           61.66801934295745       54.14271368372471       47.97255957849709
H           63.04132690038924       53.03761535928765       47.97526322531655
H           61.06968994099066       53.18647625791164       45.66297216748863
H           63.99010153565133       52.36119817613744       45.59712588602638
H           62.70159327613533       51.19855312543524       45.87857906446400
H           62.43537864317835       53.09293699924529       43.56059402056244
H           61.64243121878751       50.16138484771638       43.73436156616165
H           60.65784546014666       51.44578521614530       44.40833438442284
H           61.65609192834440       51.55376849099975       41.54937191911253
H           60.20893336054233       49.46323187122337       42.01119872175514
H           58.87150131311501       50.58895534875555       42.25884193458133
H           59.66698723552972       51.68230643999530       40.03320531521889
H           58.39011182183908       48.98756954514827       39.54544133799343
H           57.53909643271039       50.25394771218172       40.44315671882882
H           58.80886900059291       50.58895822195175       37.69648503718748
H           56.87335773873814       49.08508044718063       37.59447850618641
H           55.87280719348431       50.26068864408390       38.45162285091771
H           56.12736832778609       51.88851111896325       36.65089080502449
H           55.04911519995865       50.71533691963306       34.76250458052965
H           55.39899838369775       49.15907396744834       35.50244712174064
H           53.88077091105568       49.60540574559506       37.34800080909886
H           54.21421493969062       52.08063201290359       37.51210209224789
H           53.27798297890349       52.28584112960029       36.03329369945798
H           51.30490551324158       51.25947385756425       37.12068199144796
H           52.60148615069167       53.51074654399567       38.71724829830103
H           51.73087030897300       53.70928258947027       37.20250048607824
H           57.40614412049742       36.43263627869436       44.31212329576903
H           56.87823147093940       35.58608456641566       46.53990091587035
H           57.95933877418028       36.57508624066444       48.53586463401678
H           59.61601677999204       38.38975963517633       48.25142584745775
H           60.17417976489129       39.20741998683902       46.01305255233191
H           56.11982873919021       41.65143300339530       43.06431559994290
H           54.02136020880855       42.28688110821837       41.99626208168183
H           53.54261261027757       41.58907384377178       39.66824097902462
H           55.19951852834527       40.24000669370383       38.43624127214581
H           57.34448354257052       39.65971446944857       39.49330444370123
H           61.63323773746258       41.11560728243645       41.50694082428311
H           62.89130397646308       40.13227902344385       39.65586250862986
H           62.03122384810550       40.28499784183381       37.34492914989409
H           59.89179496435353       41.43787693961299       36.91381454172674
H           58.62130384513316       42.41631642572555       38.77041241382282
H           59.67551344824187       44.84459514580850       45.50107099329272
H           61.32613681790412       46.21674879546649       46.67940842695428
H           62.84360247549210       47.70589665766780       45.40002921411423
H           62.72514519960686       47.73127595549662       42.94119895700886
H           61.08171273884518       46.35818702966060       41.76600764005419
H           58.73871556925959       46.17558803084587       41.40985086820560
H           56.67918801112749       47.89623256190429       40.82361077512305
H           54.70531300520716       48.00745465524591       39.38669597819576
H           52.78836606642830       46.50074946142849       39.79052813092270
H           52.86540571494459       44.89870799252607       41.65720638243659
H           54.86250403906349       44.77367918649976       43.09298365810036
H           58.16757539438547       46.86870800905712       46.37206034769484
H           57.29720767198177       45.36426505085987       48.09750481206169
H           54.88746368991704       44.84310767355763       48.19258115106137
H           53.34797956105560       45.88886317443443       46.57221931109896
H           54.22207616575313       47.41626871889019       44.84835090835696
H           56.27006078768514       51.89083212696010       44.16255014195353
H           54.10307251896109       52.55745640360711       43.24946888568055
H           52.02276756756405       51.59401398090338       44.15755493359526
H           52.12974778701383       50.05857018038958       46.08588322734086
H           54.30434685199027       49.40096859581065       47.02232373090002
H           57.97317763355258       51.12262828879729       49.80614014978353
H           57.77896226085000       49.32068051020526       51.45684703465575
H           58.66426657564772       47.08527311779928       50.96374209782029
H           59.80241335921621       46.66411249019574       48.80147722761805
H           59.98327683694254       48.46025741800718       47.14223580968940
H           59.55047280587237       53.03939103121013       47.01957825141049
H           59.11954630377936       52.63064142182744       48.66459415963467
H           62.22415190454158       49.98368589388274       49.50015722747894
H           62.68816651180197       49.83521494138745       51.90270118173394
H           62.11619740063610       51.70127717765071       53.39963195480704
H           61.04687699873987       53.73130843240553       52.47143377589875
H           60.58555738096319       53.88576364351199       50.06660307962862
H           64.40812240974266       54.51441783414514       46.79668708761766
H           65.25114445822430       56.70143570529387       46.08648962803285
H           63.96898593829263       58.07077972868225       44.48665419585163
H           61.82206661089291       57.22022918372617       43.59910421481438
H           60.95829591819184       55.05019756981628       44.33301694287137
H           63.10938780812685       49.80381360728251       42.30532745437064
H           65.11738699706073       49.25507157244402       41.06488559764632
H           67.08648971271595       50.75142213170106       41.13490423303075
H           66.98521470681196       52.82701604050241       42.47051551262027
H           64.94489725099562       53.40240379201745       43.70155893028834
H           61.44549512126724       53.72102757204021       40.77225561640174
H           60.32080149264827       55.90175753572785       40.73333574153963
H           58.38137236001236       56.32522059235046       42.20668011887701
H           57.58613120249802       54.54667991786864       43.71813256818879
H           58.70822085126289       52.36515491236290       43.74846305814619
H           60.33969075749719       47.97618590371524       40.11324116409826
H           62.30321083336882       46.96227911640382       39.04675361579229
H           63.94159960060130       48.37953360160117       37.86742271328382
H           63.58558868932857       50.81814820577925       37.74533075600885
H           61.61181945355793       51.83126027111870       38.80152870872815
H           59.37367495439123       52.75375055591446       37.21613667552057
H           59.14796247087946       55.18219848057631       37.55285422457727
H           57.48668048924048       56.06107033794630       39.13682739972248
H           56.02303149598149       54.49919825028497       40.37137538432184
H           56.24579263264266       52.07646188834577       40.03413838711598
H           57.39199448342067       52.94758926104964       35.09979564256507
H           59.23664347550765       52.98447255816731       33.48047850779234
H           60.43532412480688       50.89834865618563       32.91971444394988
H           59.75948093165058       48.77734035452391       33.98904388325425
H           57.91948886540802       48.73396712729165       35.59515723791664
H           52.21905022581624       48.08704815352095       36.86802548760829
H           50.53865887406672       47.12087750316621       35.35873438083354
H           50.09216136962028       48.17066430342679       33.17035690009336
H           51.35675531124286       50.18867219415880       32.50518131536025
H           53.02156756662350       51.14285587258607       33.99236768262507
H           50.54090961382483       49.60998517279749       38.53085012752059
H           50.70616304650714       48.27575586828684       40.59706220368280
H           52.52069717202461       48.70700461429225       42.21317333142513
H           54.16024801708323       50.47938842751901       41.75787731208426
H           53.96939880428680       51.84576506598562       39.72166051751950
H           48.54685651037176       51.43660134223228       39.41124239898821
H           46.57605447855999       50.87575624320741       38.05145385321200
H           46.20313499540343       52.01077957413263       35.88696542806466
H           47.75372588248301       53.77934991168166       35.15436422629309
H           49.67313250868695       54.39429719044411       36.55305168621562
H           60.45976987629251       36.84357464876093       43.03115495045598
H           58.79304051294238       36.63280645187800       42.48598818966930
H           59.84439974681740       37.80046706171606       41.68906946698386
H           50.50223585598069       52.55816648259164       39.74676047487679
H           51.25849652679938       54.81335247395742       40.15201530664890
H           50.58711820438707       55.38712116915723       38.63377634051383
C           49.27383374999333       56.49378164212884       40.73078471615456
C           48.69899257256159       54.12481653687649       41.25224432342377
C           49.61376904278228       53.52479067514916       42.11049821948523
C           49.18818459594187       52.72116788303006       43.15369218586441
C           47.83821029186470       52.51442065314302       43.37171437355225
C           46.91806553290960       53.09482148203340       42.51679168173725
C           47.34652002695780       53.88380005072865       41.46362051534894
H           50.67279804364197       53.67781233311405       41.96964157399032
H           49.90994613385964       52.25433050819034       43.80762340304658
H           47.50947503407658       51.90139713532352       44.19775577496932
H           45.86132208704191       52.93733260284944       42.67169867091946
H           46.61932054381227       54.32633538206563       40.79624550015924
C           47.93952945501551       57.19028860314459       40.97011131135776
H           49.82997445229618       56.44951627903501       41.66906679864310
H           49.86517815017739       57.08155430662887       40.02605748582103
C           48.05252114257194       58.57976943882738       41.53752751365811
C           46.93815659075266       59.13337984752643       42.16214722038777
C           46.98042570400315       60.40534032274989       42.70127178007020
C           48.14583887034404       61.14841606253739       42.62336823121250
C           49.25523862095902       60.61664581941553       41.99327596735407
C           49.21036008073975       59.34250667556011       41.45428680810752
H           46.03165187086530       58.54769187972005       42.23392902758421
H           46.11184637936748       60.82058436185864       43.19508452908328
H           48.18834193504862       62.13632262479454       43.05581784331400
H           50.16256269977058       61.19969466675612       41.91905344668347
H           50.09422580703308       58.95492000916144       40.97058831840089
H           48.32223967337259       55.09164415806384       39.40141273215973
H           47.39186286281776       57.25342129740207       40.02253674597200
H           47.33086551526966       56.59136522198104       41.65291453962295
C           55.67705457153429       60.31867299994184       61.82597379099222
C           55.97207551987235       61.40754156259090       62.63620014708422
C           55.47782727665710       61.41712223589317       63.93570754242967
C           54.70607736394717       60.37096693343244       64.40930858876609
C           54.40332085522250       59.30110622516372       63.58370182384445
C           54.88835335043022       59.28101633201027       62.28878986334652
C           56.81615461204621       62.54037796630833       62.10542105056436
C           56.05924653543664       63.86868767758448       62.16744605677847
C           58.14059054340492       62.64698768868188       62.87221907625025
C           58.97151716162359       61.34871784491359       62.78563648626431
C           60.26679132803853       61.58252395710604       62.05136372749325
C           60.51223008767280       60.93996103970897       60.84492110329519
C           61.68565891564295       61.16499011001378       60.14616141089085
C           62.63630296130560       62.03648610253691       60.64792506976998
C           62.40573651891347       62.67885761518185       61.85274982834112
C           61.23009712247637       62.45493076732004       62.54602643823615
C           59.21535598403266       60.76331929935323       64.18295452479931
C           60.00879843441525       59.45448475609598       64.12798196674272
C           59.32460373543692       58.41196314241117       63.28107607717823
C           58.00861394001770       58.03647947653327       63.52107677902259
C           57.41571393008471       57.03108586580919       62.77944610958892
C           58.12622462426557       56.37750997353460       61.78899582806002
C           59.43056329727428       56.75705544402089       61.52695349240098
C           60.01981785988029       57.76646755548187       62.26638711529876
C           60.24743276273435       58.89525904161584       65.54036209229470
C           61.39122360130197       57.87266070115992       65.54413413764838
C           62.71088979509546       58.56244610632309       65.29971178025872
C           63.21959850537370       59.48269541547178       66.20925366915043
C           64.42550240077965       60.11766624184166       65.97477165242718
C           65.14578512896414       59.84421596036493       64.82364234956547
C           64.65555170997627       58.92364508113492       63.91494149405906
C           63.45070855821925       58.28832375063210       64.15731263500335
C           61.44454352948436       57.05563838788289       66.84732497351337
C           60.58471830776637       55.78170873541803       66.79591445401445
C           59.13236923267939       56.06230243889924       67.08506534324708
C           58.17887124713764       55.91911796693467       66.08549192146009
C           56.84238912055224       56.17363207224885       66.33472035264806
C           56.43359691094867       56.55948499420458       67.59847022536971
C           57.37326816347817       56.69914489954736       68.60601646359284
C           58.71059755928051       56.45628985604508       68.34991937144396
C           61.13282284506097       54.71232391166391       67.75769653141514
C           62.36497362095665       53.97885647136730       67.19692312241546
C           63.05547544590515       53.23256602550521       68.31064409549322
C           64.25488511579540       53.70773753226338       68.82646190338563
C           64.90047902693307       53.04540530444174       69.85556011057511
C           64.35556331836800       51.88900246208710       70.38657015359826
C           63.15922479254645       51.40691432959394       69.88379172445536
C           62.51452807027125       52.07624665856589       68.86013397379273
C           61.98375734933877       53.04655314382126       66.04212015146840
C           63.17737532335761       52.25624864139111       65.49598300887588
C           64.34623292471542       53.15793329068055       65.18551590700942
C           65.56659332233362       52.96179600507932       65.81954750942447
C           66.65134660489642       53.77638561380208       65.54306924338441
C           66.53149751282383       54.80238225502410       64.62187564749296
C           65.32238031181971       55.00627778550987       63.97893340152019
C           64.24219486011005       54.19040799386162       64.25982817286788
C           62.79360945876984       51.46653835741549       64.23591819002698
C           61.70291721999165       50.40579561123430       64.45523589349543
C           62.03289051255206       49.51113444519004       65.62127605707124
C           61.17241591007079       49.42616576627774       66.70875928026668
C           61.46696298706494       48.61677322481919       67.79165504867954