3864
 energy: -5104.257241431194 gnorm: 0.000944635622 xtb: 6.6.1 (8d0f1dd)
C           51.77010572026826       34.04810938948837       55.27745660757632
C           52.79537657860825       33.28223081348465       55.81896590979188
C           54.00306694971871       33.90453574002574       56.11044733608408
C           54.17926602510612       35.25793551267978       55.88319494690552
C           53.14859498526669       36.01074013548634       55.34979779235621
C           51.94541517556913       35.39951904868064       55.04453336602781
C           52.58995790077343       31.82893321079759       56.16374888844947
C           51.60718923421398       31.72172402141640       57.33531138644897
C           52.09248740053262       30.99131953650577       54.97984507787621
C           53.07638965046705       30.96189351705402       53.80346885808707
C           54.46192151028940       30.55585710905480       54.24326343739531
C           55.55319110143445       31.36055887135149       53.94390996155506
C           56.83303957108487       30.99359083984301       54.32006890656452
C           57.04335351868210       29.80837450863463       55.00266019432284
C           55.96487005520956       28.99179758191845       55.29826904671280
C           54.68679915687137       29.36122691446522       54.91937905215929
C           52.59773279475870       29.98489786152462       52.71532004986388
C           51.48711425151848       30.53607731865623       51.80416340486723
C           50.61601426571807       29.40891319584118       51.30995082921331
C           49.24073024105141       29.43533712461645       51.50098222488564
C           48.43770357510251       28.40929691686991       51.03433730833007
C           49.00119554107392       27.33309991532384       50.37148401185264
C           50.37287853224846       27.28715303386701       50.18895660331358
C           51.17163609412426       28.31449334068656       50.65613045457113
C           52.09946645988942       31.29754041136776       50.61970795495142
C           51.03833918569985       31.92938372656560       49.70549153321174
C           50.25261938350053       32.97804993187155       50.44988652906493
C           48.87854866690888       32.84892840399008       50.61087537449004
C           48.15539595746016       33.78274835384978       51.33291042782622
C           48.79728991260460       34.86820953447053       51.90443490068073
C           50.16204139880801       35.01729650755809       51.73405180686262
C           50.88051148295824       34.08039593174814       51.01666518612414
C           51.69977254690178       32.49692374043428       48.44110151560389
C           50.69792154537608       32.88316019251945       47.34131578579449
C           49.79809903465542       31.71910884172520       47.01178461134909
C           50.30509871946767       30.54579813572211       46.46419800880573
C           49.47398787488196       29.47766236626022       46.18232844485436
C           48.11927085665007       29.55820126878169       46.45432624472615
C           47.60266665034487       30.72076923059926       46.99917707150897
C           48.43411197071733       31.79387412424601       47.26439451287916
C           51.46476784766983       33.35798305532089       46.09713671469596
C           50.54769716594857       33.63842765907810       44.90041371289890
C           49.59122257528938       34.77208459904126       45.17125377100614
C           50.06170224329330       36.03402681858829       45.51784892914408
C           49.18964893282080       37.08452517850226       45.72848803766839
C           47.82636024094317       36.89515721258309       45.58819084424285
C           47.34550646327092       35.64646082842091       45.23859123966685
C           48.22084583600122       34.59349452932897       45.03452669530932
C           51.35328481783107       33.93939458847168       43.62304466163168
C           50.52673363587461       33.61930950246597       42.36579494256686
C           50.49268167255343       32.12486781539202       42.16887473246862
C           49.33397665289144       31.40367551853518       42.42895978707297
C           49.30732651591549       30.02703491188898       42.28981398156585
C           50.44237471880915       29.34675115261622       41.88600435585145
C           51.60388961122569       30.05422237322411       41.62518523048424
C           51.62879172895803       31.42854018054237       41.76945549423650
C           51.07593877183701       34.34994939825616       41.13387981245297
C           50.24737485517950       34.06491090237224       39.87215578514572
C           50.97212569671954       34.49833199530178       38.62294171239787
C           51.10785432067785       33.62135205986575       37.55416961973027
C           51.75638785402957       34.00728078796263       36.39382218050390
C           52.29103299915293       35.27924018546692       36.28583891421147
C           52.15659229983961       36.16498024698354       37.34104118901776
C           51.49496322795063       35.78046124453534       38.49407096456029
C           48.85172955313255       34.72442724576970       39.94011262750960
C           47.72351814099640       33.69667949337459       39.79080516158606
C           47.80951218785780       32.99809322710401       38.45840092204099
C           47.69353774318797       33.70715622263767       37.26802386418996
C           47.77728586760661       33.06522846108851       36.04687777881286
C           47.98004321986910       31.69621427915990       35.99353917182212
C           48.10055315342252       30.97833687730271       37.17061726180785
C           48.01604703440469       31.62630452421900       38.39104674234937
C           46.34511004985913       34.34512038953275       39.96874411034406
C           45.24967732751899       33.29035378435071       40.18823739084059
C           45.27168115688549       32.79634431134168       41.61125755022631
C           44.88429645605464       33.62062705849767       42.66142447871150
C           44.90313587478413       33.16152380667456       43.96488403128976
C           45.31895788255044       31.87112197807942       44.24269595256295
C           45.70659257497240       31.04027290053364       43.20669900869536
C           45.67888669902097       31.50043403089428       41.90136815638648
C           43.86614071897498       33.84530200775059       39.80996430577287
C           43.58273902982667       33.63355299605038       38.31785481736791
C           43.47474954961949       32.15900291752767       38.01341447976485
C           42.47516458641764       31.37433030238278       38.57687547224009
C           42.39567415148583       30.02160667994786       38.30140534722155
C           43.31824313847387       29.42674484342062       37.45688435405651
C           44.31625638936318       30.19764750422626       36.88723435181660
C           44.38973423158068       31.55173512999177       37.16231037666911
C           42.30808369276620       34.35303573997630       37.85157549091100
C           42.41139662298616       35.88484458981717       37.73793123371863
C           41.05851228036664       36.41053366879137       37.32568615481162
C           40.52498019015033       36.10592803699252       36.07753326281735
C           39.27264052803934       36.56349379458066       35.71207670746375
C           38.52480766187808       37.32651412089209       36.59373126160418
C           39.04404860314953       37.63545026928187       37.83830119020822
C           40.30355079038897       37.18570714108915       38.19518057045504
C           43.50188223613375       36.30952861453388       36.74777750014349
C           43.50539297810860       37.81531224050801       36.46211309293987
C           43.71260534508446       38.64469541125604       37.70727795236419
C           42.86448280778545       39.70971366154188       37.98617015538528
C           43.10446488007503       40.54613108732234       39.06262913808883
C           44.20453296712291       40.33495599793763       39.87554059511733
C           45.05107434835881       39.27084007899815       39.61583093867259
C           44.79900898181185       38.43028752288864       38.54707707822705
C           44.60655324836950       38.18566533784939       35.44791072448652
C           44.17683992889147       38.07319511000943       33.97965569850168
C           43.92711900431264       36.64503510745214       33.56880977713648
C           42.67144898589225       36.24841252803483       33.12541807744158
C           42.42731169784651       34.93603885863067       32.75772083971316
C           43.44109298548042       33.99645061892755       32.82454247330090
C           44.70199300800830       34.38271657916764       33.24838397356989
C           44.94300271454048       35.69475998498727       33.61144264314228
C           45.23622333344129       38.69919555525854       33.05291147104376
C           45.22632028014470       40.23541066738463       33.07019557123503
C           46.55001619472649       40.78654807897525       32.59788187169397
C           47.30641119043680       41.61505117545823       33.41676639372582
C           48.49924601588215       42.15848353789887       32.97389413084421
C           48.95995824242004       41.87040302608159       31.70240482799445
C           48.22515058178294       41.03307844156519       30.88121955660240
C           47.03010470231310       40.49839461538294       31.32545705765397
C           44.09231811441268       40.81052695602706       32.21011538899344
C           43.90860025866018       42.30914399844459       32.49292648059998
C           43.24988944794242       42.50831281446940       33.83525514798224
C           43.92398881038177       43.14494291363120       34.86837911499321
C           43.33574889670967       43.30578273913335       36.11087161963411
C           42.06089553199618       42.82357925739948       36.34412912472911
C           41.37717716272330       42.18698184246653       35.32259077139857
C           41.96536734775995       42.03508966625767       34.08084429534293
C           43.13446455394507       43.01938300635403       31.37161169284657
C           43.53475441888727       44.49572688390040       31.25946989517142
C           45.00915455135765       44.64963600163362       30.96746313789703
C           45.79233641439623       45.49436576891921       31.74464716807017
C           47.14531838966039       45.64527225730259       31.49529760840197
C           47.74006462656936       44.94976708260774       30.45878169082298
C           46.96842298200889       44.12026945797242       29.66382876311531
C           45.61608879554669       43.97650772041250       29.91303057575384
C           42.70617833086593       45.20552216548484       30.17339411515753
C           41.33640142379008       45.68251141051098       30.69000135937428
C           40.34433766261782       45.76207778792183       29.55867591902722
C           39.21487648952952       44.95312817570523       29.55623810074361
C           38.29775441858928       45.01302143981940       28.52165437683713
C           38.49923253147936       45.88482211307706       27.46570916155669
C           39.62627174896059       46.68934323045723       27.45105727779663
C           40.54002583079853       46.62621304819979       28.48721017641084
C           41.47902787388686       47.03311603750690       31.40183701789434
C           40.18503218346745       47.49486848339952       32.08408993408285
H           53.55209073565283       31.41630914568045       56.48948078379755
H           51.92037406721906       29.97212334652617       55.33342227267414
H           51.13336900085425       31.37819088670278       54.63214057898825
H           53.13802084981239       31.96924601410306       53.37854064194224
H           53.45167571224066       29.71605720286058       52.09027956602267
H           52.24650466598075       29.07000517949901       53.19870719799966
H           50.86128308216353       31.23043770502954       52.37335001776948
H           52.76748965910658       32.06825891737915       51.00636104357624
H           52.70010027102369       30.60133039157297       50.02996001409159
H           50.35013875671591       31.13417710304155       49.39547225915772
H           52.37345076823431       31.73749924660467       48.04062108817525
H           50.07465900935744       33.70650417636156       47.70858378999622
H           52.03683890136123       34.24938376021611       46.35561860074081
H           52.17420459960790       32.57997759247161       45.80602159760834
H           49.96737328143207       32.72658241512754       44.71955197613389
H           51.64292567241662       34.99172820425287       43.61021626833960
H           52.26327927528541       33.33645828306024       43.60550005498581
H           49.50323060160427       33.96684981773873       42.54425778387540
H           51.07022340574705       35.42144503546380       41.34119110468976
H           52.11030106315186       34.05021327171893       40.95455487328056
H           50.11656673717886       32.97920507774707       39.81160059302930
H           47.84773434177298       32.94859335266577       40.58170462998287
H           46.36747433879608       35.01762116952401       40.82837486879938
H           46.10664233304264       34.94155157249357       39.08737941467596
H           45.45925900105261       32.43709664579739       39.53340178689835
H           43.09906330152160       33.34015968789411       40.39949023565610
H           43.82253526076910       34.90816054001191       40.04779960055104
H           44.43022117112926       34.01773024657483       37.74420462672433
H           42.03681935221549       33.95449630419746       36.87068162838254
H           41.48996664964636       34.11377761224671       38.53584547166570
H           42.65516548208561       36.30609573315984       38.71859688757904
H           44.47574965802360       36.02647622021410       37.14794312462362
H           43.36469146356552       35.77049367555475       35.81084179788504
H           42.53550005094046       38.08862818320126       36.03218111499324
H           44.90100166264110       39.22067004300492       35.63101210792740
H           45.48570696076501       37.56307858434523       35.61916374515027
H           43.24120261563471       38.63013493334746       33.86115200933108
H           46.22550014787414       38.34993332668656       33.35628673405392
H           45.06251988762686       38.34987882636879       32.03239658074516
H           45.06822658247009       40.57214324362192       34.09941472406481
H           44.33731553816633       40.66723594773336       31.15601720555617
H           43.16318825356830       40.27546093678955       32.41000068567025
H           44.91189978241230       42.74990415629846       32.52481118455727
H           43.33636971842834       42.52244028139419       30.42132693491553
H           42.06034355677605       42.95124861199410       31.55137587585877
H           43.33033306795809       44.97294465009515       32.22407535371288
H           43.26532551476906       46.06543005502137       29.79750785605273
H           42.56107299275224       44.52179433625037       29.33396444138123
H           50.81968203701575       33.59248257535730       55.03910669616402
H           51.12881867569800       35.97518572509594       54.63304562805700
H           53.28286653098578       37.06743301745676       55.17782064747641
H           55.11784007983204       35.73047940141881       56.13709958692673
H           54.81240422631237       33.31979671063189       56.52754921552085
H           55.40062707213536       32.28954721498339       53.41475618637163
H           57.66651458000774       31.63865644365999       54.08012038919041
H           58.04033818833263       29.51973199722305       55.30465390744713
H           56.12155087024050       28.06191876125067       55.82677194116076
H           53.85810358973929       28.70933082199975       55.15543211232228
H           48.79355867070257       30.27073898207158       52.02137873915664
H           47.36869112855889       28.44847927761237       51.18929049483481
H           48.37609231458028       26.53182824582666       50.00454195237191
H           50.82258552089741       26.44475695495819       49.68252940665185
H           52.24178497226433       28.25571422936484       50.52041895452700
H           48.37239704919415       32.00082840010747       50.16971285858490
H           47.08752395318906       33.65768960947957       51.45338839767015
H           48.23994974910330       35.59101954691373       52.48364281746457
H           50.67380309477252       35.86728628618636       52.15715738957744
H           51.94482704456744       34.21838856717333       50.90622564454449
H           52.29583173181511       33.37363812987240       48.69985799088585
H           51.35938965501089       30.45236905713892       46.25072424575227
H           49.88982740879931       28.57683017217753       45.75303803326395
H           47.46987438058893       28.71964449298868       46.24490340718930
H           46.54728046193949       30.78820873956664       47.22522799794589
H           48.02056356289162       32.70355119755747       47.67764040624385
H           51.12330547876832       36.20214656653899       45.62411499749994
H           49.57624043949322       38.05700871105659       45.99573790294735
H           47.14310476527967       37.71490943507590       45.74751792480817
H           46.28344325218082       35.48922189254456       45.11667681821726
H           47.83104143989352       33.61935433084769       44.76694787452389
H           48.43605304570719       31.91868425437729       42.74516713082234
H           48.39591040414497       29.48470446630690       42.49839095117991
H           50.42268046957183       28.27157248509797       41.77583089214376
H           52.49644608286825       29.53383748107389       41.30796690524075
H           52.54625377528292       31.95833601146516       41.55754714227501
H           50.69605755258593       32.62421494668624       37.63065351297471
H           51.84657453675341       33.31000297878332       35.57181479930694
H           52.80509703225654       35.58174490497156       35.38482340756502
H           52.56498794024819       37.16223368639778       37.25764778749227
H           51.38123403813613       36.49095421504722       39.29897017190380
H           48.72674581427667       35.22746518334992       40.89931515871984
H           48.76289458398997       35.48526393329409       39.16213188820959
H           47.54451092988398       34.77696124510748       37.28960902184075
H           47.68604021372813       33.63358621202038       35.13197391394998
H           48.04554884555316       31.19205240761470       35.03979144093110
H           48.26327885664151       29.90993367882272       37.13905758683554
H           48.12106901871591       31.05771283272122       39.30627416233617
H           44.54864888281592       34.62636726211696       42.45936193630706
H           44.58122224244206       33.80813305281151       44.76769052019289
H           45.34035991623978       31.51178803120223       45.26051685599073
H           46.02920745777188       30.03027571872382       43.41886818807922
H           45.97348056265684       30.84284860948410       41.09396362838881
H           41.74826889953899       31.82136403053496       39.23912469694366
H           41.61211269883601       29.42634651109372       38.74854235449013
H           43.25806382158243       28.36890841318850       37.24522427172910
H           45.04349175146754       29.74451176444841       36.22864490762787
H           45.17639629783918       32.14257785808991       36.71427581641235
H           41.09431836387762       35.51035046395582       35.37876903014392
H           38.87497144820237       36.31981806430655       34.73671352451196
H           37.54234590037102       37.67731626016302       36.31141098929354
H           38.46977530240606       38.22953725132033       38.53419994086527
H           40.70457275355274       37.44844189176247       39.16409448584179
H           42.01295581994317       39.89025830917606       37.34367180865008
H           42.44207124026666       41.37614791689726       39.26544706358153
H           44.39809820980049       41.00103398040047       40.70322052067075
H           45.91463640975056       39.09689467687954       40.24129225422175
H           45.46936661407545       37.60484477006772       38.36230197233741
H           41.87049473757107       36.97340604383905       33.07800587974684
H           41.44195861576267       34.64470953031078       32.42184328359855
H           43.25111643506249       32.96988276085159       32.54685414692825
H           45.49793768420353       33.65343017709122       33.29791714746325
H           45.93129971260598       35.98168614407035       33.93897162027854
H           46.95934428978815       41.83587988995490       34.41604894544025
H           49.06925795381763       42.81108333746038       33.61801295153192
H           49.88930178614741       42.29538607176799       31.35405577002361
H           48.58292676735184       40.79686854597467       29.88868386604804
H           46.46787731521462       39.84684965179105       30.67197909141114
H           44.92556994240456       43.51266624339448       34.69457790909896
H           43.87658058804919       43.80811374708416       36.89934581581545
H           41.60284986295431       42.93962464177259       37.31555495274913
H           40.38048518511467       41.80369811920930       35.49208183472457
H           41.41493293092035       41.53616210599975       33.29486270848167
H           45.33934906632577       46.04460912957924       32.55752018475303
H           47.73942069807826       46.29992516120524       32.11657743545882
H           48.79822731006951       45.05452976097272       30.27076879937387
H           47.42278081087964       43.58061738601013       28.84523895825124
H           45.03081248773675       43.33026473600324       29.27604038851131
H           41.41787588444653       47.25457452139958       28.45637466372166
H           39.79316404566121       47.36811643864775       26.62691557252694
H           37.78448316682585       45.93503861305037       26.65731484752781
H           37.42370451922967       44.37744706608235       28.53861161662705
H           39.05206140731690       44.26815090106497       30.37686797933331
H           51.50298014166274       30.68586648907817       57.65103803468266
H           51.96235462903549       32.30534303862576       58.18247862792433
H           50.62666154273141       32.09599534467475       57.04991758422435
H           40.96414557407683       44.95273055201385       31.41688376487905
H           42.26531951466799       46.94914536024563       32.15301836004407
H           41.78914225399825       47.78711476477805       30.67666928935834
C           40.34986991698785       48.90472261604521       32.67757438843348
C           39.78071430806057       46.52576993362614       33.16573184306525
C           38.61273053178380       45.78264999060545       33.05549916916758
C           38.22911984059151       44.90961245665952       34.05957945390395
C           39.00934782344039       44.76903253670469       35.19345868324192
C           40.17682014867107       45.50238477281943       35.31330447410019
C           40.55880010829351       46.36872299983376       34.30670736084210
H           37.99486831702446       45.89438850566599       32.17480221592077
H           37.31395325881252       44.34293848683452       33.95679849129817
H           38.70808175514081       44.09746402571657       35.98303641123334
H           40.79184788708735       45.39362786953902       36.19450396039993
H           41.46598997290310       46.94297195536552       34.41421657188101
C           40.20984887788405       50.01797195097447       31.63322312063811
H           39.58846806487460       49.05769268279138       33.44595296881701
H           41.32835765146537       48.99044853984426       33.15545783235628
C           40.55266905335503       51.34580785718194       32.24671371971399
C           41.80222661441106       51.91913273492732       32.04927683353400
C           42.13382663109312       53.12150987939653       32.64824909219308
C           41.21869752038764       53.76667339338179       33.46166887642623
C           39.97056897122417       53.20346853275235       33.66608516645483
C           39.63926645677891       52.00364166993960       33.06198590851309
H           42.52123409837480       51.42005755093395       31.41507229354302
H           43.10857061241099       53.55769175797836       32.48044837841836
H           41.47923232911997       54.70343928969274       33.93243072781784
H           39.24973254886380       53.70139432035531       34.29841591650946
H           38.66085640089642       51.57171427013213       33.22259630018178
H           39.38825388073093       47.52657004154747       31.33198334793191
H           40.87361126939273       49.82337015943790       30.78911154445036
H           39.18217630116813       50.03088593660323       31.26243377647960
C           53.16157001315178       52.46488991888089       32.47640218771138
C           52.49883098023835       52.29955932073829       31.26661261215264
C           51.78191931398682       51.12675349792465       31.06211281779553
C           51.72863909241472       50.15063244040822       32.03951809209975
C           52.38076379333204       50.33373518423188       33.24656346513298
C           53.10167410650575       51.49479893112343       33.46182374077981
C           52.53953149658189       53.38202065134878       30.21583000900183
C           53.11540048601880       52.85387665567229       28.90055302636020
C           51.13538444286512       53.96588686989742       30.00172747980181
C           50.59745169160984       54.61041016610513       31.28347116638610
C           51.40356902042433       55.81390746160118       31.70619961345669
C           51.87144676223007       55.92391786112473       33.01016070683052
C           52.56190941692933       57.04820559235839       33.43047430283350
C           52.80079277971448       58.08608907597174       32.54704210707931
C           52.34361413780398       57.98908495112147       31.24364590438087
C           51.64563891232100       56.86767805581046       30.83072854249389
C           49.10563662055282       54.99827324845036       31.16144583378470
C           48.28179406622920       54.36500873506732       32.29400140411508
C           48.06289241275271       52.89978050950071       32.00126312014904
C           48.62962156914123       51.92854052105046       32.81581036881224
C           48.46528718021427       50.58305658607422       32.53903288969170
C           47.73182686464578       50.18204155421330       31.43819982699405
C           47.16037005422269       51.14058340506369       30.61818570629747
C           47.32383511331366       52.48474227661391       30.89885957754367
C           46.94674266266912       55.07918265461189       32.55537391511594
C           47.06972956522818       56.55899026716047       32.97444248025904
C           45.74367351237623       57.05167290126155       33.50199250289817
C           45.06646094503339       58.07972085075267       32.85912249512013
C           43.86508907970236       58.55907528089618       33.35311694485987
C           43.31737260670201       58.01178638176869       34.50016616330773
C           43.97678548338494       56.97849981835985       35.14453162950800
C           45.17815087684333       56.50582997341759       34.64931272133740
C           48.17710636970030       56.78064237700516       34.01589830077257
C           48.24878039349304       58.22167475752500       34.53965467535904
C           48.23378844602955       59.24009374403721       33.42787399356132
C           47.37717638947293       60.33189000539110       33.48648631096988
C           47.36805975992027       61.28629420619626       32.48451852718149
C           48.21870540649659       61.16194995160659       31.39968708626024
C           49.08347866119459       60.08262226019835       31.33291653751490
C           49.09453003851403       59.13526894172352       32.34075606814006
C           49.52809893865432       58.45014595444941       35.36686435638941
C           49.76335397044371       57.44335223519748       36.50495107329302
C           51.13026079935096       57.69221535955239       37.09325892690217
C           52.14546519744690       56.75944561841871       36.92442290857868
C           53.42225517944517       56.99776086033381       37.40193504711652
C           53.70235042169691       58.17328703589850       38.07744824990613
C           52.69417245844789       59.10125201960840       38.27174674206822
C           51.42595413059187       58.86615119502341       37.77332925167626
C           48.65605598996714       57.51090066010599       37.56138129290247
C           48.76481630736387       56.38527683523715       38.59986333358530
C           48.67942501096073       55.04333846393058       37.91806549847028
C           49.76009867928994       54.17183593943750       37.90649664417666
C           49.67457106981999       52.94067744816838       37.27918081135596
C           48.49827003885405       52.55503557287462       36.66027209488940
C           47.41034200061588       53.41101782860095       36.67157986129737
C           47.50513039194620       54.64348100355295       37.29022403885097
C           47.64829984874044       56.48873709050385       39.65049048419871
C           47.84173643863141       57.65029654198585       40.63069406553455
C           49.05218241160063       57.39822780246308       41.49847926005429
C           49.09671706261413       56.33894175517786       42.39802235331473
C           50.23101804393142       56.09087589319120       43.15035885446498