      -----------------------------------------------------------      
     |                   =====================                   |     
     |                           x T B                           |     
     |                   =====================                   |     
     |                         S. Grimme                         |     
     |          Mulliken Center for Theoretical Chemistry        |     
     |                    University of Bonn                     |     
      -----------------------------------------------------------      

   * xtb version 6.6.1 (8d0f1dd) compiled by 'stahn@M-Bot' on 2023-08-01

   xtb is free software: you can redistribute it and/or modify it under
   the terms of the GNU Lesser General Public License as published by
   the Free Software Foundation, either version 3 of the License, or
   (at your option) any later version.
   
   xtb is distributed in the hope that it will be useful,
   but WITHOUT ANY WARRANTY; without even the implied warranty of
   MERCHANTABILITY or FITNESS FOR A PARTICULAR PURPOSE.  See the
   GNU Lesser General Public License for more details.
   
   Cite this work as:
   * C. Bannwarth, E. Caldeweyher, S. Ehlert, A. Hansen, P. Pracht,
     J. Seibert, S. Spicher, S. Grimme, WIREs Comput. Mol. Sci., 2020, 11,
     e01493. DOI: 10.1002/wcms.1493
   
   for GFN2-xTB:
   * C. Bannwarth, S. Ehlert and S. Grimme., J. Chem. Theory Comput., 2019,
     15, 1652-1671. DOI: 10.1021/acs.jctc.8b01176
   for GFN1-xTB:
   * S. Grimme, C. Bannwarth, P. Shushkov, J. Chem. Theory Comput., 2017,
     13, 1989-2009. DOI: 10.1021/acs.jctc.7b00118
   for GFN0-xTB:
   * P. Pracht, E. Caldeweyher, S. Ehlert, S. Grimme, ChemRxiv, 2019, preprint.
     DOI: 10.26434/chemrxiv.8326202.v1
   for GFN-FF:
   * S. Spicher and S. Grimme, Angew. Chem. Int. Ed., 2020, 59, 15665-15673.
     DOI: 10.1002/anie.202004239
   
   for ALPB and GBSA implicit solvation:
   * S. Ehlert, M. Stahn, S. Spicher, S. Grimme, J. Chem. Theory Comput.,
     2021, 17, 4250-4261. DOI: 10.1021/acs.jctc.1c00471
   
   for DFT-D4:
   * E. Caldeweyher, C. Bannwarth and S. Grimme, J. Chem. Phys., 2017,
     147, 034112. DOI: 10.1063/1.4993215
   * E. Caldeweyher, S. Ehlert, A. Hansen, H. Neugebauer, S. Spicher,
     C. Bannwarth and S. Grimme, J. Chem. Phys., 2019, 150, 154122.
     DOI: 10.1063/1.5090222
   * E. Caldeweyher, J.-M. Mewes, S. Ehlert and S. Grimme, Phys. Chem. Chem. Phys.
     2020, 22, 8499-8512. DOI: 10.1039/D0CP00502A
   
   for sTDA-xTB:
   * S. Grimme and C. Bannwarth, J. Chem. Phys., 2016, 145, 054103.
     DOI: 10.1063/1.4959605
   
   in the mass-spec context:
   * V. Asgeirsson, C. Bauer and S. Grimme, Chem. Sci., 2017, 8, 4879.
     DOI: 10.1039/c7sc00601b
   * J. Koopman and S. Grimme, ACS Omega 2019, 4, 12, 15120-15133.
     DOI: 10.1021/acsomega.9b02011
   
   for metadynamics refer to:
   * S. Grimme, J. Chem. Theory Comput., 2019, 155, 2847-2862
     DOI: 10.1021/acs.jctc.9b00143
   
   for SPH calculations refer to:
   * S. Spicher and S. Grimme, J. Chem. Theory Comput., 2021, 17, 1701-1714
     DOI: 10.1021/acs.jctc.0c01306
   
   with help from (in alphabetical order)
   P. Atkinson, C. Bannwarth, F. Bohle, G. Brandenburg, E. Caldeweyher
   M. Checinski, S. Dohm, S. Ehlert, S. Ehrlich, I. Gerasimov, C. Hölzer
   A. Katbashev, J. Koopman, C. Lavigne, S. Lehtola, F. März, M. Müller,
   F. Musil, H. Neugebauer, J. Pisarek, C. Plett, P. Pracht, F. Pultar,
   J. Seibert, P. Shushkov, S. Spicher, M. Stahn, M. Steiner, T. Strunk,
   J. Stückrath, T. Rose, and J. Unsleber
   
 * started run on 2024/10/04 at 19:17:49.564     

           -------------------------------------------------
          |                Calculation Setup                |
           -------------------------------------------------

          program call               : /home/abt-grimme/AK-bin/xtb input.xyz --input input.inp --opt
          hostname                   : boar074.thch.uni-bonn.de
          coordinate file            : input.xyz
          omp threads                :                     8

   ID    Z sym.   atoms
    1    6 C      1-146, 294-300, 306, 309-314, 323-468, 616-622, 628,
                  631-636, 645-790, 938-944, 950, 953-958, 967-1112,
                  1260-1266, 1272, 1275-1280, 1289-1434, 1582-1588, 1594,
                  1597-1602, 1611-1756, 1904-1910, 1916, 1919-1924,
                  1933-2078, 2226-2232, 2238, 2241-2246, 2255-2400,
                  2548-2554, 2560, 2563-2568, 2577-2722, 2870-2876, 2882,
                  2885-2890, 2899-3044, 3192-3198, 3204, 3207-3212,
                  3221-3366, 3514-3520, 3526, 3529-3534, 3543-3688,
                  3836-3842, 3848, 3851-3856
    2    1 H      147-293, 301-305, 307, 308, 315-322, 469-615, 623-627, 629,
                  630, 637-644, 791-937, 945-949, 951, 952, 959-966,
                  1113-1259, 1267-1271, 1273, 1274, 1281-1288, 1435-1581,
                  1589-1593, 1595, 1596, 1603-1610, 1757-1903, 1911-1915,
                  1917, 1918, 1925-1932, 2079-2225, 2233-2237, 2239, 2240,
                  2247-2254, 2401-2547, 2555-2559, 2561, 2562, 2569-2576,
                  2723-2869, 2877-2881, 2883, 2884, 2891-2898, 3045-3191,
                  3199-3203, 3205, 3206, 3213-3220, 3367-3513, 3521-3525,
                  3527, 3528, 3535-3542, 3689-3835, 3843-3847, 3849, 3850,
                  3857-3864

molecular fragmentation (1/2 indicates fragments):
111111111111111111111111111111111111111111111111111111111111111111111111
111111111111111111111111111111111111111111111111111111111111111111111111
111111111111111111111111111111111111111111111111111111111111111111111111
111111111111111111111111111111111111111111111111111111111111111111111111
111111111111111111111111111111111122222222222222222222222222222222222222
222222222222222222222222222222222222222222222222222222222222222222222222
222222222222222222222222222222222222222222222222222222222222222222222222
222222222222222222222222222222222222222222222222222222222222222222222222
222222222222222222222222222222222222222222222222222222222222222222222222
222222222222222222222222222222222222222222222222222222222222222222222222
222222222222222222222222222222222222222222222222222222222222222222222222
222222222222222222222222222222222222222222222222222222222222222222222222
222222222222222222222222222222222222222222222222222222222222222222222222
222222222222222222222222222222222222222222222222222222222222222222222222
222222222222222222222222222222222222222222222222222222222222222222222222
222222222222222222222222222222222222222222222222222222222222222222222222
222222222222222222222222222222222222222222222222222222222222222222222222
222222222222222222222222222222222222222222222222222222222222222222222222
222222222222222222222222222222222222222222222222222222222222222222222222
222222222222222222222222222222222222222222222222222222222222222222222222
222222222222222222222222222222222222222222222222222222222222222222222222
222222222222222222222222222222222222222222222222222222222222222222222222
222222222222222222222222222222222222222222222222222222222222222222222222
222222222222222222222222222222222222222222222222222222222222222222222222
222222222222222222222222222222222222222222222222222222222222222222222222
222222222222222222222222222222222222222222222222222222222222222222222222
222222222222222222222222222222222222222222222222222222222222222222222222
222222222222222222222222222222222222222222222222222222222222222222222222
222222222222222222222222222222222222222222222222222222222222222222222222
222222222222222222222222222222222222222222222222222222222222222222222222
222222222222222222222222222222222222222222222222222222222222222222222222
222222222222222222222222222222222222222222222222222222222222222222222222
222222222222222222222222222222222222222222222222222222222222222222222222
222222222222222222222222222222222222222222222222222222222222222222222222
222222222222222222222222222222222222222222222222222222222222222222222222
222222222222222222222222222222222222222222222222222222222222222222222222
222222222222222222222222222222222222222222222222222222222222222222222222
222222222222222222222222222222222222222222222222222222222222222222222222
222222222222222222222222222222222222222222222222222222222222222222222222
222222222222222222222222222222222222222222222222222222222222222222222222
222222222222222222222222222222222222222222222222222222222222222222222222
222222222222222222222222222222222222222222222222222222222222222222222222
222222222222222222222222222222222222222222222222222222222222222222222222
222222222222222222222222222222222222222222222222222222222222222222222222
222222222222222222222222222222222222222222222222222222222222222222222222
222222222222222222222222222222222222222222222222222222222222222222222222
222222222222222222222222222222222222222222222222222222222222222222222222
222222222222222222222222222222222222222222222222222222222222222222222222
222222222222222222222222222222222222222222222222222222222222222222222222
222222222222222222222222222222222222222222222222222222222222222222222222
222222222222222222222222222222222222222222222222222222222222222222222222
222222222222222222222222222222222222222222222222222222222222222222222222
222222222222222222222222222222222222222222222222222222222222222222222222
222222222222222222222222222222222222222222222222
# atoms in fragment 1/2:   322  3542
 fragment masses (1/2) :     2085.00    22935.05
CMA distance (Bohr)    :  34.164
constraining FC (au)   :  0.0500

           -------------------------------------------------
          |                 G F N 2 - x T B                 |
           -------------------------------------------------

        Reference                      10.1021/acs.jctc.8b01176
      * Hamiltonian:
        H0-scaling (s, p, d)           1.850000    2.230000    2.230000
        zeta-weighting                 0.500000
      * Dispersion:
        s8                             2.700000
        a1                             0.520000
        a2                             5.000000
        s9                             5.000000
      * Repulsion:
        kExp                           1.500000    1.000000
        rExp                           1.000000
      * Coulomb:
        alpha                          2.000000
        third order                    shell-resolved
        anisotropic                    true
        a3                             3.000000
        a5                             4.000000
        cn-shift                       1.200000
        cn-exp                         4.000000
        max-rad                        5.000000


          ...................................................
          :                      SETUP                      :
          :.................................................:
          :  # basis functions                9624          :
          :  # atomic orbitals                9624          :
          :  # shells                         5784          :
          :  # electrons                      9624          :
          :  max. iterations                   250          :
          :  Hamiltonian                  GFN2-xTB          :
          :  restarted?                      false          :
          :  GBSA solvation                  false          :
          :  PC potential                    false          :
          :  electronic temp.          300.0000000     K    :
          :  accuracy                    1.0000000          :
          :  -> integral cutoff          0.2500000E+02      :
          :  -> integral neglect         0.1000000E-07      :
          :  -> SCF convergence          0.1000000E-05 Eh   :
          :  -> wf. convergence          0.1000000E-03 e    :
          :  Broyden damping             0.4000000          :
          ...................................................

 iter      E             dE          RMSdq      gap      omega  full diag
   1  -5195.7864744 -0.519579E+04  0.367E+00    4.27       0.0  T
   2  -5198.3462520 -0.255978E+01  0.216E+00    4.30       1.0  T
   3  -5198.2762049  0.700471E-01  0.493E-01    4.14       1.0  T
   4  -5198.4792426 -0.203038E+00  0.241E-01    3.97       1.0  T
   5  -5198.6317801 -0.152537E+00  0.460E-02    4.08       1.0  T
   6  -5198.6337669 -0.198687E-02  0.284E-02    4.06       1.0  T
   7  -5198.6349623 -0.119539E-02  0.110E-02    4.08       1.0  T
   8  -5198.6352617 -0.299391E-03  0.289E-03    4.08       1.0  T
   9  -5198.6352788 -0.170971E-04  0.124E-03    4.08       1.3  T
  10  -5198.6352804 -0.159928E-05  0.532E-04    4.08       3.0  T
  11  -5198.6352807 -0.237383E-06  0.287E-04    4.08       5.6  T
  12  -5198.6352809 -0.193024E-06  0.101E-04    4.08      16.0  T

   *** convergence criteria satisfied after 12 iterations ***

         #    Occupation            Energy/Eh            Energy/eV
      -------------------------------------------------------------
         1        2.0000           -0.6517621             -17.7353
       ...           ...                  ...                  ...
      4806        2.0000           -0.3820290             -10.3955
      4807        2.0000           -0.3815367             -10.3821
      4808        2.0000           -0.3814297             -10.3792
      4809        2.0000           -0.3813522             -10.3771
      4810        2.0000           -0.3804095             -10.3515
      4811        2.0000           -0.3788103             -10.3080
      4812        2.0000           -0.3780316             -10.2868 (HOMO)
      4813                         -0.2281008              -6.2069 (LUMO)
      4814                         -0.2273747              -6.1872
      4815                         -0.2272371              -6.1834
      4816                         -0.2270417              -6.1781
      4817                         -0.2267094              -6.1691
       ...                                ...                  ...
      9624                          0.6805757              18.5194
      -------------------------------------------------------------
                  HL-Gap            0.1499309 Eh            4.0798 eV
             Fermi-level           -0.3030662 Eh           -8.2469 eV

 SCC (total)                   0 d,  0 h, 48 min,  0.857 sec
 SCC setup                      ...        0 min,  0.740 sec (  0.026%)
 Dispersion                     ...        0 min,  6.777 sec (  0.235%)
 classical contributions        ...        0 min,  0.158 sec (  0.005%)
 integral evaluation            ...        0 min, 11.558 sec (  0.401%)
 iterations                     ...       42 min, 14.915 sec ( 87.992%)
 molecular gradient             ...        4 min, 59.660 sec ( 10.402%)
 printout                       ...        0 min, 27.049 sec (  0.939%)

         :::::::::::::::::::::::::::::::::::::::::::::::::::::
         ::                     SUMMARY                     ::
         :::::::::::::::::::::::::::::::::::::::::::::::::::::
         :: total energy           -5104.106593436903 Eh    ::
         :: gradient norm              0.021981593271 Eh/a0 ::
         :: HOMO-LUMO gap              4.079826189887 eV    ::
         ::.................................................::
         :: SCC energy             -5198.635280852044 Eh    ::
         :: -> isotropic ES            0.262738911047 Eh    ::
         :: -> anisotropic ES          0.781259994770 Eh    ::
         :: -> anisotropic XC          3.252907654240 Eh    ::
         :: -> dispersion             -7.025914676779 Eh    ::
         :: repulsion energy          93.369618861882 Eh    ::
         :: add. restraining           0.000000000000 Eh    ::
         :: total charge              -0.000000000031 e     ::
         :::::::::::::::::::::::::::::::::::::::::::::::::::::

      ----------------------------------------------------------- 
     |              Fast Inertial Relaxation Engine              |
      ----------------------------------------------------------- 

          ...................................................
          :                      SETUP                      :
          :.................................................:
          :   energy convergence        0.5000000E-05 Eh    :
          :   grad. convergence         0.1000000E-02 Eh/a0 :
          :   optimization log               true           :
          :   writing optlog all                1     steps :
          :   Hessian reset                    20     steps :
          :   time step scaling                 5     steps :
          :   maximium step len.        1.0000000     a0    :
          :   initial time step         0.2500000     fs    :
          :   maximum time step         1.2500000     fs    :
          :   power reset thr           0.0000000     au    :
          :   alpha parameter           0.1000000           :
          :   BFGS update                   false           :
          :   preconditioning               false           :
          ...................................................

........................................................................
.............................. CYCLE    1 ..............................
........................................................................

 iter      E             dE          RMSdq      gap      omega  full diag
   1  -5198.6364759 -0.519864E+04  0.307E-04    4.08       0.0  T
   2  -5198.6364759 -0.146028E-07  0.189E-04    4.08       8.5  T
   3  -5198.6364759  0.301925E-07  0.841E-05    4.08      19.1  T
     SCC iter.                  ...       10 min, 36.703 sec
     gradient                   ...        5 min,  1.769 sec
 * total energy  : -5104.1066483 Eh     change    :  -0.5483112E-04 Eh
   gradient norm :     0.0205972 Eh/a0  converged?    E=F G=F D=F
   time step     :     0.2500000 fs     power     :   0.2814020E-08
   step length   :     0.0025762 a0     speed     :   0.2492608E-03

........................................................................
.............................. CYCLE    2 ..............................
........................................................................

 iter      E             dE          RMSdq      gap      omega  full diag
   1  -5198.6382457 -0.519864E+04  0.449E-04    4.08       0.0  T
   2  -5198.6382457 -0.278642E-07  0.275E-04    4.08       5.8  T
   3  -5198.6382457  0.437440E-07  0.103E-04    4.08      15.6  T
     SCC iter.                  ...       10 min, 35.904 sec
     gradient                   ...        4 min, 59.090 sec
 * total energy  : -5104.1067223 Eh     change    :  -0.7400903E-04 Eh
   gradient norm :     0.0186456 Eh/a0  converged?    E=F G=F D=F
   time step     :     0.2500000 fs     power     :   0.3726563E-08
   step length   :     0.0037824 a0     speed     :   0.3659671E-03

........................................................................
.............................. CYCLE    3 ..............................
........................................................................

 iter      E             dE          RMSdq      gap      omega  full diag
   1  -5198.6405735 -0.519864E+04  0.578E-04    4.08       0.0  T
   2  -5198.6405735 -0.431319E-07  0.354E-04    4.08       4.5  T
   3  -5198.6405734  0.658711E-07  0.124E-04    4.08      13.0  T
     SCC iter.                  ...       10 min, 35.692 sec
     gradient                   ...        4 min, 58.488 sec
 * total energy  : -5104.1068067 Eh     change    :  -0.8440506E-04 Eh
   gradient norm :     0.0163235 Eh/a0  converged?    E=F G=F D=F
   time step     :     0.2500000 fs     power     :   0.4157413E-08
   step length   :     0.0048704 a0     speed     :   0.4712378E-03

........................................................................
.............................. CYCLE    4 ..............................
........................................................................

 iter      E             dE          RMSdq      gap      omega  full diag
   1  -5198.6434413 -0.519864E+04  0.689E-04    4.08       0.0  T
   2  -5198.6434414 -0.572109E-07  0.423E-04    4.08       3.8  T
   3  -5198.6434413  0.100444E-06  0.147E-04    4.08      10.9  T
     SCC iter.                  ...       10 min, 35.312 sec
     gradient                   ...        5 min,  0.558 sec
 * total energy  : -5104.1068924 Eh     change    :  -0.8568626E-04 Eh
   gradient norm :     0.0138968 Eh/a0  converged?    E=F G=F D=F
   time step     :     0.2500000 fs     power     :   0.4112261E-08
   step length   :     0.0058109 a0     speed     :   0.5622323E-03

........................................................................
.............................. CYCLE    5 ..............................
........................................................................

 iter      E             dE          RMSdq      gap      omega  full diag
   1  -5198.6468280 -0.519865E+04  0.778E-04    4.08       0.0  T
   2  -5198.6468281 -0.674536E-07  0.480E-04    4.08       3.4  T
   3  -5198.6468279  0.147349E-06  0.172E-04    4.08       9.4  T
     SCC iter.                  ...       10 min, 38.786 sec
     gradient                   ...        5 min,  0.967 sec
 * total energy  : -5104.1069715 Eh     change    :  -0.7910598E-04 Eh
   gradient norm :     0.0116964 Eh/a0  converged?    E=F G=F D=F
   time step     :     0.2500000 fs     power     :   0.3684701E-08
   step length   :     0.0065804 a0     speed     :   0.6366845E-03

........................................................................
.............................. CYCLE    6 ..............................
........................................................................

 iter      E             dE          RMSdq      gap      omega  full diag
   1  -5198.6511315 -0.519865E+04  0.934E-04    4.08       0.0  T
   2  -5198.6511316 -0.899618E-07  0.581E-04    4.08       2.8  T
   3  -5198.6511313  0.279192E-06  0.227E-04    4.08       7.1  T
     SCC iter.                  ...       10 min, 36.731 sec
     gradient                   ...        4 min, 59.900 sec
 * total energy  : -5104.1070453 Eh     change    :  -0.7383874E-04 Eh
   gradient norm :     0.0099207 Eh/a0  converged?    E=F G=F D=F
   time step     :     0.2750000 fs     power     :   0.2951992E-08
   step length   :     0.0079438 a0     speed     :   0.6987325E-03

........................................................................
.............................. CYCLE    7 ..............................
........................................................................

 iter      E             dE          RMSdq      gap      omega  full diag
   1  -5198.6564405 -0.519866E+04  0.108E-03    4.08       0.0  T
   2  -5198.6564406 -0.109249E-06  0.681E-04    4.08       2.4  T
   3  -5198.6564402  0.478927E-06  0.291E-04    4.08       5.5  T
     SCC iter.                  ...       10 min, 35.523 sec
     gradient                   ...        5 min, 12.571 sec
 * total energy  : -5104.1071075 Eh     change    :  -0.6217886E-04 Eh
   gradient norm :     0.0089573 Eh/a0  converged?    E=F G=F D=F
   time step     :     0.3025000 fs     power     :   0.2084367E-08
   step length   :     0.0092687 a0     speed     :   0.7411576E-03

........................................................................
.............................. CYCLE    8 ..............................
........................................................................

 iter      E             dE          RMSdq      gap      omega  full diag
   1  -5198.6626961 -0.519866E+04  0.120E-03    4.08       0.0  T
   2  -5198.6626962 -0.125908E-06  0.765E-04    4.09       2.1  T
   3  -5198.6626955  0.707723E-06  0.353E-04    4.08       4.6  T
     SCC iter.                  ...       10 min, 35.061 sec
     gradient                   ...        5 min,  2.838 sec
 * total energy  : -5104.1071554 Eh     change    :  -0.4794506E-04 Eh
   gradient norm :     0.0086538 Eh/a0  converged?    E=F G=F D=F
   time step     :     0.3327500 fs     power     :   0.1293429E-08
   step length   :     0.0104212 a0     speed     :   0.7575577E-03

........................................................................
.............................. CYCLE    9 ..............................
........................................................................

 iter      E             dE          RMSdq      gap      omega  full diag
   1  -5198.6696217 -0.519867E+04  0.129E-03    4.08       0.0  T
   2  -5198.6696218 -0.145057E-06  0.824E-04    4.09       2.0  T
   3  -5198.6696210  0.837100E-06  0.394E-04    4.09       4.1  T
     SCC iter.                  ...       10 min, 36.120 sec
     gradient                   ...        5 min,  0.795 sec
 * total energy  : -5104.1071900 Eh     change    :  -0.3453204E-04 Eh
   gradient norm :     0.0084340 Eh/a0  converged?    E=F G=F D=F
   time step     :     0.3660250 fs     power     :   0.6770161E-09
   step length   :     0.0113294 a0     speed     :   0.7487090E-03

........................................................................
.............................. CYCLE   10 ..............................
........................................................................

 iter      E             dE          RMSdq      gap      omega  full diag
   1  -5198.6767207 -0.519868E+04  0.135E-03    4.09       0.0  T
   2  -5198.6767209 -0.165322E-06  0.851E-04    4.09       1.9  T
   3  -5198.6767201  0.808185E-06  0.403E-04    4.09       4.0  T
     SCC iter.                  ...       10 min, 34.932 sec
     gradient                   ...        4 min, 59.719 sec
 * total energy  : -5104.1072120 Eh     change    :  -0.2205688E-04 Eh
   gradient norm :     0.0081105 Eh/a0  converged?    E=F G=F D=F
   time step     :     0.4026275 fs     power     :   0.1851472E-09
   step length   :     0.0119987 a0     speed     :   0.7208486E-03

........................................................................
.............................. CYCLE   11 ..............................
........................................................................

 iter      E             dE          RMSdq      gap      omega  full diag
   1  -5198.6832712 -0.519868E+04  0.136E-03    4.09       0.0  T
   2  -5198.6832714 -0.170354E-06  0.839E-04    4.09       1.9  T
   3  -5198.6832708  0.628520E-06  0.369E-04    4.09       4.4  T
     SCC iter.                  ...       10 min, 34.062 sec
     gradient                   ...        5 min,  0.266 sec
 * total energy  : -5104.1072224 Eh     change    :  -0.1032715E-04 Eh
   gradient norm :     0.0081582 Eh/a0  converged?    E=F G=F D=F
   time step     :     0.4428903 fs     power     :  -0.2117433E-09
   step length   :     0.0124087 a0     speed     :   0.6777122E-03

........................................................................
.............................. CYCLE   12 ..............................
........................................................................
 * reset velocities

 iter      E             dE          RMSdq      gap      omega  full diag
   1  -5198.6831045 -0.519868E+04  0.597E-05    4.09       0.0  T
   2  -5198.6831045 -0.516138E-08  0.532E-05    4.09      30.2  T
   3  -5198.6831045 -0.118644E-07  0.190E-05    4.09      84.5  T
     SCC iter.                  ...       10 min, 34.410 sec
     gradient                   ...        5 min,  1.042 sec
 * total energy  : -5104.1072262 Eh     change    :  -0.3798871E-05 Eh
   gradient norm :     0.0080185 Eh/a0  converged?    E=T G=F D=T
   time step     :     0.2214451 fs     power     :   0.1802073E-09
   step length   :     0.0003751 a0     speed     :   0.4097172E-04

........................................................................
.............................. CYCLE   13 ..............................
........................................................................

 iter      E             dE          RMSdq      gap      omega  full diag
   1  -5198.6827623 -0.519868E+04  0.722E-05    4.09       0.0  T
   2  -5198.6827623 -0.113323E-08  0.506E-05    4.09      31.8  T
   3  -5198.6827623  0.230193E-08  0.221E-05    4.09      72.6  T
     SCC iter.                  ...       10 min, 36.615 sec
     gradient                   ...        5 min,  0.084 sec
 * total energy  : -5104.1072320 Eh     change    :  -0.5830834E-05 Eh
   gradient norm :     0.0077011 Eh/a0  converged?    E=F G=F D=T
   time step     :     0.2214451 fs     power     :   0.3430875E-09
   step length   :     0.0007437 a0     speed     :   0.8123989E-04

........................................................................
.............................. CYCLE   14 ..............................
........................................................................

 iter      E             dE          RMSdq      gap      omega  full diag
   1  -5198.6822486 -0.519868E+04  0.103E-04    4.09       0.0  T
   2  -5198.6822486 -0.240652E-08  0.731E-05    4.09      22.0  T
   3  -5198.6822486  0.445743E-08  0.319E-05    4.09      50.4  T
     SCC iter.                  ...       10 min, 37.733 sec
     gradient                   ...        4 min, 59.953 sec
 * total energy  : -5104.1072402 Eh     change    :  -0.8188772E-05 Eh
   gradient norm :     0.0072416 Eh/a0  converged?    E=F G=F D=F
   time step     :     0.2214451 fs     power     :   0.4757141E-09
   step length   :     0.0010977 a0     speed     :   0.1199057E-03

........................................................................
.............................. CYCLE   15 ..............................
........................................................................

 iter      E             dE          RMSdq      gap      omega  full diag
   1  -5198.6815694 -0.519868E+04  0.134E-04    4.09       0.0  T
   2  -5198.6815694 -0.401269E-08  0.948E-05    4.09      17.0  T
   3  -5198.6815694  0.735417E-08  0.410E-05    4.09      39.3  T
     SCC iter.                  ...       10 min, 35.668 sec
     gradient                   ...        5 min,  1.606 sec
 * total energy  : -5104.1072501 Eh     change    :  -0.9919178E-05 Eh
   gradient norm :     0.0066620 Eh/a0  converged?    E=F G=F D=F
   time step     :     0.2214451 fs     power     :   0.5688373E-09
   step length   :     0.0014303 a0     speed     :   0.1562306E-03

........................................................................
.............................. CYCLE   16 ..............................
........................................................................

 iter      E             dE          RMSdq      gap      omega  full diag
   1  -5198.6807327 -0.519868E+04  0.162E-04    4.09       0.0  T
   2  -5198.6807327 -0.566342E-08  0.114E-04    4.09      14.1  T
   3  -5198.6807327  0.112623E-07  0.493E-05    4.09      32.6  T
     SCC iter.                  ...       10 min, 38.628 sec
     gradient                   ...        4 min, 59.199 sec
 * total energy  : -5104.1072610 Eh     change    :  -0.1088818E-04 Eh
   gradient norm :     0.0059927 Eh/a0  converged?    E=F G=F D=F
   time step     :     0.2214451 fs     power     :   0.6174058E-09
   step length   :     0.0017353 a0     speed     :   0.1895525E-03

........................................................................
.............................. CYCLE   17 ..............................
........................................................................

 iter      E             dE          RMSdq      gap      omega  full diag
   1  -5198.6797481 -0.519868E+04  0.186E-04    4.09       0.0  T
   2  -5198.6797481 -0.710588E-08  0.131E-04    4.09      12.3  T
   3  -5198.6797481  0.155160E-07  0.566E-05    4.09      28.4  T
     SCC iter.                  ...       10 min, 36.868 sec
     gradient                   ...        4 min, 59.692 sec
 * total energy  : -5104.1072721 Eh     change    :  -0.1116934E-04 Eh
   gradient norm :     0.0052736 Eh/a0  converged?    E=F G=F D=F
   time step     :     0.2214451 fs     power     :   0.6211807E-09
   step length   :     0.0020076 a0     speed     :   0.2192975E-03

........................................................................
.............................. CYCLE   18 ..............................
........................................................................

 iter      E             dE          RMSdq      gap      omega  full diag
   1  -5198.6785010 -0.519868E+04  0.227E-04    4.09       0.0  T
   2  -5198.6785010 -0.104228E-07  0.161E-04    4.09      10.0  T
   3  -5198.6785010  0.245636E-07  0.700E-05    4.09      23.0  T
     SCC iter.                  ...       10 min, 36.932 sec
     gradient                   ...        4 min, 59.516 sec
 * total energy  : -5104.1072839 Eh     change    :  -0.1176663E-04 Eh
   gradient norm :     0.0044838 Eh/a0  converged?    E=F G=F D=F
   time step     :     0.2435896 fs     power     :   0.5788204E-09
   step length   :     0.0024932 a0     speed     :   0.2475825E-03

........................................................................
.............................. CYCLE   19 ..............................
........................................................................

 iter      E             dE          RMSdq      gap      omega  full diag
   1  -5198.6769554 -0.519868E+04  0.270E-04    4.09       0.0  T
   2  -5198.6769554 -0.138307E-07  0.191E-04    4.09       8.4  T
   3  -5198.6769553  0.373502E-07  0.839E-05    4.09      19.2  T
     SCC iter.                  ...       10 min, 36.716 sec
     gradient                   ...        5 min,  0.880 sec
 * total energy  : -5104.1072954 Eh     change    :  -0.1148109E-04 Eh
   gradient norm :     0.0037233 Eh/a0  converged?    E=F G=F D=F
   time step     :     0.2679486 fs     power     :   0.4893818E-09
   step length   :     0.0030212 a0     speed     :   0.2727408E-03

........................................................................
.............................. CYCLE   20 ..............................
........................................................................

 iter      E             dE          RMSdq      gap      omega  full diag
   1  -5198.6750900 -0.519868E+04  0.308E-04    4.09       0.0  T
   2  -5198.6750901 -0.166701E-07  0.219E-04    4.09       7.3  T
   3  -5198.6750900  0.542077E-07  0.973E-05    4.09      16.5  T
     SCC iter.                  ...       10 min, 35.607 sec
     gradient                   ...        4 min, 59.789 sec
 * total energy  : -5104.1073055 Eh     change    :  -0.1007151E-04 Eh
   gradient norm :     0.0031826 Eh/a0  converged?    E=F G=F D=F
   time step     :     0.2947435 fs     power     :   0.3652644E-09
   step length   :     0.0035629 a0     speed     :   0.2923980E-03
 * RMSD in coord.:     0.0012184 a0     energy gain  -0.7120306E-03 Eh

........................................................................
.............................. CYCLE   21 ..............................
........................................................................

 iter      E             dE          RMSdq      gap      omega  full diag
   1  -5198.6734483 -0.519867E+04  0.259E-04    4.09       0.0  T
   2  -5198.6734483 -0.984346E-08  0.181E-04    4.08       8.9  T
   3  -5198.6734483  0.408700E-07  0.811E-05    4.08      19.8  T
     SCC iter.                  ...       10 min, 33.512 sec
     gradient                   ...        5 min,  7.089 sec
 * total energy  : -5104.1073119 Eh     change    :  -0.6434831E-05 Eh
   gradient norm :     0.0030443 Eh/a0  converged?    E=F G=F D=F
   time step     :     0.2500000 fs     power     :   0.2721466E-09
   step length   :     0.0030884 a0     speed     :   0.2988217E-03

........................................................................
.............................. CYCLE   22 ..............................
........................................................................

 iter      E             dE          RMSdq      gap      omega  full diag
   1  -5198.6718207 -0.519867E+04  0.245E-04    4.08       0.0  T
   2  -5198.6718208 -0.744149E-08  0.170E-04    4.08       9.5  T
   3  -5198.6718207  0.394384E-07  0.782E-05    4.08      20.6  T
     SCC iter.                  ...       10 min, 37.507 sec
     gradient                   ...        5 min,  2.734 sec
 * total energy  : -5104.1073169 Eh     change    :  -0.5021163E-05 Eh
   gradient norm :     0.0031180 Eh/a0  converged?    E=F G=F D=F
   time step     :     0.2500000 fs     power     :   0.2104937E-09
   step length   :     0.0030726 a0     speed     :   0.2972861E-03

........................................................................
.............................. CYCLE   23 ..............................
........................................................................

 iter      E             dE          RMSdq      gap      omega  full diag
   1  -5198.6702799 -0.519867E+04  0.228E-04    4.08       0.0  T
   2  -5198.6702799 -0.499404E-08  0.154E-04    4.08      10.4  T
   3  -5198.6702799  0.316750E-07  0.702E-05    4.08      22.9  T
     SCC iter.                  ...       10 min, 35.581 sec
     gradient                   ...        4 min, 59.502 sec
 * total energy  : -5104.1073212 Eh     change    :  -0.4276337E-05 Eh
   gradient norm :     0.0032662 Eh/a0  converged?    E=T G=F D=F
   time step     :     0.2500000 fs     power     :   0.1851325E-09
   step length   :     0.0030014 a0     speed     :   0.2904058E-03

........................................................................
.............................. CYCLE   24 ..............................
........................................................................

 iter      E             dE          RMSdq      gap      omega  full diag
   1  -5198.6688822 -0.519867E+04  0.214E-04    4.08       0.0  T
   2  -5198.6688822 -0.316413E-08  0.139E-04    4.08      11.6  T
   3  -5198.6688822  0.186565E-07  0.553E-05    4.08      29.1  T
     SCC iter.                  ...       10 min, 33.684 sec
     gradient                   ...        5 min,  1.518 sec
 * total energy  : -5104.1073253 Eh     change    :  -0.4129814E-05 Eh
   gradient norm :     0.0033892 Eh/a0  converged?    E=T G=F D=F
   time step     :     0.2500000 fs     power     :   0.1897379E-09
   step length   :     0.0029126 a0     speed     :   0.2818135E-03

........................................................................
.............................. CYCLE   25 ..............................
........................................................................

 iter      E             dE          RMSdq      gap      omega  full diag
   1  -5198.6676646 -0.519867E+04  0.205E-04    4.08       0.0  T
   2  -5198.6676646 -0.209457E-08  0.127E-04    4.08      12.7  T
   3  -5198.6676646  0.577620E-08  0.333E-05    4.08      48.3  T
     SCC iter.                  ...       10 min, 38.164 sec
     gradient                   ...        5 min,  1.025 sec
 * total energy  : -5104.1073298 Eh     change    :  -0.4444685E-05 Eh
   gradient norm :     0.0034403 Eh/a0  converged?    E=T G=F D=F
   time step     :     0.2500000 fs     power     :   0.2129460E-09
   step length   :     0.0028358 a0     speed     :   0.2743762E-03

........................................................................
.............................. CYCLE   26 ..............................
........................................................................

 iter      E             dE          RMSdq      gap      omega  full diag
   1  -5198.6665496 -0.519867E+04  0.223E-04    4.08       0.0  T
   2  -5198.6665497 -0.202544E-08  0.133E-04    4.08      12.1  T
   3  -5198.6665496  0.153432E-08  0.230E-05    4.08      69.9  T
     SCC iter.                  ...       10 min, 36.355 sec
     gradient                   ...        5 min,  0.066 sec
 * total energy  : -5104.1073352 Eh     change    :  -0.5429710E-05 Eh
   gradient norm :     0.0034004 Eh/a0  converged?    E=F G=F D=F
   time step     :     0.2750000 fs     power     :   0.2432114E-09
   step length   :     0.0030780 a0     speed     :   0.2707388E-03

........................................................................
.............................. CYCLE   27 ..............................
........................................................................

 iter      E             dE          RMSdq      gap      omega  full diag
   1  -5198.6655902 -0.519867E+04  0.248E-04    4.08       0.0  T
   2  -5198.6655902 -0.227737E-08  0.146E-04    4.08      11.0  T
   3  -5198.6655902  0.358250E-08  0.308E-05    4.08      52.2  T
     SCC iter.                  ...       10 min, 36.514 sec
     gradient                   ...        4 min, 58.367 sec
 * total energy  : -5104.1073419 Eh     change    :  -0.6681122E-05 Eh
   gradient norm :     0.0032609 Eh/a0  converged?    E=F G=F D=F
   time step     :     0.3025000 fs     power     :   0.2711247E-09
   step length   :     0.0033972 a0     speed     :   0.2716540E-03

........................................................................
.............................. CYCLE   28 ..............................
........................................................................

 iter      E             dE          RMSdq      gap      omega  full diag
   1  -5198.6648428 -0.519866E+04  0.284E-04    4.08       0.0  T
   2  -5198.6648428 -0.320506E-08  0.168E-04    4.08       9.6  T
   3  -5198.6648428  0.131067E-07  0.528E-05    4.08      30.5  T
     SCC iter.                  ...       10 min, 36.860 sec
     gradient                   ...        4 min, 58.354 sec
 * total energy  : -5104.1073497 Eh     change    :  -0.7798775E-05 Eh
   gradient norm :     0.0030350 Eh/a0  converged?    E=F G=F D=F
   time step     :     0.3327500 fs     power     :   0.2884136E-09
   step length   :     0.0038091 a0     speed     :   0.2768972E-03

........................................................................
.............................. CYCLE   29 ..............................
........................................................................

 iter      E             dE          RMSdq      gap      omega  full diag
   1  -5198.6643664 -0.519866E+04  0.326E-04    4.08       0.0  T
   2  -5198.6643664 -0.499494E-08  0.196E-04    4.08       8.2  T
   3  -5198.6643663  0.327336E-07  0.807E-05    4.08      19.9  T
     SCC iter.                  ...       10 min, 35.521 sec
     gradient                   ...        4 min, 58.881 sec
 * total energy  : -5104.1073584 Eh     change    :  -0.8722936E-05 Eh
   gradient norm :     0.0027600 Eh/a0  converged?    E=F G=F D=F
   time step     :     0.3660250 fs     power     :   0.2893192E-09
   step length   :     0.0043202 a0     speed     :   0.2855030E-03

........................................................................
.............................. CYCLE   30 ..............................
........................................................................

 iter      E             dE          RMSdq      gap      omega  full diag
   1  -5198.6642149 -0.519866E+04  0.371E-04    4.08       0.0  T
   2  -5198.6642149 -0.684213E-08  0.226E-04    4.08       7.1  T
   3  -5198.6642148  0.556129E-07  0.104E-04    4.08      15.4  T
     SCC iter.                  ...       10 min, 35.835 sec
     gradient                   ...        4 min, 59.805 sec
 * total energy  : -5104.1073677 Eh     change    :  -0.9278167E-05 Eh
   gradient norm :     0.0025008 Eh/a0  converged?    E=F G=F D=F
   time step     :     0.4026275 fs     power     :   0.2729312E-09
   step length   :     0.0049252 a0     speed     :   0.2958961E-03

........................................................................
.............................. CYCLE   31 ..............................
........................................................................

 iter      E             dE          RMSdq      gap      omega  full diag
   1  -5198.6644214 -0.519866E+04  0.411E-04    4.08       0.0  T
   2  -5198.6644214 -0.851651E-08  0.252E-04    4.08       6.4  T
   3  -5198.6644214  0.729078E-07  0.118E-04    4.08      13.6  T
     SCC iter.                  ...       10 min, 36.199 sec
     gradient                   ...        4 min, 57.560 sec
 * total energy  : -5104.1073770 Eh     change    :  -0.9360563E-05 Eh
   gradient norm :     0.0023294 Eh/a0  converged?    E=F G=F D=F
   time step     :     0.4428903 fs     power     :   0.2450895E-09
   step length   :     0.0056049 a0     speed     :   0.3061141E-03

........................................................................
.............................. CYCLE   32 ..............................
........................................................................

 iter      E             dE          RMSdq      gap      omega  full diag
   1  -5198.6649757 -0.519866E+04  0.438E-04    4.08       0.0  T
   2  -5198.6649757 -0.889759E-08  0.267E-04    4.09       6.0  T
   3  -5198.6649756  0.730397E-07  0.117E-04    4.08      13.8  T
     SCC iter.                  ...       10 min, 36.741 sec
     gradient                   ...        4 min, 59.403 sec
 * total energy  : -5104.1073863 Eh     change    :  -0.9252422E-05 Eh
   gradient norm :     0.0022733 Eh/a0  converged?    E=F G=F D=F
   time step     :     0.4871793 fs     power     :   0.2168425E-09
   step length   :     0.0063315 a0     speed     :   0.3143657E-03

........................................................................
.............................. CYCLE   33 ..............................
........................................................................

 iter      E             dE          RMSdq      gap      omega  full diag
   1  -5198.6658112 -0.519867E+04  0.448E-04    4.09       0.0  T
   2  -5198.6658112 -0.863383E-08  0.269E-04    4.09       6.0  T
   3  -5198.6658111  0.456757E-07  0.927E-05    4.09      17.4  T
     SCC iter.                  ...       10 min, 38.065 sec
     gradient                   ...        5 min,  3.280 sec
 * total energy  : -5104.1073957 Eh     change    :  -0.9438305E-05 Eh
   gradient norm :     0.0023046 Eh/a0  converged?    E=F G=F D=F
   time step     :     0.5358972 fs     power     :   0.1989191E-09
   step length   :     0.0070914 a0     speed     :   0.3200867E-03

........................................................................
.............................. CYCLE   34 ..............................
........................................................................

 iter      E             dE          RMSdq      gap      omega  full diag
   1  -5198.6668152 -0.519867E+04  0.442E-04    4.09       0.0  T
   2  -5198.6668152 -0.798900E-08  0.263E-04    4.09       6.1  T
   3  -5198.6668151  0.100245E-07  0.508E-05    4.09      31.7  T
     SCC iter.                  ...       10 min, 36.483 sec
     gradient                   ...        5 min,  5.519 sec
 * total energy  : -5104.1074058 Eh     change    :  -0.1008338E-04 Eh
   gradient norm :     0.0023729 Eh/a0  converged?    E=F G=F D=F
   time step     :     0.5894869 fs     power     :   0.1978098E-09
   step length   :     0.0079081 a0     speed     :   0.3244981E-03

........................................................................
.............................. CYCLE   35 ..............................
........................................................................

 iter      E             dE          RMSdq      gap      omega  full diag
   1  -5198.6678476 -0.519867E+04  0.426E-04    4.09       0.0  T
   2  -5198.6678476 -0.689033E-08  0.258E-04    4.09       6.2  T
   3  -5198.6678476  0.133696E-07  0.537E-05    4.09      30.0  T
     SCC iter.                  ...       10 min, 34.160 sec
     gradient                   ...        5 min,  2.534 sec
 * total energy  : -5104.1074175 Eh     change    :  -0.1167764E-04 Eh
   gradient norm :     0.0023799 Eh/a0  converged?    E=F G=F D=F
   time step     :     0.6484356 fs     power     :   0.2131503E-09
   step length   :     0.0088475 a0     speed     :   0.3300416E-03

........................................................................
.............................. CYCLE   36 ..............................
........................................................................

 iter      E             dE          RMSdq      gap      omega  full diag
   1  -5198.6687468 -0.519867E+04  0.422E-04    4.09       0.0  T
   2  -5198.6687468 -0.614091E-08  0.260E-04    4.09       6.2  T
   3  -5198.6687468  0.246173E-07  0.676E-05    4.09      23.8  T
     SCC iter.                  ...       10 min, 33.053 sec
     gradient                   ...        5 min,  1.662 sec
 * total energy  : -5104.1074313 Eh     change    :  -0.1378474E-04 Eh
   gradient norm :     0.0022443 Eh/a0  converged?    E=F G=F D=F
   time step     :     0.7132792 fs     power     :   0.2311488E-09
   step length   :     0.0100036 a0     speed     :   0.3392431E-03

........................................................................
.............................. CYCLE   37 ..............................
........................................................................

 iter      E             dE          RMSdq      gap      omega  full diag
   1  -5198.6693237 -0.519867E+04  0.432E-04    4.09       0.0  T
   2  -5198.6693237 -0.912769E-08  0.272E-04    4.09       5.9  T
   3  -5198.6693236  0.562914E-07  0.975E-05    4.09      16.5  T
     SCC iter.                  ...       10 min, 34.241 sec
     gradient                   ...        4 min, 59.876 sec
 * total energy  : -5104.1074469 Eh     change    :  -0.1566313E-04 Eh
   gradient norm :     0.0021591 Eh/a0  converged?    E=F G=F D=F
   time step     :     0.7846071 fs     power     :   0.2366608E-09
   step length   :     0.0114397 a0     speed     :   0.3526760E-03

........................................................................
.............................. CYCLE   38 ..............................
........................................................................

 iter      E             dE          RMSdq      gap      omega  full diag
   1  -5198.6693868 -0.519867E+04  0.460E-04    4.09       0.0  T
   2  -5198.6693868 -0.120044E-07  0.285E-04    4.09       5.6  T
   3  -5198.6693868  0.471427E-07  0.932E-05    4.09      17.3  T
     SCC iter.                  ...       10 min, 39.158 sec
     gradient                   ...        5 min,  7.274 sec
 * total energy  : -5104.1074649 Eh     change    :  -0.1795750E-04 Eh
   gradient norm :     0.0022890 Eh/a0  converged?    E=F G=F D=F
   time step     :     0.8630678 fs     power     :   0.2501416E-09
   step length   :     0.0131336 a0     speed     :   0.3680891E-03

........................................................................
.............................. CYCLE   39 ..............................
........................................................................

 iter      E             dE          RMSdq      gap      omega  full diag
   1  -5198.6689616 -0.519867E+04  0.530E-04    4.09       0.0  T
   2  -5198.6689616 -0.121836E-07  0.318E-04    4.09       5.1  T
   3  -5198.6689616  0.189320E-07  0.661E-05    4.09      24.3  T
     SCC iter.                  ...       10 min, 38.058 sec
     gradient                   ...        5 min,  0.211 sec
 * total energy  : -5104.1074871 Eh     change    :  -0.2219825E-04 Eh
   gradient norm :     0.0022277 Eh/a0  converged?    E=F G=F D=F
   time step     :     0.9493746 fs     power     :   0.2887551E-09
   step length   :     0.0151532 a0     speed     :   0.3860853E-03

........................................................................
.............................. CYCLE   40 ..............................
........................................................................

 iter      E             dE          RMSdq      gap      omega  full diag
   1  -5198.6685492 -0.519867E+04  0.613E-04    4.09       0.0  T
   2  -5198.6685492 -0.157306E-07  0.371E-04    4.09       4.3  T
   3  -5198.6685492  0.428099E-07  0.924E-05    4.09      17.4  T
     SCC iter.                  ...       10 min, 33.913 sec
     gradient                   ...        4 min, 59.616 sec
 * total energy  : -5104.1075138 Eh     change    :  -0.2668296E-04 Eh
   gradient norm :     0.0019723 Eh/a0  converged?    E=F G=F D=F
   time step     :     1.0443120 fs     power     :   0.3076851E-09
   step length   :     0.0177471 a0     speed     :   0.4110666E-03

........................................................................
.............................. CYCLE   41 ..............................
........................................................................

 iter      E             dE          RMSdq      gap      omega  full diag
   1  -5198.6691644 -0.519867E+04  0.658E-04    4.09       0.0  T
   2  -5198.6691644 -0.175714E-07  0.401E-04    4.09       4.0  T
   3  -5198.6691644  0.586251E-07  0.108E-04    4.09      14.9  T
     SCC iter.                  ...       10 min, 33.263 sec
     gradient                   ...        5 min,  0.319 sec
 * total energy  : -5104.1075431 Eh     change    :  -0.2935156E-04 Eh
   gradient norm :     0.0021074 Eh/a0  converged?    E=F G=F D=F
   time step     :     1.1487432 fs     power     :   0.3039266E-09
   step length   :     0.0209052 a0     speed     :   0.4401957E-03

........................................................................
.............................. CYCLE   42 ..............................
........................................................................

 iter      E             dE          RMSdq      gap      omega  full diag
   1  -5198.6710905 -0.519867E+04  0.723E-04    4.09       0.0  T
   2  -5198.6710905 -0.133550E-07  0.428E-04    4.09       3.8  T
   3  -5198.6710905  0.145028E-07  0.642E-05    4.09      25.1  T
     SCC iter.                  ...       10 min, 37.924 sec
     gradient                   ...        5 min,  0.723 sec
 * total energy  : -5104.1075780 Eh     change    :  -0.3491222E-04 Eh
   gradient norm :     0.0021278 Eh/a0  converged?    E=F G=F D=F
   time step     :     1.2500000 fs     power     :   0.3498427E-09
   step length   :     0.0241501 a0     speed     :   0.4673306E-03
 * RMSD in coord.:     0.0026241 a0     energy gain  -0.2725802E-03 Eh

........................................................................
.............................. CYCLE   43 ..............................
........................................................................

 iter      E             dE          RMSdq      gap      omega  full diag
   1  -5198.6714277 -0.519867E+04  0.143E-04    4.09       0.0  T
   2  -5198.6714277 -0.709406E-09  0.845E-05    4.09      19.0  T
   3  -5198.6714277  0.146520E-08  0.187E-05    4.09      86.2  T
     SCC iter.                  ...       10 min, 35.710 sec
     gradient                   ...        5 min,  1.615 sec
 * total energy  : -5104.1075852 Eh     change    :  -0.7114082E-05 Eh
   gradient norm :     0.0020477 Eh/a0  converged?    E=F G=F D=F
   time step     :     0.2500000 fs     power     :   0.3757024E-09
   step length   :     0.0047596 a0     speed     :   0.4605210E-03

........................................................................
.............................. CYCLE   44 ..............................
........................................................................

 iter      E             dE          RMSdq      gap      omega  full diag
   1  -5198.6716986 -0.519867E+04  0.152E-04    4.09       0.0  T
   2  -5198.6716986 -0.801265E-09  0.911E-05    4.09      17.7  T
   3  -5198.6716986  0.378805E-08  0.282E-05    4.09      57.1  T
     SCC iter.                  ...       10 min, 36.279 sec
     gradient                   ...        5 min,  3.894 sec
 * total energy  : -5104.1075926 Eh     change    :  -0.7478313E-05 Eh
   gradient norm :     0.0018732 Eh/a0  converged?    E=F G=F D=F
   time step     :     0.2500000 fs     power     :   0.3884901E-09
   step length   :     0.0047342 a0     speed     :   0.4580638E-03

........................................................................
.............................. CYCLE   45 ..............................
........................................................................

 iter      E             dE          RMSdq      gap      omega  full diag
   1  -5198.6718938 -0.519867E+04  0.166E-04    4.09       0.0  T
   2  -5198.6718938 -0.124146E-08  0.101E-04    4.09      16.0  T
   3  -5198.6718938  0.484761E-08  0.316E-05    4.09      50.9  T
     SCC iter.                  ...       10 min, 36.483 sec
     gradient                   ...        4 min, 58.822 sec
 * total energy  : -5104.1076001 Eh     change    :  -0.7463957E-05 Eh
   gradient norm :     0.0016799 Eh/a0  converged?    E=F G=F D=F
   time step     :     0.2500000 fs     power     :   0.3843433E-09
   step length   :     0.0047536 a0     speed     :   0.4599342E-03

........................................................................
.............................. CYCLE   46 ..............................
........................................................................

 iter      E             dE          RMSdq      gap      omega  full diag
   1  -5198.6720166 -0.519867E+04  0.177E-04    4.09       0.0  T
   2  -5198.6720166 -0.164346E-08  0.107E-04    4.09      15.0  T
   3  -5198.6720165  0.562159E-08  0.330E-05    4.09      48.7  T
     SCC iter.                  ...       10 min, 35.222 sec
     gradient                   ...        5 min,  1.610 sec
 * total energy  : -5104.1076073 Eh     change    :  -0.7178061E-05 Eh
   gradient norm :     0.0015622 Eh/a0  converged?    E=F G=F D=F
   time step     :     0.2500000 fs     power     :   0.3685629E-09
   step length   :     0.0048046 a0     speed     :   0.4648722E-03

........................................................................
.............................. CYCLE   47 ..............................
........................................................................

 iter      E             dE          RMSdq      gap      omega  full diag
   1  -5198.6720829 -0.519867E+04  0.177E-04    4.09       0.0  T
   2  -5198.6720829 -0.153705E-08  0.108E-04    4.09      15.0  T
   3  -5198.6720829  0.496857E-08  0.303E-05    4.09      53.2  T
     SCC iter.                  ...       10 min, 34.909 sec
     gradient                   ...        4 min, 59.551 sec
 * total energy  : -5104.1076142 Eh     change    :  -0.6882828E-05 Eh
   gradient norm :     0.0015636 Eh/a0  converged?    E=F G=F D=F
   time step     :     0.2500000 fs     power     :   0.3527643E-09
   step length   :     0.0048582 a0     speed     :   0.4700557E-03

........................................................................
.............................. CYCLE   48 ..............................
........................................................................

 iter      E             dE          RMSdq      gap      omega  full diag
   1  -5198.6721194 -0.519867E+04  0.185E-04    4.09       0.0  T
   2  -5198.6721194 -0.117234E-08  0.111E-04    4.09      14.5  T
   3  -5198.6721194  0.373348E-08  0.270E-05    4.09      59.7  T
     SCC iter.                  ...       10 min, 35.175 sec
     gradient                   ...        4 min, 59.256 sec
 * total energy  : -5104.1076215 Eh     change    :  -0.7382168E-05 Eh
   gradient norm :     0.0016449 Eh/a0  converged?    E=F G=F D=F
   time step     :     0.2750000 fs     power     :   0.3457387E-09
   step length   :     0.0053833 a0     speed     :   0.4735078E-03

........................................................................
.............................. CYCLE   49 ..............................
........................................................................

 iter      E             dE          RMSdq      gap      omega  full diag
   1  -5198.6721444 -0.519867E+04  0.186E-04    4.09       0.0  T
   2  -5198.6721444 -0.104592E-08  0.110E-04    4.09      14.6  T
   3  -5198.6721444  0.182081E-08  0.198E-05    4.09      81.4  T
     SCC iter.                  ...       10 min, 34.040 sec
     gradient                   ...        5 min,  0.228 sec
 * total energy  : -5104.1076297 Eh     change    :  -0.8132203E-05 Eh
   gradient norm :     0.0017242 Eh/a0  converged?    E=F G=F D=F
   time step     :     0.3025000 fs     power     :   0.3514803E-09
   step length   :     0.0059393 a0     speed     :   0.4749238E-03

........................................................................
.............................. CYCLE   50 ..............................
........................................................................

 iter      E             dE          RMSdq      gap      omega  full diag
   1  -5198.6721664 -0.519867E+04  0.188E-04    4.09       0.0  T
   2  -5198.6721664 -0.657565E-09  0.111E-04    4.09      14.5  T
   3  -5198.6721664  0.631189E-09  0.145E-05    4.09     111.3  T
     SCC iter.                  ...       10 min, 34.588 sec
     gradient                   ...        4 min, 59.944 sec
 * total energy  : -5104.1076390 Eh     change    :  -0.9307833E-05 Eh
   gradient norm :     0.0017319 Eh/a0  converged?    E=F G=F D=F
   time step     :     0.3327500 fs     power     :   0.3652497E-09
   step length   :     0.0065538 a0     speed     :   0.4764233E-03

........................................................................
.............................. CYCLE   51 ..............................
........................................................................

 iter      E             dE          RMSdq      gap      omega  full diag
   1  -5198.6721744 -0.519867E+04  0.200E-04    4.09       0.0  T
   2  -5198.6721744 -0.760338E-09  0.118E-04    4.09      13.6  T
   3  -5198.6721744  0.158707E-08  0.187E-05    4.09      86.2  T
     SCC iter.                  ...       10 min, 34.157 sec
     gradient                   ...        5 min,  6.809 sec
 * total energy  : -5104.1076495 Eh     change    :  -0.1053482E-04 Eh
   gradient norm :     0.0016526 Eh/a0  converged?    E=F G=F D=F
   time step     :     0.3660250 fs     power     :   0.3774184E-09
   step length   :     0.0072699 a0     speed     :   0.4804349E-03

........................................................................
.............................. CYCLE   52 ..............................
........................................................................

 iter      E             dE          RMSdq      gap      omega  full diag
   1  -5198.6721304 -0.519867E+04  0.224E-04    4.09       0.0  T
   2  -5198.6721304 -0.147793E-08  0.134E-04    4.09      12.0  T
   3  -5198.6721304  0.482396E-08  0.308E-05    4.09      52.2  T
     SCC iter.                  ...       10 min, 35.621 sec
     gradient                   ...        5 min,  1.531 sec
 * total energy  : -5104.1076613 Eh     change    :  -0.1182377E-04 Eh
   gradient norm :     0.0015447 Eh/a0  converged?    E=F G=F D=F
   time step     :     0.4026275 fs     power     :   0.3804763E-09
   step length   :     0.0081280 a0     speed     :   0.4883092E-03

........................................................................
.............................. CYCLE   53 ..............................
........................................................................

 iter      E             dE          RMSdq      gap      omega  full diag
   1  -5198.6719754 -0.519867E+04  0.253E-04    4.09       0.0  T
   2  -5198.6719754 -0.201362E-08  0.154E-04    4.09      10.5  T
   3  -5198.6719754  0.856380E-08  0.402E-05    4.09      40.0  T
     SCC iter.                  ...       10 min, 33.227 sec
     gradient                   ...        5 min,  1.304 sec
 * total energy  : -5104.1076742 Eh     change    :  -0.1286042E-04 Eh
   gradient norm :     0.0015087 Eh/a0  converged?    E=F G=F D=F
   time step     :     0.4428903 fs     power     :   0.3764288E-09
   step length   :     0.0091444 a0     speed     :   0.4994314E-03

........................................................................
.............................. CYCLE   54 ..............................
........................................................................

 iter      E             dE          RMSdq      gap      omega  full diag
   1  -5198.6716686 -0.519867E+04  0.279E-04    4.09       0.0  T
   2  -5198.6716686 -0.208001E-08  0.168E-04    4.09       9.6  T
   3  -5198.6716686  0.768614E-08  0.388E-05    4.09      41.4  T
     SCC iter.                  ...       10 min, 34.941 sec
     gradient                   ...        5 min,  0.984 sec
 * total energy  : -5104.1076884 Eh     change    :  -0.1416833E-04 Eh
   gradient norm :     0.0015555 Eh/a0  converged?    E=F G=F D=F
   time step     :     0.4871793 fs     power     :   0.3761461E-09
   step length   :     0.0102937 a0     speed     :   0.5110891E-03

........................................................................
.............................. CYCLE   55 ..............................
........................................................................

 iter      E             dE          RMSdq      gap      omega  full diag
   1  -5198.6712525 -0.519867E+04  0.301E-04    4.09       0.0  T
   2  -5198.6712525 -0.177533E-08  0.178E-04    4.09       9.0  T
   3  -5198.6712525  0.313685E-08  0.281E-05    4.09      57.3  T
     SCC iter.                  ...       10 min, 33.722 sec
     gradient                   ...        5 min,  1.318 sec
 * total energy  : -5104.1077043 Eh     change    :  -0.1589566E-04 Eh
   gradient norm :     0.0015961 Eh/a0  converged?    E=F G=F D=F
   time step     :     0.5358972 fs     power     :   0.3857818E-09
   step length   :     0.0115632 a0     speed     :   0.5219314E-03

........................................................................
.............................. CYCLE   56 ..............................
........................................................................

 iter      E             dE          RMSdq      gap      omega  full diag
   1  -5198.6708803 -0.519867E+04  0.325E-04    4.09       0.0  T
   2  -5198.6708803 -0.180444E-08  0.192E-04    4.09       8.4  T
   3  -5198.6708803  0.412092E-08  0.305E-05    4.09      52.8  T
     SCC iter.                  ...       10 min, 36.211 sec
     gradient                   ...        4 min, 59.279 sec
 * total energy  : -5104.1077223 Eh     change    :  -0.1802876E-04 Eh
   gradient norm :     0.0015757 Eh/a0  converged?    E=F G=F D=F
   time step     :     0.5894869 fs     power     :   0.4008249E-09
   step length   :     0.0130074 a0     speed     :   0.5337416E-03

........................................................................
.............................. CYCLE   57 ..............................
........................................................................

 iter      E             dE          RMSdq      gap      omega  full diag
   1  -5198.6707815 -0.519867E+04  0.364E-04    4.09       0.0  T
   2  -5198.6707815 -0.239834E-08  0.217E-04    4.09       7.4  T
   3  -5198.6707815  0.123382E-07  0.476E-05    4.09      33.8  T
     SCC iter.                  ...       10 min, 35.083 sec
     gradient                   ...        5 min,  1.022 sec
 * total energy  : -5104.1077428 Eh     change    :  -0.2051181E-04 Eh
   gradient norm :     0.0014979 Eh/a0  converged?    E=F G=F D=F
   time step     :     0.6484356 fs     power     :   0.4123960E-09
   step length   :     0.0147073 a0     speed     :   0.5486319E-03

........................................................................
.............................. CYCLE   58 ..............................
........................................................................

 iter      E             dE          RMSdq      gap      omega  full diag
   1  -5198.6711382 -0.519867E+04  0.413E-04    4.09       0.0  T
   2  -5198.6711382 -0.338241E-08  0.247E-04    4.09       6.5  T
   3  -5198.6711382  0.196878E-07  0.604E-05    4.09      26.6  T
     SCC iter.                  ...       10 min, 35.131 sec
     gradient                   ...        5 min,  2.189 sec
 * total energy  : -5104.1077657 Eh     change    :  -0.2293534E-04 Eh
   gradient norm :     0.0014876 Eh/a0  converged?    E=F G=F D=F
   time step     :     0.7132792 fs     power     :   0.4173415E-09
   step length   :     0.0167301 a0     speed     :   0.5673526E-03

........................................................................
.............................. CYCLE   59 ..............................
........................................................................

 iter      E             dE          RMSdq      gap      omega  full diag
   1  -5198.6718662 -0.519867E+04  0.450E-04    4.09       0.0  T
   2  -5198.6718662 -0.293858E-08  0.266E-04    4.09       6.0  T
   3  -5198.6718662  0.716591E-08  0.402E-05    4.09      40.0  T
     SCC iter.                  ...       10 min, 34.571 sec
     gradient                   ...        5 min,  1.615 sec
 * total energy  : -5104.1077918 Eh     change    :  -0.2600642E-04 Eh
   gradient norm :     0.0019937 Eh/a0  converged?    E=F G=F D=F
   time step     :     0.7846071 fs     power     :   0.4260127E-09
   step length   :     0.0190455 a0     speed     :   0.5871574E-03

........................................................................
.............................. CYCLE   60 ..............................
........................................................................

 iter      E             dE          RMSdq      gap      omega  full diag
   1  -5198.6726170 -0.519867E+04  0.526E-04    4.09       0.0  T
   2  -5198.6726170 -0.100508E-07  0.312E-04    4.09       5.2  T
   3  -5198.6726170  0.188829E-07  0.755E-05    4.09      21.3  T
     SCC iter.                  ...       10 min, 36.425 sec
     gradient                   ...        4 min, 59.960 sec
 * total energy  : -5104.1078198 Eh     change    :  -0.2805251E-04 Eh
   gradient norm :     0.0018573 Eh/a0  converged?    E=F G=F D=F
   time step     :     0.8630678 fs     power     :   0.4188708E-09
   step length   :     0.0213873 a0     speed     :   0.5994122E-03

........................................................................
.............................. CYCLE   61 ..............................
........................................................................

 iter      E             dE          RMSdq      gap      omega  full diag
   1  -5198.6730963 -0.519867E+04  0.581E-04    4.09       0.0  T
   2  -5198.6730963 -0.128293E-07  0.345E-04    4.09       4.7  T
   3  -5198.6730962  0.254922E-07  0.871E-05    4.09      18.5  T
     SCC iter.                  ...       10 min, 38.217 sec
     gradient                   ...        5 min,  1.090 sec
 * total energy  : -5104.1078525 Eh     change    :  -0.3271823E-04 Eh
   gradient norm :     0.0015703 Eh/a0  converged?    E=F G=F D=F
   time step     :     0.9493746 fs     power     :   0.4369254E-09
   step length   :     0.0240995 a0     speed     :   0.6140231E-03

........................................................................
.............................. CYCLE   62 ..............................
........................................................................

 iter      E             dE          RMSdq      gap      omega  full diag
   1  -5198.6731903 -0.519867E+04  0.619E-04    4.09       0.0  T
   2  -5198.6731903 -0.845830E-08  0.367E-04    4.09       4.4  T
   3  -5198.6731903  0.210448E-07  0.716E-05    4.09      22.5  T
     SCC iter.                  ...       10 min, 36.042 sec
     gradient                   ...        5 min,  2.557 sec
 * total energy  : -5104.1078892 Eh     change    :  -0.3666641E-04 Eh
   gradient norm :     0.0017410 Eh/a0  converged?    E=F G=F D=F
   time step     :     1.0443120 fs     power     :   0.4549106E-09
   step length   :     0.0275234 a0     speed     :   0.6375101E-03

........................................................................
.............................. CYCLE   63 ..............................
........................................................................

 iter      E             dE          RMSdq      gap      omega  full diag
   1  -5198.6730421 -0.519867E+04  0.726E-04    4.09       0.0  T
   2  -5198.6730422 -0.242526E-07  0.429E-04    4.09       3.8  T
   3  -5198.6730421  0.452983E-07  0.124E-04    4.09      13.0  T
     SCC iter.                  ...       10 min, 37.569 sec
     gradient                   ...        5 min,  2.132 sec
 * total energy  : -5104.1079312 Eh     change    :  -0.4198320E-04 Eh
   gradient norm :     0.0019375 Eh/a0  converged?    E=F G=F D=F
   time step     :     1.1487432 fs     power     :   0.4576202E-09
   step length   :     0.0313864 a0     speed     :   0.6608964E-03

........................................................................
.............................. CYCLE   64 ..............................
........................................................................

 iter      E             dE          RMSdq      gap      omega  full diag
   1  -5198.6729618 -0.519867E+04  0.834E-04    4.09       0.0  T
   2  -5198.6729618 -0.309046E-07  0.491E-04    4.09       3.3  T
   3  -5198.6729617  0.763766E-07  0.152E-04    4.09      10.6  T
     SCC iter.                  ...       10 min, 35.087 sec
     gradient                   ...        5 min,  0.194 sec
 * total energy  : -5104.1079782 Eh     change    :  -0.4697848E-04 Eh
   gradient norm :     0.0018229 Eh/a0  converged?    E=F G=F D=F
   time step     :     1.2500000 fs     power     :   0.4622573E-09
   step length   :     0.0352591 a0     speed     :   0.6823008E-03

........................................................................
.............................. CYCLE   65 ..............................
........................................................................

 iter      E             dE          RMSdq      gap      omega  full diag
   1  -5198.6733699 -0.519867E+04  0.828E-04    4.09       0.0  T
   2  -5198.6733700 -0.249574E-07  0.489E-04    4.09       3.3  T
   3  -5198.6733699  0.537093E-07  0.128E-04    4.09      12.6  T
     SCC iter.                  ...       10 min, 38.357 sec
     gradient                   ...        5 min,  0.577 sec
 * total energy  : -5104.1080260 Eh     change    :  -0.4787787E-04 Eh
   gradient norm :     0.0017005 Eh/a0  converged?    E=F G=F D=F
   time step     :     1.2500000 fs     power     :   0.4860016E-09
   step length   :     0.0363475 a0     speed     :   0.7033637E-03

........................................................................
.............................. CYCLE   66 ..............................
........................................................................

 iter      E             dE          RMSdq      gap      omega  full diag
   1  -5198.6740271 -0.519867E+04  0.844E-04    4.09       0.0  T
   2  -5198.6740271 -0.192931E-07  0.501E-04    4.09       3.2  T
   3  -5198.6740270  0.597347E-07  0.116E-04    4.09      13.8  T
     SCC iter.                  ...       10 min, 34.602 sec
     gradient                   ...        5 min,  2.895 sec
 * total energy  : -5104.1080757 Eh     change    :  -0.4970889E-04 Eh
   gradient norm :     0.0014894 Eh/a0  converged?    E=F G=F D=F
   time step     :     1.2500000 fs     power     :   0.5088824E-09
   step length   :     0.0375899 a0     speed     :   0.7274047E-03

........................................................................
.............................. CYCLE   67 ..............................
........................................................................

 iter      E             dE          RMSdq      gap      omega  full diag
   1  -5198.6742449 -0.519867E+04  0.864E-04    4.09       0.0  T
   2  -5198.6742449 -0.116270E-07  0.508E-04    4.09       3.2  T
   3  -5198.6742449  0.388154E-07  0.954E-05    4.09      16.9  T
     SCC iter.                  ...       10 min, 36.486 sec
     gradient                   ...        5 min,  1.106 sec
 * total energy  : -5104.1081263 Eh     change    :  -0.5053832E-04 Eh
   gradient norm :     0.0015155 Eh/a0  converged?    E=F G=F D=F
   time step     :     1.2500000 fs     power     :   0.5222438E-09
   step length   :     0.0391072 a0     speed     :   0.7567655E-03
 * RMSD in coord.:     0.0064375 a0     energy gain  -0.5482287E-03 Eh

........................................................................
.............................. CYCLE   68 ..............................
........................................................................

 iter      E             dE          RMSdq      gap      omega  full diag
   1  -5198.6742833 -0.519867E+04  0.169E-04    4.09       0.0  T
   2  -5198.6742833 -0.330147E-09  0.994E-05    4.09      16.2  T
   3  -5198.6742833  0.174350E-08  0.206E-05    4.09      78.1  T
     SCC iter.                  ...       10 min, 34.550 sec
     gradient                   ...        5 min,  1.338 sec
 * total energy  : -5104.1081365 Eh     change    :  -0.1018307E-04 Eh
   gradient norm :     0.0014699 Eh/a0  converged?    E=F G=F D=F
   time step     :     0.2500000 fs     power     :   0.5369450E-09
   step length   :     0.0077774 a0     speed     :   0.7525061E-03

........................................................................
.............................. CYCLE   69 ..............................
........................................................................

 iter      E             dE          RMSdq      gap      omega  full diag
   1  -5198.6743342 -0.519867E+04  0.175E-04    4.09       0.0  T
   2  -5198.6743342 -0.914042E-09  0.103E-04    4.09      15.6  T
   3  -5198.6743342  0.288401E-08  0.272E-05    4.09      59.1  T
     SCC iter.                  ...       10 min, 36.082 sec
     gradient                   ...        5 min,  1.495 sec
 * total energy  : -5104.1081467 Eh     change    :  -0.1022865E-04 Eh
   gradient norm :     0.0013778 Eh/a0  converged?    E=F G=F D=F
   time step     :     0.2500000 fs     power     :   0.5387974E-09
   step length   :     0.0077745 a0     speed     :   0.7522279E-03

........................................................................
.............................. CYCLE   70 ..............................
........................................................................

 iter      E             dE          RMSdq      gap      omega  full diag
   1  -5198.6743906 -0.519867E+04  0.179E-04    4.09       0.0  T
   2  -5198.6743906 -0.813088E-09  0.106E-04    4.09      15.1  T
   3  -5198.6743906  0.254749E-08  0.252E-05    4.09      63.8  T
     SCC iter.                  ...       10 min, 36.555 sec
     gradient                   ...        5 min,  2.376 sec
 * total energy  : -5104.1081569 Eh     change    :  -0.1019691E-04 Eh
   gradient norm :     0.0013730 Eh/a0  converged?    E=F G=F D=F
   time step     :     0.2500000 fs     power     :   0.5346698E-09
   step length   :     0.0078152 a0     speed     :   0.7561582E-03

........................................................................
.............................. CYCLE   71 ..............................
........................................................................

 iter      E             dE          RMSdq      gap      omega  full diag
   1  -5198.6744469 -0.519867E+04  0.178E-04    4.09       0.0  T
   2  -5198.6744469 -0.582077E-09  0.106E-04    4.09      15.1  T
[...]
  3617   6 C     3618   6 C                                       1.3897811
  3618   6 C     3619   6 C                                       1.3817331
  3619   6 C     3620   6 C                                       1.3848355
  3620   6 C     3621   6 C                                       1.3829903
  3617   6 C     3622   6 C                                       1.3886817
  3621   6 C     3622   6 C                                       1.3835737
  3616   6 C     3623   6 C                                       1.5399533
  3623   6 C     3624   6 C                                       1.5372917
  3625   6 C     3626   6 C                                       1.3901173
  3626   6 C     3627   6 C                                       1.3837605
  3627   6 C     3628   6 C                                       1.3846414
  3628   6 C     3629   6 C                                       1.3839917
  3625   6 C     3630   6 C                                       1.3890072
  3629   6 C     3630   6 C                                       1.3838898
  3624   6 C     3631   6 C                                       1.5317698
  3631   6 C     3632   6 C                                       1.5320850
  3633   6 C     3634   6 C                                       1.3908027
  3634   6 C     3635   6 C                                       1.3831221
  3635   6 C     3636   6 C                                       1.3849852
  3636   6 C     3637   6 C                                       1.3839356
  3633   6 C     3638   6 C                                       1.3888020
  3637   6 C     3638   6 C                                       1.3839806
  3632   6 C     3639   6 C                                       1.5394322
  3639   6 C     3640   6 C                                       1.5361163
  3641   6 C     3642   6 C                                       1.3903423
  3642   6 C     3643   6 C                                       1.3825829
  3643   6 C     3644   6 C                                       1.3852938
  3644   6 C     3645   6 C                                       1.3836402
  3641   6 C     3646   6 C                                       1.3898759
  3645   6 C     3646   6 C                                       1.3849002
  3640   6 C     3647   6 C                                       1.5365218
  3647   6 C     3648   6 C                                       1.5391288
  3649   6 C     3650   6 C                                       1.3887443
  3650   6 C     3651   6 C                                       1.3841759
  3651   6 C     3652   6 C                                       1.3840741
  3652   6 C     3653   6 C                                       1.3847855
  3649   6 C     3654   6 C                                       1.3901670
  3653   6 C     3654   6 C                                       1.3824982
  3648   6 C     3655   6 C                                       1.5352514
  3655   6 C     3656   6 C                                       1.5364955
  3657   6 C     3658   6 C                                       1.3883274
  3658   6 C     3659   6 C                                       1.3846728
  3659   6 C     3660   6 C                                       1.3840384
  3660   6 C     3661   6 C                                       1.3848448
  3657   6 C     3662   6 C                                       1.3907360
  3661   6 C     3662   6 C                                       1.3823874
  3656   6 C     3663   6 C                                       1.5379829
  3663   6 C     3664   6 C                                       1.5349916
  3665   6 C     3666   6 C                                       1.3906528
  3666   6 C     3667   6 C                                       1.3838048
  3667   6 C     3668   6 C                                       1.3843251
  3668   6 C     3669   6 C                                       1.3838629
  3665   6 C     3670   6 C                                       1.3906457
  3669   6 C     3670   6 C                                       1.3835967
  3664   6 C     3671   6 C                                       1.5387276
  3671   6 C     3672   6 C                                       1.5325575
  3673   6 C     3674   6 C                                       1.3899923
  3674   6 C     3675   6 C                                       1.3830412
  3675   6 C     3676   6 C                                       1.3843747
  3676   6 C     3677   6 C                                       1.3839088
  3673   6 C     3678   6 C                                       1.3892859
  3677   6 C     3678   6 C                                       1.3837313
  3679   6 C     3680   6 C                                       1.5380401
  3681   6 C     3682   6 C                                       1.3896944
  3682   6 C     3683   6 C                                       1.3837483
  3683   6 C     3684   6 C                                       1.3838331
  3684   6 C     3685   6 C                                       1.3849234
  3681   6 C     3686   6 C                                       1.3897970
  3685   6 C     3686   6 C                                       1.3836469
  3680   6 C     3687   6 C                                       1.5361086
  3687   6 C     3688   6 C                                       1.5400875
  3549   6 C     3689   1 H                                       1.0962742
  3551   6 C     3690   1 H                                       1.0935871
  3551   6 C     3691   1 H                                       1.0911798
  3552   6 C     3692   1 H                                       1.0954480
  3559   6 C     3693   1 H                                       1.0905635
  3559   6 C     3694   1 H                                       1.0891788
  3560   6 C     3695   1 H                                       1.0945442
  3567   6 C     3696   1 H                                       1.0932726
  3567   6 C     3697   1 H                                       1.0931033
  3568   6 C     3698   1 H                                       1.0928499
  3575   6 C     3699   1 H                                       1.0905337
  3576   6 C     3700   1 H                                       1.0954250
  3583   6 C     3701   1 H                                       1.0917993
  3583   6 C     3702   1 H                                       1.0898295
  3584   6 C     3703   1 H                                       1.0945931
  3591   6 C     3704   1 H                                       1.0926412
  3591   6 C     3705   1 H                                       1.0925399
  3592   6 C     3706   1 H                                       1.0928887
  3599   6 C     3707   1 H                                       1.0901480
  3599   6 C     3708   1 H                                       1.0923409
  3600   6 C     3709   1 H                                       1.0953789
  3608   6 C     3710   1 H                                       1.0955187
  3615   6 C     3711   1 H                                       1.0896743
  3615   6 C     3712   1 H                                       1.0917643
  3616   6 C     3713   1 H                                       1.0953941
  3623   6 C     3714   1 H                                       1.0925619
  3623   6 C     3715   1 H                                       1.0918049
  3624   6 C     3716   1 H                                       1.0950107
  3631   6 C     3717   1 H                                       1.0909662
  3631   6 C     3718   1 H                                       1.0898663
  3632   6 C     3719   1 H                                       1.0947112
  3639   6 C     3720   1 H                                       1.0920752
  3639   6 C     3721   1 H                                       1.0889259
  3640   6 C     3722   1 H                                       1.0954948
  3647   6 C     3723   1 H                                       1.0925353
  3647   6 C     3724   1 H                                       1.0913353
  3648   6 C     3725   1 H                                       1.0944821
  3655   6 C     3726   1 H                                       1.0903861
  3655   6 C     3727   1 H                                       1.0894994
  3656   6 C     3728   1 H                                       1.0954866
  3663   6 C     3729   1 H                                       1.0945792
  3663   6 C     3730   1 H                                       1.0916603
  3664   6 C     3731   1 H                                       1.0958480
  3671   6 C     3732   1 H                                       1.0921089
  3671   6 C     3733   1 H                                       1.0913343
  3672   6 C     3734   1 H                                       1.0950379
  3679   6 C     3735   1 H                                       1.0923152
  3679   6 C     3736   1 H                                       1.0927982
  3543   6 C     3737   1 H                                       1.0817029
  3548   6 C     3738   1 H                                       1.0806727
  3547   6 C     3739   1 H                                       1.0805103
  3546   6 C     3740   1 H                                       1.0812241
  3545   6 C     3741   1 H                                       1.0800451
  3554   6 C     3742   1 H                                       1.0800731
  3555   6 C     3743   1 H                                       1.0800537
  3556   6 C     3744   1 H                                       1.0802849
  3557   6 C     3745   1 H                                       1.0808749
  3558   6 C     3746   1 H                                       1.0809737
  3562   6 C     3747   1 H                                       1.0814073
  3563   6 C     3748   1 H                                       1.0797216
  3564   6 C     3749   1 H                                       1.0802219
  3565   6 C     3750   1 H                                       1.0812230
  3566   6 C     3751   1 H                                       1.0807121
  3570   6 C     3752   1 H                                       1.0809872
  3571   6 C     3753   1 H                                       1.0805690
  3572   6 C     3754   1 H                                       1.0796377
  3573   6 C     3755   1 H                                       1.0808046
  3574   6 C     3756   1 H                                       1.0799848
  3575   6 C     3757   1 H                                       1.0912023
  3578   6 C     3758   1 H                                       1.0804508
  3579   6 C     3759   1 H                                       1.0812950
  3580   6 C     3760   1 H                                       1.0802015
  3581   6 C     3761   1 H                                       1.0808392
  3582   6 C     3762   1 H                                       1.0808097
  3586   6 C     3763   1 H                                       1.0813464
  3587   6 C     3764   1 H                                       1.0801635
  3588   6 C     3765   1 H                                       1.0800416
  3589   6 C     3766   1 H                                       1.0797145
  3590   6 C     3767   1 H                                       1.0790667
  3594   6 C     3768   1 H                                       1.0817824
  3595   6 C     3769   1 H                                       1.0804545
  3596   6 C     3770   1 H                                       1.0780629
  3597   6 C     3771   1 H                                       1.0806567
  3598   6 C     3772   1 H                                       1.0798777
  3602   6 C     3773   1 H                                       1.0795782
  3603   6 C     3774   1 H                                       1.0806421
  3604   6 C     3775   1 H                                       1.0792536
  3605   6 C     3776   1 H                                       1.0802247
  3606   6 C     3777   1 H                                       1.0822314
  3607   6 C     3778   1 H                                       1.0914162
  3607   6 C     3779   1 H                                       1.0935805
  3610   6 C     3780   1 H                                       1.0811447
  3611   6 C     3781   1 H                                       1.0804150
  3612   6 C     3782   1 H                                       1.0793416
  3613   6 C     3783   1 H                                       1.0812721
  3614   6 C     3784   1 H                                       1.0809833
  3618   6 C     3785   1 H                                       1.0796821
  3619   6 C     3786   1 H                                       1.0800352
  3620   6 C     3787   1 H                                       1.0805650
  3621   6 C     3788   1 H                                       1.0810709
  3622   6 C     3789   1 H                                       1.0819492
  3626   6 C     3790   1 H                                       1.0787316
  3627   6 C     3791   1 H                                       1.0805144
  3628   6 C     3792   1 H                                       1.0812375
  3629   6 C     3793   1 H                                       1.0807010
  3630   6 C     3794   1 H                                       1.0799229
  3634   6 C     3795   1 H                                       1.0799932
  3635   6 C     3796   1 H                                       1.0808157
  3636   6 C     3797   1 H                                       1.0809759
  3637   6 C     3798   1 H                                       1.0806978
  3638   6 C     3799   1 H                                       1.0810389
  3642   6 C     3800   1 H                                       1.0798685
  3643   6 C     3801   1 H                                       1.0813299
  3644   6 C     3802   1 H                                       1.0810602
  3645   6 C     3803   1 H                                       1.0815882
  3646   6 C     3804   1 H                                       1.0817580
  3650   6 C     3805   1 H                                       1.0806721
  3651   6 C     3806   1 H                                       1.0809469
  3652   6 C     3807   1 H                                       1.0803929
  3653   6 C     3808   1 H                                       1.0804891
  3654   6 C     3809   1 H                                       1.0796437
  3658   6 C     3810   1 H                                       1.0808547
  3659   6 C     3811   1 H                                       1.0804991
  3660   6 C     3812   1 H                                       1.0803995
  3661   6 C     3813   1 H                                       1.0805490
  3662   6 C     3814   1 H                                       1.0795889
  3666   6 C     3815   1 H                                       1.0813551
  3667   6 C     3816   1 H                                       1.0803165
  3668   6 C     3817   1 H                                       1.0804418
  3669   6 C     3818   1 H                                       1.0803008
  3670   6 C     3819   1 H                                       1.0807246
  3674   6 C     3820   1 H                                       1.0800728
  3675   6 C     3821   1 H                                       1.0805273
  3676   6 C     3822   1 H                                       1.0800381
  3677   6 C     3823   1 H                                       1.0805367
  3678   6 C     3824   1 H                                       1.0813761
  3686   6 C     3825   1 H                                       1.0803268
  3685   6 C     3826   1 H                                       1.0804173
  3684   6 C     3827   1 H                                       1.0798635
  3683   6 C     3828   1 H                                       1.0813365
  3682   6 C     3829   1 H                                       1.0810546
  3550   6 C     3830   1 H                                       1.0873781
  3550   6 C     3831   1 H                                       1.0877495
  3550   6 C     3832   1 H                                       1.0880799
  3680   6 C     3833   1 H                                       1.0942037
  3687   6 C     3834   1 H                                       1.0920034
  3687   6 C     3835   1 H                                       1.0906527
  3688   6 C     3836   6 C                                       1.5317500
  3837   6 C     3838   6 C                                       1.3899339
  3838   6 C     3839   6 C                                       1.3834120
  3839   6 C     3840   6 C                                       1.3834753
  3840   6 C     3841   6 C                                       1.3840471
  3837   6 C     3842   6 C                                       1.3893746
  3841   6 C     3842   6 C                                       1.3838029
  3838   6 C     3843   1 H                                       1.0812449
  3839   6 C     3844   1 H                                       1.0798897
  3840   6 C     3845   1 H                                       1.0789350
  3841   6 C     3846   1 H                                       1.0811429
  3842   6 C     3847   1 H                                       1.0802504
  3836   6 C     3848   6 C                                       1.5299509
  3836   6 C     3849   1 H                                       1.0911632
  3836   6 C     3850   1 H                                       1.0902760
  3851   6 C     3852   6 C                                       1.3913092
  3852   6 C     3853   6 C                                       1.3839205
  3853   6 C     3854   6 C                                       1.3850722
  3854   6 C     3855   6 C                                       1.3836125
  3851   6 C     3856   6 C                                       1.3892085
  3855   6 C     3856   6 C                                       1.3844462
  3852   6 C     3857   1 H                                       1.0815503
  3853   6 C     3858   1 H                                       1.0812593
  3854   6 C     3859   1 H                                       1.0798501
  3855   6 C     3860   1 H                                       1.0800634
  3856   6 C     3861   1 H                                       1.0819114
  3688   6 C     3862   1 H                                       1.0968797
  3848   6 C     3863   1 H                                       1.0956685
  3848   6 C     3864   1 H                                       1.0922025

 * 2 distinct bonds (by element types)

   Z      Z             #   av. dist./Å        max./Å        min./Å
   1 H    6 C        1944     1.0851096     1.0974984     1.0775185
   6 C    6 C        1859     1.4194998     1.5405920     1.3809601


optimized geometry written to: xtbopt.xyz


           -------------------------------------------------
          | TOTAL ENERGY            -5104.114467384106 Eh   |
          | GRADIENT NORM               0.000982137011 Eh/α |
          | HOMO-LUMO GAP               4.088983728500 eV   |
           -------------------------------------------------

------------------------------------------------------------------------
 * finished run on 2024/10/08 at 12:41:49.333     
------------------------------------------------------------------------
 total:
 * wall-time:     3 d, 17 h, 23 min, 59.767 sec
 *  cpu-time:    23 d, 17 h, 59 min, 53.728 sec
 * ratio c/w:     6.376 speedup
 SCF:
 * wall-time:     0 d,  0 h, 48 min,  1.039 sec
 *  cpu-time:     0 d,  5 h, 46 min, 53.160 sec
 * ratio c/w:     7.224 speedup
 ANC optimizer:
 * wall-time:     3 d, 16 h, 34 min, 46.421 sec
 *  cpu-time:    23 d, 12 h, 11 min, 26.820 sec
 * ratio c/w:     6.369 speedup

