3536
 energy: -3716.259289156917 gnorm: 0.000850641808 xtb: 6.6.1 (8d0f1dd)
C           58.14389624440108       58.38385310689253       69.60749835268415
C           57.93066577952327       59.89535082378057       69.52994731050272
C           59.27099306304456       60.59822968686449       69.33013280405828
C           57.21645399543463       60.36962866541981       70.80081093361453
C           56.73041906782925       61.82655321274520       70.80798699968099
C           56.34530145649269       62.21069138704485       72.23714035927443
C           55.54637293874217       62.01449982059781       69.85274661778186
C           55.15944730079711       63.47353095041013       69.57345888981081
C           53.81548372740968       63.50493416125904       68.84456261484333
C           56.23858606215425       64.21042477190674       68.75715956671094
C           56.69248987136106       65.53960375934805       69.37067219464987
C           55.53701006658975       66.53850929079668       69.44771879468144
C           57.82579266071677       66.18003021301610       68.55531491176986
C           59.15512871939394       65.41462499040171       68.48207591563686
C           59.78420113987099       65.25063833664284       69.86278696574890
C           60.08907647321628       66.17549946325477       67.52902703185929
C           61.46439528114164       65.54853719475501       67.24784233959949
C           62.19488721413464       66.43618201630541       66.23952553106182
C           61.30431346388840       64.11638810266955       66.72965607958810
C           62.56940917452386       63.40498295390334       66.23031133425036
C           62.15471384190023       62.02098381168204       65.73800990429696
C           63.63510196225221       63.31368290199501       67.33026129377924
C           64.83840907298318       62.40693352903325       67.02479819609069
C           65.75460433663821       62.36555533914795       68.24777249723218
C           65.59618595906080       62.88488471526531       65.78099857199537
C           66.70164978764979       61.95303232615804       65.25686707006253
C           67.41143860921044       62.65035498808581       64.09498308116883
C           66.11382293834093       60.60156806956675       64.82800906016766
C           67.06233618225919       59.62832783959693       64.11147450960516
C           66.25601147251082       58.42061700082979       63.63450281230461
C           68.20705460796243       59.20074792990262       65.03753217888058
C           69.32436376345385       58.35793165895944       64.40397435483925
C           70.22997370983107       57.82622013456158       65.51458234032462
C           70.11965623402662       59.18051228435369       63.38374559711048
C           71.19189978820683       58.39211200911306       62.60856360293432
C           72.59545714686138       58.74632242891600       63.10166989157356
C           71.10210864190867       58.66263083977020       61.09865119712349
C           69.94656679788280       57.94162637732926       60.38912480732692
C           70.27525909780798       56.45784766863468       60.22517314106712
C           69.66541950540039       58.56958595049130       59.01000646578852
C           68.42075688524990       59.46501818248567       58.90824756408275
C           68.50771129024091       60.67777465913366       59.83422248997620
C           67.10010489073231       58.72684624004035       59.16569497911726
C           66.80168165105943       57.53433997481999       58.25114882976727
C           66.88271866556698       57.92972349715073       56.77642311567803
C           65.40042165756211       56.96744981631537       58.52665226306186
C           65.15482052340903       56.28090016631853       59.87980410530898
C           66.03515303932294       55.04581259229175       60.03256151886819
C           63.66308134370355       55.91674971672685       59.93739957582023
C           63.17803476656532       55.05732336340829       61.11521917130389
C           61.68748344087479       54.78934062711900       60.91415944725595
C           63.45211256279380       55.74208961324150       62.45981420724443
C           62.82151009538467       55.09514767439151       63.70468150820869
C           63.14910849092185       55.96257973052280       64.91854419631366
C           63.32449732603988       53.66231703503751       63.91074368392655
C           62.70784673544908       52.88124710521240       65.08405308144285
C           63.44575836807878       51.54814364505965       65.21309116799287
C           61.19416882418107       52.70973985046783       64.87705321708985
C           60.47129856278214       51.66288657183115       65.73909993546314
C           58.99738534721445       51.62806526052601       65.33314108677058
C           60.61049678419089       51.96581995894205       67.23535235946503
C           60.20140426215184       50.83364283607266       68.19337706792447
C           60.18358894563299       51.39630636043827       69.61524458874770
C           61.17531938933117       49.65366763392329       68.08038745323452
C           60.84292873615642       48.38679919338998       68.88610706712147
C           62.15303314412900       47.67704443535899       69.24137418660622
C           59.94727032726109       47.39289314121655       68.13009601091248
C           58.45104148541407       47.71808778935792       68.02228941960119
C           57.83112099071829       47.94049561231573       69.40023886630973
C           57.75521117707768       46.55403653852424       67.29794984902530
C           56.32815613839945       46.84905961942121       66.81618129435662
C           55.58518922220136       45.53862052228260       66.55714933539414
C           56.33070878134266       47.71762023016019       65.55256482282307
C           55.04750437630157       48.54127213151474       65.37741996091961
C           54.94358300797541       49.02078574340626       63.93126935497311
C           55.03038313894458       49.73161154242440       66.35325184388586
C           53.68299971821912       49.99677590239507       67.03279822524139
C           52.56986745300284       50.22939886527534       66.01310355818822
C           53.75615296506786       51.23496341016658       67.93931000423427
C           54.78525508067565       51.21075506517197       69.07410613965047
C           54.47444262268723       50.09809620987837       70.07502142628192
C           54.80412070936625       52.55495414309828       69.81923961894560
C           55.24785696666159       53.77660944109584       69.00550981695019
C           56.67612237147860       53.61106956109763       68.48750116858575
C           55.17144807698963       55.05943937120820       69.84747189293539
C           53.78944676176123       55.42937955044778       70.40064082232409
C           52.73239775313669       55.47837027668616       69.29833420736745
C           53.83081198951521       56.78998111285034       71.10972457986564
C           54.74247252841437       56.84109499993272       72.33425730262016
C           54.52269956800038       58.11746992910257       73.13889579920934
H           58.75763994025688       58.13085110640055       70.47007444001348
H           57.19201457675724       57.86562904509185       69.70391625697935
H           58.64459343204633       58.01975595867987       68.71400995603096
H           55.20272708867086       58.16031407550645       73.98661948109945
H           54.69547434356811       58.99363699164805       72.51740642749179
H           53.50260464293655       58.16397903556488       73.51530848521911
H           54.13987223158414       57.55868633627488       70.39684816729330
H           52.81438967776970       57.03286819958567       71.43278964307569
H           55.86720974666923       54.95803161240659       70.68336198456917
H           55.51890797509886       55.89080288923069       69.22774871991724
H           54.58858963769733       53.89845285724485       68.14299769975101
H           56.74318328633478       52.79534334844396       67.77344221299079
H           57.00817825922512       54.52100819472390       67.99164699109626
H           57.35716524966162       53.40743639481651       69.31172560694095
H           53.79859760995176       52.73181471876163       70.20658605161626
H           55.47240006668160       52.46199252841993       70.68049667062694
H           53.96857869412815       52.08791059450874       67.29397968923750
H           52.76860452260526       51.39536206981620       68.38280233162881
H           53.48790615588943       54.68045854892820       71.14175852206974
H           53.03987321853703       56.16614976908169       68.51397084435287
H           52.57315845499006       54.49637899195543       68.86116960434144
H           51.78301329311179       55.82499490308880       69.70291353516232
H           55.78075353645976       51.02819630102854       68.66288474467800
H           55.20409519490684       50.09385696784818       70.88255508139143
H           53.48610138608429       50.24025614375675       70.50903263124039
H           54.49763682045354       49.12264476419328       69.59601073227512
H           53.41480122202265       49.11969822326966       67.63321107964427
H           52.82310514031174       51.06226192012718       65.36133177702914
H           52.40280123629479       49.34658231405755       65.40287878381758
H           51.63945812464114       50.46435139085074       66.52493438172745
H           55.77016348720066       49.55177368094274       67.13408606108422
H           55.33405171614813       50.63387968511126       65.81997622785310
H           54.19337617116925       47.89004305698107       65.59069669298894
H           54.91000844270373       48.17407158464158       63.24777530795529
H           54.04954506578549       49.61696794676690       63.77981581075972
H           55.80918662523688       49.63038398669468       63.67954349725212
H           57.17749995978780       48.40609763065451       65.57574665746729
H           56.46935391259808       47.06641305845434       64.68595442452559
H           55.79081498257293       47.38171877307625       67.60621603582270
H           56.11802585349095       44.93750132961486       65.82335990587357
H           55.49654998926423       44.95706048596919       67.47262034585611
H           54.58333784039473       45.73026344822775       66.18007179464088
H           58.35488880044202       46.26050038364521       66.43276383616112
H           57.72926283442796       45.69963652392681       67.97957135057526
H           58.32392951338758       48.62691395634184       67.42759704552017
H           58.08967488512316       47.12079433180885       70.06842941841711
H           58.17761616603001       48.87077132667155       69.84200636170220
H           56.74784377237336       47.99457554823831       69.33623438072895
H           60.34808427428686       47.26476731507918       67.12115624221643
H           60.02705209793635       46.42377601840825       68.63282289119897
H           60.35870135466025       48.66040112972879       69.82526697743785
H           62.79650866251752       48.32645863378027       69.83207542816213
H           61.96363820610031       46.77479105430864       69.82017858426498
H           62.68492993060703       47.39741836370413       68.33430017325348
H           61.26930674374106       49.36286364034890       67.03298099864794
H           62.15537992080014       50.01733314224450       68.40373172547986
H           59.19077991121609       50.49999248983737       67.94780595635224
H           59.49996218722475       52.24015098973712       69.67978785722313
H           59.86303047540900       50.65203976082105       70.33988835993000
H           61.17677191733073       51.73960843484292       69.89993682910013
H           61.64682656737703       52.22551013709249       67.45826622851081
H           60.00132856874176       52.84564301990969       67.45974502932417
H           60.90148427968406       50.68239914374669       65.52087097626786
H           58.53180349851510       52.59638523094843       65.50725013975857
H           58.89497396403348       51.38264832960690       64.27818568851742
H           58.45195149846833       50.87961833287046       65.90285700048565
H           60.71543249242516       53.67592888772013       65.05128236600115
H           61.02348131965374       52.44446712425572       63.82929499124710
H           62.87886545625693       53.44159405691194       66.00852957257452
H           64.51637689447770       51.72538498762680       65.30319509750009
H           63.12546055310087       50.99905991353339       66.09410894698149
H           63.28129374044283       50.92709242595022       64.33676226594450
H           63.14652495419728       53.08704699461943       63.00024149350207
H           64.40567403705901       53.70560341876546       64.06336277219721
H           61.73673091306031       55.08433302553859       63.57857639502753
H           62.87306039757542       56.99872183544780       64.74108961049967
H           62.61612972727136       55.62029190842984       65.80224040856228
H           64.21649832462505       55.92998028896288       65.12345869486781
H           64.53163286665654       55.80006895224020       62.61381013167591
H           63.07903351766439       56.76795301276368       62.39762617579973
H           63.70430207451874       54.09876857574004       61.08357945429876
H           61.11816749016075       55.70622684230899       61.04543981442023
H           61.50013763749629       54.41733417391548       59.90893109659377
H           61.31764034888852       54.05009778727231       61.61813552637874
H           63.08318573881798       56.84515720294620       59.93019510493908
H           63.42144583994180       55.37649820366408       59.01700714665694
H           65.38212001342201       56.98057061568247       60.68975549092538
H           67.08472170186182       55.31080706551644       59.94358839847424
H           65.89781254274395       54.58464794663038       61.00624211088929
H           65.79524351525181       54.31377355904517       59.26454574443840
H           64.68050588211153       57.78361039103833       58.41738945659706
H           65.17564334631896       56.23468448086555       57.74711869526580
H           67.54212059217221       56.75022721793371       58.43126203892670
H           66.57309941679537       57.10038365040753       56.14428275572486
H           66.22648585856643       58.77282040869132       56.57085724451285
H           67.89488120529197       58.20526449165427       56.49105105236963
H           67.07940909170937       58.38862451430442       60.20266929878135
H           66.29350324340446       59.45457380382550       59.04942735765822
H           68.40092416779484       59.85082934729073       57.88212398776901
H           67.67104130173153       61.35071688388498       59.65618497803852
H           68.47558119538373       60.37495907116246       60.87723737391219
H           69.42902920796017       61.23109978177971       59.66253504411613
H           70.53353077320794       59.16186597273464       58.70679807190147
H           69.56371934845662       57.77340337514639       58.27122778680384
H           69.05137441169255       58.02129387060610       61.01128179388564
H           70.49436843299493       55.99659547299211       61.18584403315261
H           69.43833040528334       55.92473769894481       59.78043785713533
H           71.14298424641994       56.32898773974272       59.58004348518924
H           71.01092562446250       59.74050979412410       60.95079997627805
H           72.03770959585835       58.35070974508900       60.62551378445134
H           71.03465028430617       57.32269627577623       62.77855728949007
H           73.34307939526471       58.12124687682304       62.61620770820819
H           72.82332700485230       59.78658325699191       62.87470399282322
H           72.68035360128323       58.60494996380062       64.17602990869585
H           69.41474454549861       59.60203325481911       62.66814352268856
H           70.59057533742870       60.02085318187601       63.90028637231740
H           68.88152732374807       57.49906777646888       63.89021434391215
H           70.71885540091142       58.64866450426094       66.03427590297268
H           69.65015031879005       57.26448251952559       66.24464793527521
H           70.99610425692268       57.16663039813638       65.11512841634101
H           68.67063471861573       60.09112546449360       65.46801697075593
H           67.77165481574202       58.63059713155050       65.86318352230894
H           67.46984871019359       60.13045877437229       63.23033345572043
H           66.87556263876684       57.73583226234803       63.06190971326748
H           65.84013825401998       57.88201290407582       64.48352736453558
H           65.43036964692860       58.73624919399786       63.00130902239205
H           65.72055423525389       60.09389789195919       65.71159055184332
H           65.27229725025178       60.80053245120792       64.15858803321395
H           67.43244794423205       61.79466294354192       66.05569243290805
H           68.30474607129139       62.10924361565412       63.79481942932893
H           66.74829133843407       62.72962649308803       63.23611244792168
H           67.71355354749964       63.65520215966168       64.38421435508596
H           64.88500567638752       63.03889757926427       64.96794886321258
H           66.04309693728833       63.85721741777832       66.00920972366998
H           64.46562124318157       61.39548540615272       66.85684888694455
H           66.18836124515252       63.34601003557189       68.43762151026907
H           65.19510137526876       62.06481357410680       69.13167659198704
H           66.56439298197469       61.65434939310310       68.10551791059021
H           64.00700625995792       64.31678698256570       67.55280875001696
H           63.15477375610337       62.93596523733665       68.23789326932420
H           62.97145392002748       63.96491585173926       65.38120412713393
H           61.32097029579646       62.10771817542051       65.04663158873849
H           62.96976270538141       61.52342205160107       65.22279956210387
H           61.84147517131751       61.40165483052650       66.57594514540487
H           60.87555255187430       63.50314407287611       67.52528914554310
H           60.58652888435672       64.13709806444503       65.90601001353764
H           62.04580521751863       65.53666407548683       68.17486161866843
H           63.22404256941225       66.11587784221562       66.10176054268520
H           61.69051039574759       66.40582020477969       65.27572787026361
H           62.20792673952963       67.46874185357193       66.58370264250925
H           59.57487502226815       66.29241435665766       66.57073467146847
H           60.24710892323088       67.17891235750695       67.93505383111325
H           58.96262786565159       64.42439593225758       68.06115459918850
H           60.72080803104363       64.70278449929133       69.79820222001977
H           59.98523190053361       66.22383347503506       70.30658943423994
H           59.12352094167905       64.70064932294635       70.52845745356416
H           57.45863792917813       66.33034149188065       67.53628658411886
H           58.03000189538845       67.16931284713188       68.97509556541816
H           57.04485271415177       65.35286189167901       70.39089908321115
H           55.15661518311536       66.75168352278111       68.45085657479682
H           54.72037667202077       66.15375908505402       70.05238104909620
H           55.87142792098912       67.47430715411976       69.89176376237680
H           57.10910348994926       63.56354798677228       68.65648799812845
H           55.86577324009919       64.40233657672655       67.75012308654944
H           55.03169756769671       63.98044383711652       70.53438578456189
H           53.87426452767761       62.93494943655155       67.91949832719196
H           53.03047540746878       63.07231866270637       69.46209713596886
H           53.53120332904913       64.52484906086087       68.59973869554643
H           55.77106463469800       61.53727372621208       68.89777462087085
H           54.68270387409034       61.49848352084878       70.28150015809815
H           57.55276522015257       62.47689981563842       70.49648007247974
H           57.19225951148373       62.08302503031230       72.90856076741356
H           56.02710235797692       63.24850250387989       72.29459740252486
H           55.53019187373963       61.58359271316919       72.59411617445822
H           56.35187010399448       59.72301675027101       70.97293758049480
H           57.89866970318180       60.22619798987914       71.64340904308372
H           57.29983802318921       60.10408474363992       68.66051975751864
H           59.14245465310029       61.67186520043268       69.21465454033800
H           59.92396269353920       60.42240931581977       70.18318820975018
H           59.76321358124662       60.21922852916283       68.43687647800748
H           54.54285315104566       55.97531581591353       72.97089841549278
H           55.78790255144936       56.79351536764757       72.02504574059530
C           60.09492207515241       68.82241799762421       40.12983333067504
C           60.41338691621098       67.33273041817718       40.24015916455981
C           59.84293020649902       66.59189931485267       39.03134580245459
C           59.85269482392353       66.73673804249746       41.53730367911128
C           60.61313463985250       67.12026651544173       42.81460769711978
C           61.98423897282549       66.44643196003962       42.84425346602529
C           59.78339157317513       66.70947924939260       44.03857748563431
C           60.31673810492975       67.21485163820171       45.39230732297585
C           60.42275253563238       66.05442490878674       46.38165987415492
C           59.42667191630026       68.30074183056669       46.01096944445701
C           59.32584206079301       69.61798875589608       45.23690930329315
C           60.69045071122326       70.29885026144353       45.11550869797832
C           58.37276797198776       70.59651567152657       45.94225026237232
C           56.90571813745752       70.17034605506279       46.10369587278763
C           56.24563466030711       69.91680799379866       44.75164678042150
C           56.18163531337674       71.27551728945934       46.88878762446701
C           54.72596821111099       71.00823866871404       47.30247550681944
C           54.13927626768358       72.30187309434524       47.87048699650207
C           54.63964659751301       69.87282843391094       48.32775164656081
C           53.22935540270238       69.33525568303655       48.60377683236190
C           53.25253520559203       68.45993439620069       49.85707970078302
C           52.67977282656189       68.53073183839903       47.41852350504600
C           51.14669316003474       68.51287503867985       47.35884814319986
C           50.67442346770139       67.31028879281484       46.54566325395325
C           50.61071174043657       69.81754593404389       46.75297103328587
C           49.17065652629611       70.15624275441965       47.16759927226077
C           48.53586843617231       71.08063266828819       46.12986368477396
C           49.15691462127775       70.80264409944752       48.55855551619814
C           47.78621134316756       70.85247002091944       49.24754298672307
C           47.88311246041559       71.71764064400034       50.50533565739509
C           47.26693462359167       69.44552632465799       49.59656689195503
C           46.10439200858908       68.96379800112791       48.71903164677747
C           44.80433612443163       69.64275906392369       49.14819569248220
C           45.95476093490940       67.43791077533795       48.80320699341139
C           46.97116255728243       66.66544074457093       47.95519913810300
C           46.58539105770168       66.71550560924445       46.47676875158650
C           47.08205629548636       65.19682703716077       48.38200828778957
C           47.70571626633171       64.91990435327951       49.75625411248593
C           49.11168439375193       65.50361400928347       49.86059597689511
C           47.73111302300157       63.40098869352675       49.97834566741407
C           48.12132733846534       62.95994704177352       51.40072493115782
C           49.47456501001878       62.24790239883584       51.39829654283414
C           47.07597155159724       62.02385863043064       52.01877636308681
C           45.70324984741963       62.64157157380740       52.32436563182774
C           45.84274151265458       63.81251725600909       53.29406106790593
C           44.79087300377812       61.54441798300157       52.90515728310828
C           43.30032394996142       61.57298404274300       52.52206342682348
C           43.10686191951381       61.43116897681517       51.01348285761143
C           42.58570128224486       62.81216856679743       53.06911484714006
C           41.04930561548922       62.79720638768051       53.00717354332239
C           40.54246459125286       64.18912221714871       53.38480692781931
C           40.47429109001493       61.72491768792499       53.93853400507952
C           38.95690633403407       61.51160886866218       53.86549880244917
C           38.53885040365766       60.54412607171057       54.97239723929482
C           38.51129601513426       60.99501231863122       52.48340824961878
C           37.49680415592381       61.91108030292663       51.78902129187902
C           36.11789148885994       61.75511934703925       52.43004848986967
C           37.40082513493420       61.62613833456683       50.28363605795480
C           38.57844285643206       62.13499234568284       49.44309455413131
C           38.64400333749244       63.66266587598120       49.44255248485549
C           38.45669755723933       61.64333103464369       47.99305706231252
C           38.86167793925322       60.18487959373653       47.72690741423678
C           40.37215030772723       60.01582185963037       47.85929334887032
C           38.37382657810766       59.82395605714134       46.31411255010389
C           38.85005476608841       58.49125114586909       45.71929527567416
C           38.36712239014086       58.40538870519112       44.27069304113073
C           38.35915188670535       57.29864436455742       46.54777143465813
C           38.73893564987113       55.90779500080716       46.01230301870574
C           38.06331297819500       54.84313602829832       46.87623193242698
C           40.26126619488345       55.73080903325877       45.98632260772099
C           40.80205408476630       54.40925968847280       45.41624352527193
C           42.32837047995893       54.45297249282034       45.48016434593526
C           40.30442068897432       54.19583511057515       43.98037748102793
C           40.90892320691854       53.01889028314626       43.19960749095448
C           40.40794111743329       53.08718517442610       41.75551539191073
C           40.54332263236295       51.66986898302118       43.82977413686604
C           41.39116997402321       50.48168353115484       43.34480418044016
C           40.63400983051457       49.18046809133514       43.60598278639689
C           42.74720776689423       50.47973398930171       44.05905090961297
C           43.81073128008169       49.51636885474566       43.51080601647525
C           44.93133029773017       49.39548513067564       44.54194112231512
C           44.35504552382449       50.01978212403066       42.16853589380410
C           45.33962539798503       49.08415415215309       41.45361949799507
C           46.07727968359183       49.86796563413651       40.36778519545862
C           44.62627116326345       47.87126047755604       40.84388037982700
C           45.57588459316112       46.71927280664463       40.46039936144909
C           45.34961168027518       46.29173434241872       39.00991249052549
C           45.41482931066634       45.50525703350254       41.38420669858532
C           45.82711981702196       45.77482707163186       42.82914339922346
C           45.69692776617932       44.52713336944259       43.69459597621830
H           59.01779959710155       68.97784948619604       40.11725021862084
H           60.51264831845504       69.37612674494650       40.96679998300851
H           60.51027228228371       69.23402132453792       39.21218252674512
H           44.67133755891931       44.16359595869444       43.69035383673509
H           46.34117192168129       43.73193545552820       43.32393841913180
H           45.97540961449236       44.74474162950840       44.72354533889693
H           44.37380402463638       45.17120998783247       41.36011270536304
H           46.02753392957717       44.68686658721678       40.99556736550220
H           43.88094605618141       47.49790610115744       41.54684696890203
H           44.08249395407190       48.20707150415313       39.95775530468686
H           46.08119857149494       48.72728524677188       42.17303640059352
H           46.75763449225646       49.22501584991309       39.81469928524213
H           45.36828716787645       50.29994710999991       39.66379581809176
H           46.65708552421629       50.67653693600992       40.80773286987908
H           43.52200143914778       50.21381303378769       41.48912830274418
H           44.85647975334426       50.97347785989321       42.34899321147583
H           43.16712103242300       51.48742771448937       44.02885220864836
H           42.56499941792470       50.23597213428028       45.10859518817524
H           46.61111122015570       47.06657806721363       40.54991405541056
H           46.04397098695581       45.50281477254038       38.72684001971919
H           44.33629877380247       45.91710516306627       38.87790819521713