3258
 energy: -3427.591928301160 gnorm: 0.000710993795 xtb: 6.6.1 (8d0f1dd)
C          124.50282841681071      116.65318662161668      124.76115954383835
C          124.14815115280379      115.49457493731715      123.83710720865653
C          124.24992892937910      115.88815274081131      122.36568398048128
C          123.93721211391295      114.72028207062866      121.43392407524705
C          123.92223691887439      115.14047621611159      119.96640947086370
C          123.58026349794945      113.97726225423276      119.03929796063112
C          123.62723335042011      114.37348469582297      117.56586095984244
C          123.33227277074276      113.19066297233050      116.64685697013944
C          123.47686600777273      113.54893041247445      115.17058528859539
C          123.15130157542596      112.36801645764528      114.26043497610041
C          123.27183129876990      112.72861692607900      112.78248201907282
C          122.89834750951144      111.56053630589588      111.87355805515701
C          122.94322793441158      111.94173964919467      110.39664173664094
C          122.50341763698009      110.79499132411887      109.49000323219103
C          122.61510564297244      111.16277861576506      108.01245630230727
C          122.16386869436913      110.02437577072561      107.10013686546377
C          122.45185676842031      110.28198156103281      105.62057226401825
C          121.70993636606019      111.48957033220127      105.05264892423526
C          121.93200350655894      111.63683517520779      103.54952190970589
C          121.17567939364143      112.83444737345138      102.97883109007508
C          121.41878869899712      113.05005707075937      101.48453964538037
C          120.76124226889318      111.98609064856738      100.60885642528019
C          121.08275655002215      112.18651218829099       99.13065476437318
C          120.41756852673986      111.15532999385191       98.21776077539000
C          120.98034697654697      109.74530265433982       98.38086350383249
C          120.40616361207010      108.74764272578666       97.37396975129015
C          120.81662993362914      109.03609239151220       95.92894257036610
C          120.60377082135778      107.84089973464562       94.99608666212225
C          121.67965339079036      106.76806163421607       95.14985893684916
C          121.45831380397468      105.58131840286740       94.21544996617273
C          122.52341821670278      104.50487761498370       94.40983959899310
C          122.26413046992663      103.27317473507610       93.54555014095909
C          123.38767753551414      102.23474456686404       93.61023260815075
C          123.68988350724555      101.69152712902043       95.00896444464607
C          122.52619697458066      100.92255678268442       95.62936398164408
C          122.83308189560913      100.48384443576391       97.05924219902728
C          121.63336910039938       99.86024029329630       97.77357280473311
C          121.18040884195935       98.53962073798270       97.15065638211128
C          120.28260180772541       97.71434767010109       98.07470858960556
C          118.89174604065387       98.31426619450936       98.27132058300303
C          118.06506865796446       97.56602641527259       99.31949802264663
C          117.62684501003167       96.15875931170609       98.90813849851220
C          116.45611077116908       96.16685597002797       97.92863681670579
C          116.08863033328807       94.76330358425444       97.45356549023525
C          114.83954474098887       94.76436132833749       96.57509490064339
C          114.50723217540479       93.36866625901651       96.05455313716828
C          113.34673556655076       93.35282182878454       95.05823365225767
C          111.98112103861001       93.71412344998258       95.64503813357206
C          111.50784211694030       92.73710624043188       96.72078672974978
C          110.01120920705212       92.86631755991291       97.00135334761622
C          109.55362950534143       91.88647526410506       98.08164947090337
C          108.03633581232465       91.70020246503749       98.13881476079651
C          107.24158357262840       92.95410438026646       98.50614929178302
C          107.55199093607456       93.47263973520978       99.90970328890860
C          106.50488107645262       94.45815499632285      100.43013774889872
C          106.42498867270866       95.74661642190611       99.61536708288797
C          105.47186465197387       96.76045515561364      100.24488551002331
C          105.31871070193408       98.00526897611667       99.37291540862817
C          104.55845937663874       99.13925307540251      100.05936422268951
C          103.08275202469231       98.82896564467151      100.29269456804948
C          102.30389541293354      100.02145206928660      100.85334595076718
C          102.83491443094206      100.58121624267220      102.17434159625651
C          102.82300766591253       99.57206824594033      103.31750706776083
C          103.44864747468483      100.13851024372292      104.58748186509995
C          103.38777748957835       99.14829747862136      105.74715100133736
C          104.21732310868023       99.62835883681852      106.93280272504468
C          104.12859924620662       98.68688153553585      108.13221600307710
C          105.21003594624852       98.95235836608552      109.17876277484316
C          105.13780745273073      100.35060892702661      109.78287678785036
C          106.27135933992993      100.60944695601451      110.77009002502842
C          106.16349163489535      101.99398091138222      111.40016863274037
C          107.35046129625466      102.31836935070871      112.30023074797379
C          107.19172393909759      103.67289714085878      112.98218672077270
C          108.41013446918500      104.05309534259698      113.81592777256566
C          108.22046748347340      105.39182507063903      114.52138364365658
C          109.46127667058740      105.82077484097650      115.29715165791231
C          109.23799968516228      107.12308262888040      116.05912115694346
C          110.49251369179584      107.58042767702787      116.79625842281473
C          110.25777647101272      108.85751938864844      117.59606200002094
C          111.52384393336574      109.33604814468592      118.30020288472720
C          111.29168541518884      110.62104282372367      119.08784106346243
C          112.56584336215148      111.13567026471466      119.75140499578372
C          112.30977703133217      112.40777596635384      120.55264178313149
C          113.56834955126637      112.95217787622967      121.22270762736065
C          113.26354676477825      114.20607475064298      122.03686588601269
C          114.48392950024035      114.76624096814676      122.76136963158852
C          114.15228865523834      116.06376416594628      123.49420526495184
C          115.35803162834063      116.64763766892371      124.22568561069097
C          115.08281769996107      118.00236656472055      124.88431294196646
C          114.67581420165965      119.11280417267275      123.91379775289263
C          115.78051249770469      119.48167748510373      122.92381561930247
C          115.26614245526881      120.19229725374728      121.67169980013438
C          114.43284938720176      119.30537342898633      120.74404706213795
C          115.20879277048374      118.16136641868115      120.09552364452423
C          114.29484650929828      117.29475469810188      119.23243839551257
C          115.01873046145933      116.09891382088060      118.62215051615465
C          114.07976064429654      115.21869793819447      117.80111776202288
C          114.78683167016365      113.98360880723503      117.25354199543888
C          113.86780192322165      113.09975924224410      116.41573194021413
C          114.58817311357745      111.85746780238733      115.89968905626586
C          113.68024868411003      110.95782899770259      115.06638075914977
C          114.42771963602057      109.74036029363486      114.53172137417465
C          113.53946179867071      108.81806141141551      113.70273479049972
C          114.32832091492880      107.66125491441828      113.09571547795791
C          113.44434344887901      106.71770202088058      112.28648699441761
C          114.24707598834375      105.61584624722036      111.60000984786791
C          113.34419361005327      104.61764064230580      110.88260670600265
C          114.12601493604551      103.48507457307825      110.22170271842876
C          113.19466472776038      102.45374964837436      109.59184845279215
C          113.93783772749426      101.25343345627961      109.01025179126040
C          112.96770481272513      100.17476951889834      108.53777752722291
C          113.66344466136351       98.95772846895156      107.93560078359039
C          112.66719619601275       97.84383251783316      107.62700076181090
C          113.32329593641654       96.60725287864335      107.02181533192378
C          112.31202486408421       95.48515981415591      106.80539626759925
C          112.95417971144492       94.21835281371376      106.24885139746719
C          111.93360428271482       93.09951544077788      106.05886164627471
C          112.57175824815478       91.81043219481138      105.54960598974290
C          111.54145304344726       90.70278418600761      105.34619933265979
C          112.17955652891735       89.41800661507045      104.83231192824974
H          111.03690938977552       90.50357400766582      106.29444497801734
H          110.78541464284095       91.04211099027745      104.63405276421854
H          113.08134951507482       92.00479539050660      104.60198885952894
H          113.32882392428179       91.47164397830539      106.26208506651459
H          111.43534960051042       92.90094402125919      107.01013950720734
H          111.16732301061110       93.42417595153761      105.35108457831095
H          113.43257420227859       94.44354307064749      105.29283702626812
H          113.73647240248901       93.87864710981850      106.93338281617555
H          111.83052934832074       95.25162749756797      107.75839572615065
H          111.53484325512557       95.82651079963864      106.11699831629286
H          113.78884705798751       96.86727385282339      106.06795143869194
H          114.11638762260833       96.25537966840641      107.68587215685353
H          112.15928171020931       97.55627537788749      108.55123413806307
H          111.90504559358985       98.21851420939024      106.93972345104552
H          114.18383560818965       99.24774002680427      107.01972588958856
H          114.41421724639532       98.58407500124271      108.63554260565175
H          112.36035923344792       99.85074641855014      109.38662617701031
H          112.28550187633454      100.60059669505145      107.79940486683304
H          114.56581421041844      101.57748681639814      108.17668095714022
H          114.59869545019292      100.83222049607946      109.77188816413441
H          112.49056190606807      102.10301405688539      110.35042092247886
H          112.60735231625026      102.93216447929424      108.80446265180588
H          114.79197125418162      103.89319371041206      109.45723264603646
H          114.75268353699263      102.99354957450471      110.97137496620569
H          112.64079164954900      104.19230811978923      111.60250497231549
H          112.75675762392990      105.14263366778349      110.12615542899553
H          114.94036355878052      106.06235978850519      110.88187650633000
H          114.84770273086636      105.08735892016860      112.34549097760707
H          112.70360236882949      106.26290922518228      112.94907926276582
H          112.89985041241782      107.28996593342528      111.53254454013181
H          115.11674306606071      108.06057794541206      112.45051182523551
H          114.81454159250258      107.09885499758286      113.89711314867411
H          112.73804860509402      108.42072520300505      114.33124430933447
H          113.06986839588242      109.39281201993884      112.90209601488226
H          115.25946073659347      110.08394613223470      113.91159356437797
H          114.85170004575734      109.17845539055790      115.36881134209705
H          112.83254962695327      110.63254861710772      115.67393131279778
H          113.27843857274068      111.52876084707815      114.22692530139423
H          115.44555493500063      112.16295836219093      115.29275667740794
H          114.97993149152704      111.28709168284360      116.74712026984261
H          113.00692559515022      112.79677131145220      117.01584438343444
H          113.49043031326080      113.67339045343397      115.56594353348402
H          115.63898024559333      114.29689160032912      116.64588062894667
H          115.18020340210872      113.40021420092296      118.09011345425475
H          113.24071624061216      114.90542241170299      118.42648908123857
H          113.67312287806331      115.80134319581767      116.97034291650364
H          115.83487467215284      116.45213754746254      117.98638398750084
H          115.46120094025302      115.50122117361146      119.42376901849698
H          113.46637293879732      116.93137516805479      119.84565285377843
H          113.86425076675907      117.90269553771685      118.43184263202271
H          116.01954027925848      118.56588306387816      119.48491421002566
H          115.65669740216529      117.53168084739148      120.86573717725190
H          113.58848551148813      118.88941650896527      121.29600115939799
H          114.01334225029927      119.93285340131325      119.95245377788669
H          114.65906965091331      121.05000734013205      121.97623210244164
H          116.12333569225844      120.57722105884837      121.11403187710012
H          116.50227284939417      120.12900167462600      123.42655183824355
H          116.31463106312148      118.58428357286013      122.61538568393262
H          113.77985693098496      118.80275965847432      123.37768048532200
H          114.40569757421854      120.00132459402452      124.49081168590685
H          114.28506605932422      117.87182090130450      125.62115568151155
H          115.98036752839727      118.31594554438799      125.42587029275184
H          115.67123852323887      115.95016536776660      125.00785785583714
H          116.19292165522067      116.73589546221004      123.52709710889768
H          113.78638941305312      116.78176924191524      122.75985645492199
H          113.34995482610969      115.88173976695812      124.21298519234992
H          114.85727216388231      114.02585951065009      123.47176081472858
H          115.28056782774659      114.95582030410570      122.03697909786537
H          112.85861515658738      114.97322137485349      121.37129023834501
H          112.49231116249862      113.96806294080776      122.77401387429275
H          113.99257611446518      112.18549179927794      121.87582207445834
H          114.31611687604075      113.18286154151866      120.46077659520394
H          111.90016640473820      113.17398287384147      119.88791639597592
H          111.55700812796866      112.19970975447579      121.31826728416294
H          112.96936333759849      110.36382431721745      120.41135011086546
H          113.31880410168577      111.33371675241736      118.98600528670352
H          110.90586469620854      111.39000229456443      118.41226843469893
H          110.52883562881615      110.44419401844493      119.85055564848739
H          111.88393592700837      108.55459363717844      118.97393174047818
H          112.30782058838611      109.50543813811068      117.55816592290107
H          109.90229342951167      109.64116222118722      116.92190991355174
H          109.47193729736500      108.68475534251155      118.33523237878840
H          110.83160775723682      106.78699072607593      117.46707181736254
H          111.29331213645848      107.75250151908030      116.07171064529486
H          108.92752906802606      107.90129379479835      115.35827322416242
H          108.42439021052522      106.98896455061387      116.77569203683822
H          109.74485530514148      105.03196519944930      115.99855779861026
H          110.29508135396082      105.94834903579515      114.60136826992957
H          107.97779037250294      106.15691345634123      113.78129005835544
H          107.37203926025659      105.32255119642269      115.20623981012264
H          108.60629498463369      103.27293655342349      114.55556775928407
H          109.28590129570642      104.10912226528424      113.16506522144978
H          107.02512666850035      104.44036720136062      112.22351875540903
H          106.30682069828708      103.65317706730143      113.62329360483538
H          107.46123382524480      101.53724794692221      113.05603160668099
H          108.26152268566887      102.32291949249532      111.69861118246314
H          106.10070864974969      102.74523495462924      110.60881137088856
H          105.23894814923345      102.05548060396929      111.98023452169176
H          106.26000239780720       99.84760389989431      111.55251345584426
H          107.22656465912141      100.52668424281519      110.24667150338230
H          105.19419483715309      101.09461657003173      108.98631731248734
H          104.17597837734125      100.48079841138095      110.28510616215667
H          105.12271776461502       98.21129370366903      109.97638340917931
H          106.19185233603643       98.81765446139062      108.71790701803754
H          103.14209229843949       98.78227916073699      108.59211080915202
H          104.22848720623436       97.65409879395258      107.78680286448247
H          105.26024064603779       99.71380899944975      106.61782841630612
H          103.87246495263584      100.62315804744827      107.21921462663772
H          102.34880155130429       99.00954307248693      106.05676354752660
H          103.76176856512468       98.17758433014079      105.41190817253958
H          104.49433335754820      100.38682759063875      104.38769597761066
H          102.93899968726943      101.06292182788641      104.87057355251871
H          101.79278042602193       99.26799423793126      103.52195930085571
H          103.38409836491572       98.68191793117437      103.02759501972493
H          103.85178918274759      100.95151984833619      102.03087952883060
H          102.21568239042226      101.43652296016246      102.45820240713836
H          102.31846679766309      100.82553806877809      100.11239310080498
H          101.26175789052452       99.71779234116755      100.99114749781731
H          102.62608881596334       98.53751384599781       99.34194002724293
H          102.98718132071340       97.97760822117876      100.96734197946813
H          105.03827635217372       99.35102867684877      101.01605327639626
H          104.63418781378337      100.04019273140901       99.44349650594593
H          106.31665769500438       98.36480807988475       99.10843446603435
H          104.81440775851000       97.73698524140127       98.44097352277652
H          104.49781824776089       96.29009109873161      100.39359904913583
H          105.85342804132280       97.04828128573682      101.22794928929352
H          107.42264528304044       96.18679759407776       99.54097785975227
H          106.08502963913662       95.51942660910137       98.60307679118620
H          105.52549184254340       93.97229283859036      100.43441142166608
H          106.74542540099142       94.71264147830662      101.46599634828880
H          107.59833409750217       92.62297044588377      100.59670448266762
H          108.53074276065550       93.95619532182438       99.91237642113821
H          107.43547269618651       93.73473344881000       97.77014265670070
H          106.17793163510409       92.70612290827566       98.45126149419576
H          107.69359770440899       91.34502618040757       97.16302513584967
H          107.81113133598568       90.91714486333797       98.86829429595537
H          110.00152055335953       90.90998601311234       97.87659514112106
H          109.92407022605416       92.21424863035877       99.05431141303100
H          109.78805128310461       93.89005940166901       97.30697339210224
H          109.45930074732703       92.66672023954260       96.07904059606277
H          111.71709883276775       91.71564107886704       96.39172865362372
H          112.06111897963295       92.90654715532756       97.64655449290409
H          112.00778271756207       94.72584108500969       96.05109787219489
H          111.25556652767939       93.71296273836644       94.82697874489877
H          113.57266642777080       94.05074286915180       94.24771821394884
H          113.28033358927669       92.35330405817874       94.61976734732292
H          115.39112676742452       92.96438293587961       95.55295482311550
H          114.28246560759814       92.70942859816645       96.89473616806265
H          113.99924397257941       95.15182912344592       97.15312807649421
H          114.99582795350454       95.43572037676221       95.72740804801420
H          116.92686673948668       94.34210069262409       96.89190867276841
H          115.91981588827575       94.11628866014198       98.31842620038258
H          115.59054619953174       96.62182412478664       98.41602937083722
H          116.70320490863807       96.77999803311333       97.06048247484776
H          118.46779469413897       95.61940790998801       98.46920523931175
H          117.32519305208014       95.60800038295618       99.80353994919879
H          118.65830821275070       97.50003062748581      100.23491324168215
H          117.17018005211183       98.14979304679079       99.54843256004814
H          118.99884264794684       99.34974541738589       98.60070077274423
H          118.36426129048805       98.32410050358250       97.31518322138663
H          120.18555113744073       96.71160863995678       97.65288566758582
H          120.77024653829336       97.61513626332757       99.04825469258601
H          120.65243746150502       98.73116839996116       96.21451757381016
H          122.06781134057393       97.94556293251907       96.91529212364483
H          121.91246159153694       99.67778409515735       98.81472306937748
H          120.80891805758540      100.57543200356035       97.76990627727963
H          123.66257143899475       99.77176441410884       97.05236367100638
H          123.15862425712157      101.35843580773978       97.62975342722930
H          121.64008168667758      101.55710513339588       95.64478197258374
H          122.30163888361029      100.05091236909209       95.01164074622078
H          124.55582049789926      101.02718884559461       94.94072328601914
H          123.97057890932371      102.51657710904571       95.66653418233554
H          123.12505831834657      101.39881556976748       92.95641002883656
H          124.30131959411629      102.68597636533461       93.21379775578386
H          121.31752073472160      102.81837490043243       93.84158415759026
H          122.15623820422049      103.58929430857458       92.50432477892609
H          123.50577340961063      104.91825616283973       94.16665806084004
H          122.53608396146097      104.21842671177940       95.46276017362861
H          120.47380861667646      105.14951650437960       94.40856836567951
H          121.47042762880447      105.92483675014221       93.17759801582878
H          122.65830263775244      107.21014085536105       94.94429766703465
H          121.69498765491150      106.40357712059819       96.17842550329514
H          119.62035031565443      107.40369536863024       95.18408118942146
H          120.61363998306535      108.19290288811023       93.96105343907885
H          120.23833173414086      109.88204985900387       95.55145134498645
H          121.87163242098090      109.32111727699424       95.90097017303266
H          120.75427390883925      107.75121952086286       97.65188894167534
H          119.31595717467174      108.74610064020396       97.44563797649431
H          122.06787623670100      109.77592083374999       98.27098676838213
H          120.76091284173019      109.38366101803432       99.38744092534648
H          119.34384299083256      111.13708278938576       98.41703994137336
H          120.56049633429356      111.47529118189904       97.18383788891265
H          120.75395061603683      113.18640425519995       98.83175654171366
H          122.16605531726616      112.14589847765278       98.98775321247759
H          121.10565956135756      111.00022306532676      100.92023755898786
H          119.67785888975858      112.02684922016131      100.74768699961507
H          121.02915769071534      114.03145300874343      101.19741014915417
H          122.49544281546777      113.06038415345454      101.29403411130203
H          120.10563772575556      112.69822456570040      103.15252274753360
H          121.48821405608572      113.73282522800592      103.51837331728966
H          123.00059608204013      111.75648826440521      103.35039327755162
H          121.60540327642647      110.72137382919068      103.05303866977744
H          120.64192643621568      111.37689299207909      105.24491282153383
H          122.04782553262925      112.39842296907968      105.55323845971078
H          123.52758072752135      110.42305589776578      105.48329425538977
H          122.16385533935582      109.39437536370772      105.05022930379680
H          122.68317446785645      109.10917208621218      107.39900430959644
H          121.09406500272564      109.85245888589182      107.23552123395633
H          122.00976856955191      112.05093904758328      107.82234794811822
H          123.65370809322997      111.41659001392463      107.78529315398038
H          123.12173000411083      109.91657217248779      109.69315318640875
H          121.46862391046936      110.52976204469741      109.72125160984372
H          122.29111764465523      112.80283188861121      110.22795551471202
H          123.95985439943051      112.24286670891898      110.13127626743973
H          123.58009867383184      110.72584188396851      112.05479786429730
H          121.89180153688685      111.21971249708726      112.12350489188753
H          122.61896257803714      113.57801380552088      112.56732965158528
H          124.29689593814814      113.04155143450350      112.56734781819215
H          123.82189749961849      111.53605629043869      114.48858209629554
H          122.13200933017127      112.03187655468706      114.46458367446493
H          122.80686409516184      114.37807063507609      114.93221360274907
H          124.49976152611764      113.88415891583496      114.97771760102164
H          124.01413179609224      112.37111643300524      116.88642810866028
H          122.31619623850520      112.83664741083901      116.83167178052743
H          122.89981517689434      115.16827026183843      117.38106928255822
H          124.61770407087762      114.77402174143987      117.33301780157178
H          124.28456619347720      113.16006234465794      119.21310434027167
H          122.58287383416977      113.60345343049140      119.28128611580064
H          123.18855111945419      115.93788402617139      119.82820839663681
H          124.90193869813059      115.54324596814169      119.69584877149116
H          124.68205815465440      113.93361114436102      121.57821377852125
H          122.96504053658732      114.30121992015309      121.69922649956966
H          123.55327552424752      116.70640137257168      122.16636946737620
H          125.25686757003356      116.25941722983835      122.15839847926019
H          124.81852927399517      114.65446089402857      124.03386703941753
H          123.13060033905101      115.15795700969079      124.04817031217398
H          124.39395280610191      116.36151464384301      125.80325641710868
H          125.53115388282188      116.96958179423468      124.59893783769418
H          123.85117252642178      117.50375639576578      124.57304690905981
H          112.67113755166919       89.59171343160067      103.87722397805568
H          112.92356685597170       89.05303475577487      105.53742079892318
H          111.42804836996915       88.64375718761730      104.69539093009529
C          100.88453331318559      126.94220048093476      112.95167614678094
C          100.78946910676962      125.51743576237268      112.42076987622873
C          100.80121558719155      125.46686507168143      110.89485164924731
C          100.66611010873353      124.03936353755715      110.37122308828748
C          100.78907750304400      123.96179323334569      108.85173938168872
C          100.59798910874638      122.53719088346072      108.33821545016245
C          100.84098105013534      122.42040463880672      106.83598341538254
C          100.59321420828662      121.00176929736334      106.33120130718194
C          100.92714272973406      120.83977803779078      104.85094812752571
C          100.63058199713134      119.42634085080330      104.35841276346116
C          101.02355596570959      119.21681439393734      102.89891444412007
C          100.68403324948981      117.80680397538164      102.42473801453680
C          101.11454230133576      117.54721952966953      100.98400351320964
C          100.75193275831955      116.13314180718668      100.53990829957161
C          101.20310605340049      115.82307991580254       99.11577616816358
C          100.83733739693450      114.39757635039935       98.71252081543406
C          101.28951783963041      114.04647715319308       97.29867525189721
C          100.89953536620799      112.62021489694678       96.92107051975283
C          101.38293595222811      112.23112192325034       95.52727099016677
C          100.95268407171821      110.81625947955864       95.15197011551977
C          101.49368143532124      110.38157824124895       93.79234452194076