3258
 energy: -3427.584596921914 gnorm: 0.000998990890 xtb: 6.6.1 (8d0f1dd)
C          124.50129566087458      116.65302517513349      124.76077141204208
C          124.14715945348975      115.49424520071418      123.83693164465211
C          124.24934740473108      115.88835154718564      122.36564027116455
C          123.93695351483538      114.72021100493475      121.43396869997829
C          123.92243616719348      115.14078255476359      119.96642972404617
C          123.58039703634329      113.97727824333941      119.03943969516817
C          123.62750590723509      114.37394019906438      117.56592342902063
C          123.33264142900569      113.19072969030549      116.64703714217731
C          123.47725290684798      113.54942571544343      115.17062672950921
C          123.15158184056273      112.36815842526300      114.26056611799422
C          123.27227213791346      112.72920761421355      112.78247335778637
C          122.89878406965543      111.56078811431561      111.87357865749578
C          122.94366555486164      111.94243894818641      110.39651571541026
C          122.50421098074060      110.79488993529768      109.49026587058432
C          122.61565354764910      111.16312873259753      108.01257065582567
C          122.16437281483765      110.02417879505816      107.10055127657830
C          122.45246435819203      110.28202049111349      105.62087313690404
C          121.71047159911731      111.48986967308389      105.05296431187168
C          121.93264160313447      111.63670444742581      103.54955084187594
C          121.17597183591197      112.83456577647961      102.97914170206580
C          121.41918086335521      113.04994523532919      101.48464316785528
C          120.76117736726536      111.98568247465509      100.60928831687767
C          121.08287558075540      112.18647111364217       99.13096327481662
C          120.41726681978007      111.15535281677556       98.21813458165713
C          120.98063974704539      109.74536078751370       98.38133433379021
C          120.40619231607191      108.74755212329879       97.37435758637424
C          120.81687335510128      109.03598894539719       95.92924207312124
C          120.60341795702253      107.84048397791372       94.99674638223212
C          121.67955312984201      106.76770156417389       95.15057453743061
C          121.45784544596651      105.58116055866951       94.21581796013410
C          122.52308405971648      104.50479215451971       94.41040439560672
C          122.26323264287934      103.27343388428902       93.54576769503980
C          123.38679835244649      102.23515339331668       93.61069473228520
C          123.68913321742085      101.69189716805845       95.00918108035938
C          122.52522735773917      100.92279675595482       95.62908676353675
C          122.83242080392615      100.48397580432999       97.05888419720851
C          121.63276444208434       99.86031096508864       97.77344867113530
C          121.17951429998519       98.53998944991066       97.14979768592984
C          120.28230476362093       97.71425941583793       98.07395259192349
C          118.89134682539591       98.31417127185786       98.27074296680989
C          118.06505483304581       97.56564732134193       99.31949650001697
C          117.62679251746202       96.15843431140496       98.90772568226934
C          116.45542691016909       96.16698592387840       97.92884498180332
C          116.08792843053138       94.76318274673180       97.45420865091718
C          114.83863325385889       94.76495000251280       96.57594567079462
C          114.50639055188286       93.36913183968839       96.05559812271304
C          113.34617028107165       93.35394444900741       95.05922173654255
C          111.98052136398842       93.71506163375419       95.64605708224204
C          111.50780680520181       92.73783961421097       96.72193558585029
C          110.01113110624493       92.86729260322393       97.00227659524229
C          109.55410562077914       91.88756032960943       98.08288746357111
C          108.03695070387998       91.70137511062549       98.13998594389444
C          107.24207682271721       92.95526645401944       98.50658578934220
C          107.55315349659135       93.47360508600751       99.91007224347879
C          106.50541136329265       94.45825926124958      100.43104063441714
C          106.42552521966135       95.74662664873489       99.61583090179541
C          105.47186997606694       96.76026355719095      100.24533812504110
C          105.31880744924386       98.00493440361858       99.37277084634643
C          104.55902867173664       99.13944513768716      100.05967189690082
C          103.08315025470048       98.82864513317740      100.29301731032521
C          102.30388615274344      100.02128034823181      100.85303951713604
C          102.83460452696814      100.58177486451117      102.17427469104351
C          102.82250215215613       99.57217501849385      103.31745904491933
C          103.44824756718251      100.13902521675493      104.58758256338277
C          103.38697142653739       99.14825047193079      105.74719556476704
C          104.21661348804601       99.62903074805537      106.93294075146844
C          104.12742775865395       98.68723411450888      108.13250210231104
C          105.20940786002694       98.95228980630776      109.17887211498198
C          105.13700186490510      100.35108696006914      109.78264176122688
C          106.27086848448243      100.60939081289239      110.77020459471386
C          106.16284190283143      101.99436036089699      111.40019771522084
C          107.35034536813622      102.31822708677984      112.30039660043312
C          107.19127279067054      103.67317840640102      112.98231107858939
C          108.41026487911516      104.05287022414825      113.81613124775812
C          108.22014486007652      105.39202233585451      114.52151397281142
C          109.46157892821846      105.82050480413891      115.29728639097209
C          109.23774164568732      107.12317407682893      116.05925102942240
C          110.49292021278922      107.58012934922326      116.79628325090734
C          110.25758212420405      108.85752539375505      117.59615757776668
C          111.52434704361326      109.33574195287179      118.30009484156913
C          111.29157318029978      110.62099772901578      119.08788110581118
C          112.56641042081233      111.13534918571426      119.75125758231290
C          112.30978669199528      112.40769254966773      120.55270055397450
C          113.56899957218823      112.95183780459001      121.22262944701104
C          113.26369849593452      114.20597149963298      122.03693338706006
C          114.48469650474131      114.76597138561409      122.76125057457021
C          114.15246117294201      116.06379242719741      123.49401436736250
C          115.35877543501272      116.64758787635546      124.22536383037588
C          115.08320937824907      118.00236311823886      124.88407929157268
C          114.67553644429785      119.11265598109539      123.91341175562944
C          115.78080445261372      119.48122778657407      122.92354376434236
C          115.26659119118743      120.19239493068196      121.67151481295070
C          114.43282250435645      119.30543967113607      120.74385856518062
C          115.20942338406769      118.16136104593230      120.09542828341429
C          114.29488115657385      117.29481155901405      119.23228079549391
C          115.01939791383263      116.09886524444939      118.62204992781899
C          114.07980793188500      115.21866920477552      117.80100182602517
C          114.78775230167764      113.98351416330350      117.25352653131016
C          113.86799156616050      113.09968091021898      116.41571222318541
C          114.58902083761123      111.85725985187808      115.89968798720497
C          113.68024167160692      110.95789370791501      115.06627748574371
C          114.42843942037399      109.74021545231123      114.53191465392736
C          113.53952605585309      108.81812962272916      113.70261924722146
C          114.32906943013820      107.66108453153244      113.09594098724887
C          113.44451252905436      106.71757667690160      112.28652024114825
C          114.24806359724568      105.61575967823914      111.60002330902016
C          113.34451572135464      104.61742529543926      110.88275978602799
C          114.12700132510541      103.48484414380498      110.22174452213102
C          113.19487101665230      102.45354006310757      109.59206086279229
C          113.93859911299546      101.25312299182488      109.01045024497492
C          112.96777510043833      100.17453751753776      108.53800512681921
C          113.66407459255325       98.95739359522700      107.93582966788580
C          112.66736875815914       97.84345784929444      107.62719490682350
C          113.32412353368149       96.60683949868594      107.02203446536286
C          112.31232398268287       95.48486022418479      106.80566317160076
C          112.95496661472409       94.21817215372566      106.24877792642020
C          111.93397383995681       93.09944310673635      106.05898918859785
C          112.57285247494947       91.81052476557136      105.54998721678736
C          111.54192184126637       90.70349226706146      105.34694184310567
C          112.18052177926521       89.41930860884555      104.83315794502616
H          111.03742383208535       90.50462100375429      106.29513370826211
H          110.78628778908359       91.04326289460305      104.63462055486147
H          113.08211444431375       92.00493013866227      104.60253017468669
H          113.32918516852449       91.47236273249565      106.26295940590441
H          111.43640720249942       92.90143944400232      107.01052117779267
H          111.16738955373117       93.42417671369043      105.35160016958770
H          113.43303536468839       94.44433011763937      105.29313978383595
H          113.73643224226259       93.87904404073872      106.93374804673108
H          111.83146606948569       95.25179263605705      107.75880582910709
H          111.53511645637282       95.82695082231470      106.11774735890785
H          113.78931656618724       96.86743292721025      106.06851939709313
H          114.11617931382095       96.25567483775291      107.68677261806734
H          112.16004560068860       97.55629484748923      108.55154518916700
H          111.90511589514045       98.21844182739777      106.94027819322815
H          114.18409195300245       99.24797672482562      107.02037703942777
H          114.41360226544010       98.58423366540413      108.63646981442589
H          112.36082806933857       99.85082598992257      109.38692463174503
H          112.28550667873535      100.60069958841767      107.79997891403296
H          114.56586824226953      101.57755700931793      108.17699786807871
H          114.59818940133800      100.83214681106843      109.77246945405207
H          112.49118570738004      102.10312017161426      110.35083045548811
H          112.60751597578148      102.93212965811391      108.80503057498387
H          114.79207320439924      103.89320119400512      109.45715734324271
H          114.75253566575202      102.99364785781397      110.97162250931373
H          112.64178998242107      104.19222911688991      111.60293522849726
H          112.75680092828414      105.14244098172857      110.12672718450976
H          114.94058105651639      106.06240884577299      110.88183954971657
H          114.84750573921578      105.08760638364957      112.34567112307602
H          112.70451337660799      106.26263048678551      112.94917827580412
H          112.89983965470550      107.28986431356877      111.53293950628881
H          115.11696637465295      108.06037316704263      112.45084933264785
H          114.81368191180695      107.09894141220194      113.89757453700280
H          112.73862184009967      108.42089571938104      114.33110386001667
H          113.07016152670893      109.39297269964368      112.90218202222727
H          115.25962824060434      110.08401041754857      113.91186393348345
H          114.85108701135185      109.17854576781494      115.36901154853918
H          112.83287536568992      110.63265340240736      115.67371723011289
H          113.27880718184578      111.52878941460865      114.22694882732185
H          115.44523729335840      112.16309802273189      115.29238366327245
H          114.98007641445862      111.28693989458104      116.74668615561141
H          113.00744107023607      112.79680703965525      117.01589722441479
H          113.49098568295537      113.67319871697947      115.56610036161128
H          115.63886153402204      114.29717184143199      116.64551133496239
H          115.18053766778641      113.40038157895671      118.08988736757421
H          113.24103213847376      114.90519670983463      118.42626486101487
H          113.67348798093639      115.80096378990740      116.97026793109707
H          115.83430239124387      116.45239726068270      117.98589724280832
H          115.46109253190724      115.50124986041561      119.42345081715268
H          113.46655798891275      116.93140819138240      119.84539676350434
H          113.86456638991530      117.90248090902952      118.43174586024864
H          116.01929271254566      118.56598711904296      119.48464347042515
H          115.65654707005957      117.53161795233108      120.86551890880642
H          113.58858327963273      118.88902052924006      121.29547869791621
H          114.01348201154096      119.93233566573140      119.95207901362835
H          114.65902335439087      121.04930639444468      121.97580838889755
H          116.12340987443773      120.57621190338651      121.11339742710426
H          116.50156539685088      120.12878823310868      123.42628724794771
H          116.31468320614543      118.58392505461454      122.61498309115197
H          113.77940735167452      118.80290558161732      123.37735727545954
H          114.40628870985300      120.00105516166745      124.49007079603099
H          114.28542482932723      117.87142747449525      125.62012407038419
H          115.98085109537182      118.31631307424659      125.42404207816938
H          115.67052844570581      115.95010926371695      125.00730222069407
H          116.19296305126541      116.73528862107024      123.52634126765501
H          113.78614063559701      116.78130303701565      122.75943818206532
H          113.35052497413074      115.88130019090455      124.21262419932597
H          114.85724496812830      114.02586779428576      123.47158790643273
H          115.28054378094018      114.95556831879570      122.03654867309641
H          112.85871121561830      114.97293531296580      121.37142137489307
H          112.49293385958819      113.96753976454994      122.77395718008964
H          113.99232054141659      112.18544858797905      121.87577098217420
H          114.31618505912053      113.18276756984783      120.46065265328015
H          111.90024107237159      113.17381324034127      119.88812853641323
H          111.55768419731805      112.19917225347201      121.31826549372059
H          112.96908502889183      110.36392252273353      120.41123388108640
H          113.31888340587737      111.33370273037632      118.98586010093912
H          110.90578720120180      111.38986913049011      118.41250824142806
H          110.52953034826059      110.44371564722182      119.85065574615184
H          111.88354785660373      108.55477911217162      118.97387297290472
H          112.30789621615041      109.50540602783872      117.55812870937795
H          109.90204077976817      109.64101229363285      116.92215507644909
H          109.47258106372769      108.68436623050324      118.33544437644541
H          110.83107436308111      106.78716794505299      117.46713967106885
H          111.29326362356565      107.75243890734734      116.07182315415686
H          108.92728866338538      107.90124327843922      115.35851769013659
H          108.42489299736386      106.98868292818071      116.77591651935684
H          109.74413700196095      105.03218584927477      115.99871730396086
H          110.29501187225783      105.94825119797112      114.60161705470041
H          107.97752652785626      106.15700354648941      113.78152923722548
H          107.37245507780297      105.32235731194507      115.20649985724323
H          108.60539030760361      103.27329138542565      114.55581098860881
H          109.28580156380318      104.10897044876623      113.16542255061800
H          107.02475319306453      104.44064435056657      112.22381990563719
H          106.30713406231909      103.65302763612917      113.62365393575529
H          107.46020748659910      101.53777376701851      113.05626874514066
H          108.26130355517411      102.32287733185325      111.69898667645262
H          106.10027119710114      102.74569842512354      110.60907385254427
H          105.23906717722609      102.05556464413341      111.98064861174048
H          106.25862082451825       99.84837593243773      111.55278102744883
H          107.22609839694152      100.52668300728757      110.24718750732482
H          105.19395311759806      101.09507596002804      108.98619467213065
H          104.17571268820956      100.48140500183284      110.28493184498637
H          105.12152215424726       98.21240316377403      109.97692672351077
H          106.19133588486592       98.81794225460557      108.71849627534256
H          103.14175406111138       98.78438021560473      108.59246215560751
H          104.22724764793291       97.65500710402726      107.78708648892818
H          105.25955485164161       99.71508663321538      106.61823179916537
H          103.87114322950235      100.62361468396902      107.21923270487173
H          102.34862313324059       99.01065174546324      106.05711984264492
H          103.76156237044985       98.17829610715580      105.41197697857766
H          104.49400990259983      100.38733463107430      104.38811242512718
H          102.93880485309073      101.06337930550568      104.87068142865589
H          101.79266515287301       99.26918072777158      103.52212515248075
H          103.38415594582926       98.68280069093375      103.02760463753091
H          103.85153015190129      100.95237524499578      102.03142622773075
H          102.21515053377018      101.43670936141910      102.45831375728302
H          102.31916783323135      100.82563643169364      100.11263311848403
H          101.26242708788996       99.71761161418247      100.99168939076574
H          102.62735457141611       98.53816227112496       99.34232617044935
H          102.98794656878330       97.97788991434277      100.96785126549399
H          105.03901232309309       99.35132942312045      101.01641661587486
H          104.63467077484565      100.04069113746691       99.44426419512379
H          106.31649789647727       98.36460343132448       99.10774796055182
H          104.81346451681483       97.73711770688735       98.44192845974038
H          104.49801191223955       96.29027845630063      100.39310918604308
H          105.85280207852287       97.04881257036446      101.22846236879300
H          107.42286688322650       96.18752478170560       99.54078385628945
H          106.08481950128748       95.51930448951184       98.60428374546625
H          105.52637076431283       93.97272673165142      100.43385060553797
H          106.74512297097543       94.71266437833971      101.46706752714138
H          107.59940617110573       92.62405311242215      100.59673156934529
H          108.53167225931766       93.95755312111544       99.91273973752052
H          107.43569494844355       93.73593594943915       97.77061710381041
H          106.17867534514714       92.70728313206480       98.45269879151455
H          107.69444584967115       91.34641789904147       97.16434737072795
H          107.81163043585408       90.91901909791805       98.86979839232447
H          110.00156511107423       90.91139944236502       97.87692066891840
H          109.92521451497959       92.21498594462625       99.05540010675070
H          109.78769303490748       93.89135622127591       97.30716251205369
H          109.45939462854999       92.66692806875135       96.08030548534293
H          111.71665512328443       91.71685028642312       96.39240180235151
H          112.06103274149936       92.90744367893146       97.64762247341190
H          112.00651825999677       94.72685662728216       96.05218731662325
H          111.25505772633288       93.71347527510413       94.82811613419248
H          113.57205051335792       94.05217588321518       94.24897371824792
H          113.27950187021035       92.35466398364998       94.62112888297025
H          115.39024284029671       92.96571018071189       95.55404551268818
H          114.28147055559604       92.71022721886322       96.89572751883991
H          113.99847162413955       95.15308195667909       97.15397575993147
H          114.99537273163094       95.43603490900753       95.72817614337919
H          116.92569008262558       94.34308696788202       96.89207114283182
H          115.91936400066882       94.11660261851821       98.31908595184115
H          115.59017757038137       96.62258008586504       98.41666231703769
H          116.70235069454594       96.77994347637211       97.06058300128485
H          118.46739249249949       95.62045479780798       98.46772246018270
H          117.32570038630014       95.60793058777159       99.80311055260954
H          118.65890783068114       97.49939609327723      100.23425661547819
H          117.17028914964391       98.14967955873090       99.54925034665683
H          118.99766501282106       99.34991948692674       98.59994630458108
H          118.36333289558046       98.32357331932121       97.31505456471808
H          120.18429017435747       96.71222132522730       97.65178551529897
H          120.76956651273704       97.61530801710303       99.04739933839660
H          120.65121821523486       98.73186745117721       96.21407358511527
H          122.06676947794749       97.94646631043166       96.91482979392570
H          121.91231064489622       99.67706524156299       98.81420463605386
H          120.80821161590016      100.57566680884469       97.77093880772964
H          123.66084435660086       99.77142546286110       97.05131616050470
H          123.15818678526648      101.35808681929896       97.62998016684251
H          121.63876507347334      101.55702193378086       95.64427312491411
H          122.30121624610493      100.05115935608232       95.01163057662720
H          124.55412548697082      101.02700194613708       94.94065901976212
H          123.97006572087392      102.51646296537729       95.66708706696448
H          123.12410641463040      101.39942642047139       92.95698362059720
H          124.30000968985415      102.68686758923847       93.21472399128234
H          121.31605385897733      102.81896616292094       93.84076167374118
H          122.15593311408556      103.59038121984374       92.50499643707617
H          123.50462375807872      104.91823808855489       94.16617040031915
H          122.53650926198814      104.21858120793974       95.46337454813781
H          120.47298105874212      105.14959364229158       94.40819746203273
H          121.47082885037129      105.92506873272406       93.17858257216643
H          122.65724652933883      107.21005124002657       94.94393778826705
H          121.69566885319517      106.40339378262185       96.17919666566991
H          119.61959779819045      107.40375317864131       95.18475157544029
H          120.61384307399612      108.19256051795023       93.96221315553979
H          120.23879838514219      109.88193384813799       95.55205492442106
H          121.87169915806361      109.31966423664251       95.90224505799449
H          120.75452697022664      107.75137041067296       97.65247657448425
H          119.31586137781972      108.74557803318602       97.44625951581057
H          122.06741740612729      109.77654790374031       98.27022112270149
H          120.76188929292391      109.38352121840852       99.38798293653501
H          119.34334009191164      111.13692440515135       98.41719469435176
H          120.56072700926806      111.47482549209317       97.18453599161181
H          120.75400726768686      113.18606200662565       98.83258366429048
H          122.16549688462911      112.14449784959697       98.98881436461630
H          121.10587954345803      111.00006937889505      100.92076571883483
H          119.67762377091113      112.02596040156057      100.74842333912626
H          121.02971537449694      114.03104246969150      101.19773385058728
H          122.49522822384102      113.05870909157807      101.29498902736904
H          120.10576180317858      112.69864920515882      103.15358302419220
H          121.48902387933177      113.73242927250341      103.51869376208721
H          123.00043914148455      111.75753968182912      103.35142511189802
H          121.60622497706034      110.72128944379537      103.05324410863879
H          120.64220985241327      111.37824343033527      105.24576288964593
H          122.04893530634044      112.39845984992068      105.55308104036476
H          123.52728198211756      110.42455540044656      105.48464339012421
H          122.16473017246007      109.39464263345606      105.05054492353395
H          122.68426477822115      109.10977158762610      107.39932968361163
H          121.09461054472962      109.85136195261767      107.23661915892315
H          122.01018416170422      112.05117019869657      107.82247823988149
H          123.65383783372414      111.41584617593369      107.78552860571446
H          123.12351544845372      109.91766949031610      109.69300280520548
H          121.46965599329067      110.52823742226315      109.72175713129162
H          122.29155227614422      112.80354666332651      110.22746669683357
H          123.96005926952091      112.24237257100589      110.13147828673995
H          123.58095121330190      110.72699809913742      112.05426248693878
H          121.89240089565043      111.21917470817803      112.12351395878545
H          122.61966853145687      113.57873963228926      112.56705907731849
H          124.29709139073512      113.04072882339351      112.56780164745058
H          123.82251775072217      111.53702847110461      114.48822816731004
H          122.13234708545491      112.03132907079811      114.46478595613893
H          122.80750949246223      114.37871542263024      114.93203285376475
H          124.49990228806678      113.88321672384158      114.97811853404018
H          124.01505494034383      112.37212238777703      116.88602820961093
H          122.31676104847955      112.83576316115855      116.83194609719537
H          122.90030590045760      115.16881408723077      117.38090439453212
H          124.61784408185767      114.77313729677019      117.33332721044853
H          124.28501675382935      113.16088739376262      119.21279006639622
H          122.58308125797382      113.60285489089728      119.28135111687699
H          123.18948984624660      115.93875085731352      119.82766534070839
H          124.90226354742487      115.54194245122366      119.69631647957944
H          124.68225180702494      113.93453872347509      121.57786423884941
H          122.96503965689993      114.30019963586692      121.69910057599449
H          123.55333204219956      116.70712952453097      122.16594538581700
H          125.25629396542693      116.25835882403408      122.15878367824992
H          124.81825553298492      114.65506887483028      124.03333089258903
H          123.12984381851948      115.15677516957156      124.04792279715259
H          124.39168832194810      116.36140481315593      125.80286261776322
H          125.52973747678894      116.96866120792657      124.59889407472896
H          123.85031332554651      117.50411657413856      124.57243678837922
H          112.67217572170026       89.59317795972882      103.87819289224423
H          112.92433669242551       89.05449809267418      105.53839608084286
H          111.42923989699202       88.64497533992761      104.69602504734254
C          100.88590012047311      126.94176438427465      112.95101542943016
C          100.79110467090177      125.51691909808902      112.42039917981921
C          100.80188369999169      125.46696975968916      110.89434928105339
C          100.66687504838316      124.03926678978993      110.37085554318868
C          100.78945503873808      123.96217093511888      108.85115141615820
C          100.59832636903549      122.53725584610834      108.33795392582932
C          100.84125724949489      122.42062933424553      106.83549877982325
C          100.59317403687677      121.00165369819965      106.33109897063841
C          100.92712129004886      120.83990865833781      104.85058899713702
C          100.63028341553525      119.42616472930001      104.35833409650333
C          101.02331598276798      119.21692214968142      102.89855648186609
C          100.68374544836686      117.80651596734424      102.42476655831595
C          101.11441607756535      117.54728045266121      100.98375992278109
C          100.75207779621357      116.13272755950366      100.54015387431450
C          101.20308963078554      115.82321373412304       99.11559883713704
C          100.83741482620268      114.39732364427338       98.71274065684852
C          101.28939835540356      114.04665486949530       97.29847050309759
C          100.89932377386570      112.62006209985329       96.92126799953847
C          101.38292908499697      112.23117396587756       95.52724625159659
C          100.95256993550358      110.81606204926496       95.15223596285273
C          101.49379967017919      110.38173222915840       93.79239650577601