3536
 energy: -3716.239449059608 gnorm: 0.000938971952 xtb: 6.6.1 (8d0f1dd)
C           72.31470187435718       58.09788981158410       62.79617130945961
C           72.85351430797536       57.12360684349219       63.84082400118144
C           73.92202655966173       56.22873227654799       63.21275285226568
C           71.74246481915301       56.24587779047349       64.42893715684316
C           70.60770633662460       56.98947212530226       65.14222914287818
C           71.14200783379076       57.87158178197125       66.27131616866626
C           69.59546992430495       56.00052953906054       65.73830721922336
C           68.89293203046742       55.04909710884828       64.75890889022899
C           68.07901966652921       55.82639605112070       63.72916322218752
C           68.01290932690640       54.09320782131478       65.57640155390062
C           67.26018193038585       52.99222020216296       64.81218182588756
C           66.44558439308523       52.19077126561886       65.82787251642779
C           68.22723918455166       52.09604705448125       64.02856867479441
C           67.61721496907222       50.87593851077946       63.32023171882920
C           68.72845354712035       50.06699831506732       62.65259548609309
C           66.46064930433597       51.17136062318735       62.34655662440464
C           66.76432506455741       51.61601153555152       60.90554377829660
C           67.50548004327619       52.94552728610502       60.84152327726996
C           65.40886732668287       51.69656163289312       60.18072309427593
C           65.39959511251089       52.20367975337487       58.73180828914504
C           63.94924649281003       52.27740053870141       58.25629228126767
C           66.23715258637255       51.31131068116130       57.81007006359930
C           66.34354106479920       51.77244570634643       56.34656429920098
C           67.09291492103418       50.71055326610309       55.54476998614004
C           67.04106679527617       53.13440163188743       56.25270826750101
C           67.26527056582916       53.70447302707998       54.84239889270256
C           67.97101807290159       55.05226589616440       54.98518251681435
C           65.92947079754143       53.83373162117719       54.09902563853505
C           65.93423635182199       54.61188950467952       52.77405305731144
C           64.50494954347869       54.65443671815266       52.23385489991581
C           66.89374129227134       53.99352607390227       51.75137060613232
C           66.99652938356344       54.72249119513267       50.40203308115860
C           67.88870746421897       53.90239936457296       49.46984802209105
C           67.54505177400942       56.14507394423072       50.56599549842409
C           67.45775942962335       57.01091828389571       49.29392115492399
C           68.84961114018074       57.48336041567663       48.87004269351381
C           66.55503370220610       58.23767977639837       49.48632472694774
C           65.06950765395169       57.95284587221580       49.75053783132371
C           64.41294504423578       57.25856441534943       48.55958290916551
C           64.36317883707027       59.28284121979321       50.04756121746141
C           62.96263955473532       59.18172732797088       50.67097448212184
C           62.25886048599046       60.52603823917137       50.50221517613453
C           63.05893732770303       58.80779485214011       52.15299154965965
C           61.72455153288818       58.51325820379493       52.85177131066056
C           61.93905259064694       58.57926801600595       54.36435387955769
C           61.14863095690289       57.14302137198469       52.44941147055292
C           59.65138803224038       57.12660447280348       52.10743065974273
C           58.80042672275439       57.78148356150994       53.19616497322641
C           59.14893432488254       55.68404749997945       51.93796626691049
C           59.74643548835743       54.86549699328189       50.78179462382469
C           59.14763418602075       55.31750023055474       49.45343174382233
C           59.48893801909370       53.37801842990099       51.07106246244073
C           60.20547911947372       52.31519931857277       50.21539331599844
C           61.65342664790197       52.70372731156753       49.91722488062708
C           59.49257109482254       51.92674215574554       48.91216781507204
C           58.06234100048086       51.38656131634969       49.05690615597629
C           57.94839518952874       50.33346881663110       50.16062155662210
C           57.58588720064922       50.73911349617241       47.74868534292592
C           57.60519794497710       51.60531020654876       46.48296641797371
C           56.65679428158973       52.79262951825967       46.61105329113177
C           57.21872423842189       50.70796435584189       45.29845435516612
C           57.35193910777183       51.29091448471012       43.88278155499270
C           56.86917529609460       50.21945661269223       42.90374173405610
C           58.79813453414364       51.71062015365404       43.59256555007168
C           59.07529459917009       52.31239310088580       42.20560836800773
C           60.59068485653175       52.37789541441650       42.00502432807931
C           58.44158122528233       53.70642195495433       42.05757260041308
C           57.79527013899656       54.02408591099751       40.69868375215871
C           56.64787809040279       53.06252289862946       40.38684415463506
C           58.81992397756225       54.06207210807457       39.56035206790130
C           58.28003213014431       54.64585890069032       38.24680805934604
C           59.21742967870584       54.28060903341490       37.09614563792047
C           58.10988645168830       56.16916153713295       38.32903863089136
C           57.03741044736908       56.72577236467024       37.38131453302712
C           57.26714491519846       58.22087469593525       37.16504232952778
C           55.63507919728606       56.47870771493934       37.95194668609493
C           54.49033106516051       56.68343447481428       36.94134786294859
C           53.46400861836685       57.67751905186320       37.48551619373202
C           53.78183856777820       55.36720844039856       36.59459535099058
C           54.63036716636028       54.35728424128600       35.81239390885867
C           54.83681921134534       54.81733710651899       34.37030010818600
C           53.95369142974715       52.97740809288228       35.82245685617432
C           54.18514968064552       52.17711460975187       37.11087773123066
C           55.54966600761624       51.49012294521150       37.06968694579484
C           53.08718257782360       51.12350123731903       37.31460343672345
C           51.74962950447586       51.68304114715767       37.82006492871933
C           51.84103311136511       52.02940754499063       39.30381295911189
C           50.63243232421210       50.66447687878730       37.56035385928075
C           49.23274773630995       51.17752078259024       37.89228503094787
C           48.16031291945373       50.16224194816228       37.51595255502096
H           71.61979959439816       58.80537757192834       63.24114378698278
H           73.13068803199754       58.66161490561102       62.34849390528123
H           71.80068375335870       57.55595795409298       62.00416583838539
H           48.31331765907123       49.23047448116430       38.05659399423648
H           47.16978229794054       50.54101589111674       37.75860557078896
H           48.19268728149059       49.94716970592764       36.44996296702423
H           50.65299657189637       50.38408457440802       36.50396206676482
H           50.83127062146761       49.76100282771885       38.14252119775895
H           52.92971979753159       50.60946670571902       36.36335630042250
H           53.43751316857502       50.37804558659023       38.03255538917567
H           54.17463667123348       52.86438293347410       37.96188529272294
H           55.56919860695855       50.73902764177085       36.28240318893714
H           56.34330757880240       52.20725185788127       36.87457721723703
H           55.75932425683877       50.99789480473552       38.01681075105502
H           52.88346608331719       53.12128011289595       35.66238352405771
H           54.32793257648709       52.38625696872290       34.98359512510257
H           53.43715900380501       54.90874055987400       37.52458265899575
H           52.89234747563362       55.59452924006430       36.00098412576978
H           51.51519878066366       52.59762137301721       37.26507144145940
H           50.95237672336260       52.55815954877030       39.63489691723336
H           51.95101108744810       51.12517813045660       39.89844543899380
H           52.69847181875075       52.66916312492201       39.49585345469940
H           55.61207883030962       54.27171934546641       36.28608578725890
H           55.31177419266043       55.79449947591078       34.33276442128849
H           55.47109729852665       54.11474948525344       33.83366654142488
H           53.88164904930517       54.88124912372322       33.85255980204255
H           54.90130800787703       57.10614433636790       36.02048528220269
H           52.68916810908408       57.87427183866454       36.74726546834147
H           52.98867312723726       57.28201758792953       38.38115125664433
H           53.94355818023128       58.62176863667710       37.73424050868361
H           55.58440115250286       55.46333585128748       38.34682010529175
H           55.49810382208140       57.15639656925828       38.79734289647735
H           57.12278145111537       56.21942159308917       36.41449645886389
H           58.22877330569887       58.39699684141652       36.68758540963514
H           56.49186769914973       58.64878815411900       36.53422985566011
H           57.25790218172402       58.74435609258428       38.11950382447645
H           57.84730650599727       56.46288422737570       39.34721091066379
H           59.07085253589415       56.63531293058475       38.09917498849255
H           57.30905632973952       54.18910996418765       38.04197641617510
H           60.22417907247127       54.64275614471379       37.29630619060909
H           59.26285522018989       53.20126655434999       36.96373867756464
H           58.87493865070878       54.72273739652478       36.16333645500001
H           59.68152151918682       54.65727667601247       39.87340786220386
H           59.16768174466529       53.04491663168696       39.36880734703026
H           57.36847512384092       55.02913826517159       40.79904369348745
H           57.02395204096587       52.11733790052947       40.00322553952430
H           56.06157851285547       52.86657913228412       41.28097674610947
H           55.98168612069115       53.48227286663173       39.63835629988748
H           57.66714084600468       53.82526803819064       42.81797209248575
H           59.20271743699337       54.46339466706802       42.26199309158895
H           58.66807275033567       51.64465255348748       41.44549240140235
H           61.02789814908997       51.38245878896227       42.05642972968538
H           60.84123739740740       52.80954062837296       41.04043729055458
H           61.04718295621390       52.98871805735856       42.78203344519880
H           59.10994675320148       52.44659863250311       44.33664295929530
H           59.43205029407824       50.82935482131720       43.71424309953968
H           56.69301685201408       52.15920987115148       43.79110249997002
H           57.53884015076697       49.36186822824442       42.92305112481449
H           55.87292225883950       49.88007284773165       43.17980420704129
H           56.82259875290020       50.59646508787108       41.88765130993175
H           57.83381382391636       49.80550967661279       45.33656425463551
H           56.17968643800532       50.39720218140796       45.43938311340461
H           58.62059948920507       51.97824677082811       46.33045018638384
H           55.64180924803536       52.44762923892784       46.79965456183776
H           56.95864803953633       53.44539538392821       47.42588278022160
H           56.65704897296924       53.37931037372519       45.69678006498761
H           58.21305489687713       49.86164546022564       47.57049607016980
H           56.56322594875665       50.38148110563811       47.89792442850950
H           57.38977809228969       52.21243049090955       49.30366229651662
H           56.96490531096702       49.86930666445777       50.13448298737352
H           58.69314818595163       49.55202720813290       50.02199841965203
H           58.08248300505419       50.77360975133604       51.14413807749488
H           59.47370612193581       52.78455090988718       48.24125864122288
H           60.10095642419297       51.15448461167205       48.43124534615166
H           60.24828120846492       51.41283193911819       50.83458020200660
H           61.70615982285832       53.53081984386552       49.21358346756445
H           62.16475280487263       52.99526642443703       50.83162697817300
H           62.18814833829475       51.85990289056981       49.48620831786803
H           59.80430965584915       53.20062370389552       52.10260094285971
H           58.41309573890246       53.20078303422559       51.03444767234589
H           60.82519551172812       55.03209119047064       50.75853423069451
H           59.67312619732843       54.87494568158647       48.61202473869917
H           58.09848772029103       55.03445103660578       49.39264376470812
H           59.21660258314080       56.39769002512917       49.35454061608729
H           59.35171773979203       55.16592297442084       52.87862691000086
H           58.06401183272346       55.70634077500176       51.80994049373182
H           59.50090185242899       57.68417042168468       51.17647722722227
H           58.93077009033010       57.26033748963065       54.14181903849801
H           59.06437314931765       58.82610965117019       53.33904871266942
H           57.74745692140962       57.73195017480100       52.92458748482969
H           61.69719191407749       56.77329825499742       51.58263820057022
H           61.32271150532643       56.43482549483783       53.26190035618153
H           61.01658421204522       59.29750448803442       52.57560438111481
H           62.31090389761192       59.55801573222554       54.66154494621153
H           61.01261545625920       58.39218272507968       54.89860258349136
H           62.67048744769103       57.83326059381211       54.67052535741145
H           63.70597057004776       57.93688981431731       52.26960101151601
H           63.53325802861161       59.64641325215104       52.66990979590162
H           62.38293284395664       58.42034276683936       50.14220210756984
H           61.23560437275855       60.48487247769069       50.86523683493022
H           62.79037744467624       61.29862541858149       51.05440370731032
H           62.22948704277945       60.80834300182853       49.45376164342013
H           64.98691273523659       59.87456262037612       50.72214544414964
H           64.29026115757473       59.83693130605887       49.10863568771722
H           64.98751122571166       57.30350025699206       50.62610390789931
H           64.51091262042577       57.87302851263191       47.66735914507274
H           64.87146245331810       56.29293819579566       48.36340449029176
H           63.35465295754077       57.08998733763654       48.74508079632187
H           66.95192586714329       58.82337878395972       50.32034995351626
H           66.62504901088349       58.86288928543075       48.59174440896260
H           67.04739149091945       56.41003461839731       48.47806159151398
H           68.80077367598943       58.06383346995548       47.95079959518630
H           69.28814495109116       58.11207511817088       49.64321614217017
H           69.50846706730216       56.63478796844723       48.69814918446816
H           66.99868633031998       56.64735286553776       51.36312966779064
H           68.58474888849523       56.07014472845425       50.88992675933567
H           66.00110416653401       54.77841128775041       49.95222231001077
H           67.98326900661634       54.37638934420862       48.49599712480891
H           68.88492522094654       53.79422771554329       49.89400314292207
H           67.46986657526170       52.90990737586867       49.32257947436767
H           67.89541022782784       53.95027674532186       52.18299037397924
H           66.57398807407893       52.96587898688662       51.56063807588866
H           66.24329203363574       55.63595862788072       52.98788261142120
H           63.82928039860762       55.07081564832605       52.97688420334631
H           64.43698527884075       55.26842881729525       51.34077297503967
H           64.16802522707060       53.65093767086451       51.98204119693567
H           65.54738324163213       52.83130431510752       53.89957333818788
H           65.22333384966075       54.33274475247143       54.76934965958739
H           67.92480599007358       53.03105002819341       54.28802955120987
H           68.25533996887364       55.45388847070324       54.01712286126904
H           67.31903204176739       55.77106813509744       55.47638454497046
H           68.87208592628780       54.94265419948902       55.58587130961504
H           66.45088163985920       53.86770825152185       56.80676599544806
H           68.01292309338197       53.05423146810922       56.74808074920588
H           65.33599453575788       51.85758054622604       55.93195341135169
H           66.62661457753291       49.73722486946684       55.67532814939572
H           67.08779540728197       50.94596774740119       54.48459634304116
H           68.12677914126996       50.63944621221437       55.87552877897086
H           67.24684299202089       51.23581409145626       58.21441126473030
H           65.80378759101727       50.30761993280015       57.82473988536049
H           65.80507865069752       53.21727070304758       58.72471353738057
H           63.34560074228020       52.83278751099894       58.97078104269998
H           63.87798896860385       52.77757351832275       57.29450643118916
H           63.52664695251137       51.27870296372819       58.16221235559258
H           64.94957752790579       50.70393089295891       60.19664954197036
H           64.76251232449849       52.35968562012297       60.76310659480297
H           67.37543445446698       50.84983053421554       60.42186435165775
H           68.49020098528270       52.86378227820624       61.29023619606862
H           67.64241185900615       53.26320501873727       59.81170820816811
H           66.94664190802044       53.71636021032420       61.36624826784832
H           65.88000082095847       50.24794134376631       62.26380862020054
H           65.80452743236523       51.91436275498601       62.80272273412338
H           67.18849201637016       50.23769750105700       64.10221448319133
H           68.31194374583205       49.19702421050312       62.15015009737849
H           69.26339271214381       50.66855377453826       61.92297162004721
H           69.44382576185531       49.72111251433066       63.39574489729864
H           68.75285224480034       52.70837359692226       63.29838438821345
H           68.97578013628673       51.71420378951916       64.72777128000341
H           66.56377359039558       53.46747862243543       64.11571528316271
H           65.83278706521391       52.85778256743871       66.43153562205258
H           65.78624132469109       51.48387599500648       65.33509112813194
H           67.10680501054630       51.64367455853653       66.49660087273854
H           68.64129951381805       53.61097871681512       66.33028280592885
H           67.27297976517869       54.69171470988844       66.11492404725391
H           69.65253599649270       54.46044835994080       64.23845516271579
H           68.72659098622523       56.45186665701541       63.12170196725426
H           67.55125714131049       55.15032965179002       63.06312011200824
H           67.34839968869409       56.46338584217935       64.22293479185730
H           70.11435603507672       55.40206699187733       66.49156159075041
H           68.82451552174123       56.57865799313154       66.25668012037409
H           70.08979840035585       57.63035638327770       64.42386912786364
H           71.74643129925477       58.68705496309607       65.88474238112977
H           70.31977884046381       58.30772473679219       66.83557717125110
H           71.75169508317161       57.28467868946038       66.95572391441607
H           71.31981550945989       55.65899672867051       63.61102426347707
H           72.19278523695981       55.54631825947140       65.13826541397910
H           73.32487106424260       57.69674988663283       64.64485408725373
H           73.49775390637501       55.64309866317195       62.39947408282671
H           74.73774171642575       56.82752932523809       62.81366730935981
H           74.33149291355431       55.54230528746729       63.95064053766049
H           49.15920126940996       51.39026799418817       38.95942593328897
H           49.05354777285873       52.11023150963180       37.35201756080525
C           71.62728272563126       50.67977967546258       55.35439442955887
C           71.25415166870846       51.98845639217456       56.04545806641114
C           71.67167761892514       53.17250602753689       55.17393116091829
C           71.90773599923467       52.11714796084289       57.42674938576301
C           71.57411084274810       51.01767619987277       58.44635570049539
C           70.06673706937194       50.88632561626027       58.64450243208127
C           72.27001793981982       51.35681849173947       59.77290584392904
C           72.31548024115862       50.22255282869732       60.80629696987103
C           72.63992968188386       50.80834706905328       62.18010678789339
C           73.34853774293966       49.15538384475857       60.42393303391621
C           73.10988562312247       47.79152480487857       61.09015540988151
C           74.40936899149453       46.98807592560841       61.09350041339056
C           71.99515295913206       47.02820280763621       60.36344341258155
C           71.40678680144464       45.83346420598350       61.13152545403525
C           70.64509896365777       44.93705327405590       60.15602635124587
C           70.50035229260119       46.32151918452645       62.26905667929260
C           69.86853925655225       45.24250068962458       63.16358112968616
C           68.91659593742013       45.92522454212370       64.14628622990637
C           70.94381083927041       44.43556794192937       63.89926249375743
C           70.45749209228569       43.24361831670812       64.74034320544426
C           71.63672502834457       42.72997614152941       65.56713900688713
C           69.89181328486168       42.14368141647899       63.83494217762215
C           69.30651777542678       40.91509814195542       64.54347561886544
C           68.96897343399380       39.85504518605308       63.49286217163717
C           68.05635217863845       41.25413415846280       65.37827928889421
C           68.26084602247440       41.17969559233839       66.89686328079593
C           68.49809317760834       39.73381975841893       67.33521603141321
C           67.03489307502284       41.71651045886043       67.65079315871471
C           66.80195256500997       43.22912468335807       67.57502349938727
C           67.87005949960550       43.99412971958229       68.35715133922392
C           65.41803695190632       43.59952330010260       68.13179569284465
C           64.20926184428134       43.03244661474904       67.37421921582731
C           64.33864327969778       43.27146909319954       65.87081150092332
C           62.90304794851544       43.67838179720563       67.85907848454151
C           62.53253604884393       43.45849580351611       69.33058266766402
C           62.32911503325245       41.97381863340145       69.63168196310606
C           61.24289248281318       44.22099703358457       69.67768855186723
C           61.37869378786962       45.74634497063841       69.73868322884334
C           62.19165235084178       46.16861541328065       70.96321793730225
C           60.01203590830924       46.44382119283198       69.80999188044794
C           59.03718251267336       46.22721551408173       68.64165802946616
C           59.73044040215860       46.26245783626678       67.28061782867530
C           57.95013310123927       47.31347880479260       68.64307799603976
C           57.08145903787178       47.40891899408572       69.90215171911761
C           56.10759595433230       46.23418823605275       69.97999416364814
C           56.30667379098880       48.73532289620008       69.90375750218072
C           57.14120230781341       49.96091824217790       70.31292534363503
C           57.29745823125271       50.01232867900607       71.83010312158636
C           56.46333135272209       51.22182437059007       69.76237093587744
C           57.11687079342025       52.57775578755680       70.07497096354544
C           56.33585874088406       53.65270835675354       69.31660528426326
C           58.60343332672974       52.58426172506395       69.69562266887576
C           59.30785962171292       53.95035621666588       69.73685907021452
C           60.77646050063275       53.75763501009551       69.35929892938442
C           59.17121636108370       54.61379107790447       71.11300529964433
C           59.83862729760042       55.98999122130187       71.28190049931862
C           59.57431246089446       56.47800989304568       72.70653514549593
C           59.32160068874417       56.99172822361506       70.24325949372911
C           60.01663296557266       58.36072116364791       70.21548733773679
C           59.33517320749625       59.23560694178370       69.16137306879266
C           61.52675219671988       58.24714993615801       69.92687370577997
C           62.40968319859581       58.64747685440172       71.11584257743374
C           62.43554549650950       60.17011070106966       71.25420725077477
C           63.84519143869479       58.12528901327452       70.96602048762040
C           64.03576623877147       56.62239211601593       71.20858308022407
C           63.69766542481638       56.24232296360663       72.65118014301866
C           65.48842721766754       56.20258946602262       70.93563121077278
C           65.99189672848328       56.37153381105008       69.49855641611697
C           65.16195676031575       55.53841183635235       68.52288667648648
C           67.46423263096177       55.94990032880992       69.37523538319975
C           68.46111514874346       56.69056300911446       70.27341005574932
C           68.38037147796102       58.20374506851657       70.06823907140614
C           69.90093165680614       56.23748536127726       69.99083485196810
C           70.19421768834228       54.73926841325090       70.14267453207098
C           69.78407034596155       54.21312563770413       71.51645769264208
C           71.69535973032603       54.49468934779154       69.91634704034577
C           72.02493598641499       53.09352789722838       69.38016382438789
C           73.47676975644579       52.74280826102191       69.70082920167842
C           71.77191737347030       53.05212491179292       67.86887513582737
C           71.69919426257134       51.65477688649322       67.23913539295782
C           71.89373105823398       51.78873073318843       65.72880534012589
C           70.36127185023069       50.97838759811970       67.56417781371792
C           70.31268961996724       49.47084293166932       67.27260139193544
C           68.85907123899987       49.01111400909635       67.17055739005757
C           71.06004850408648       48.69033809582314       68.36033361189661
C           71.34519642575098       47.21732596354711       68.04167251131238
C           72.04275055831772       46.56819478147299       69.23749229722800
C           72.15084220847675       47.00573059156295       66.75124410338010
C           73.46419701969195       47.77788913738650       66.64718405813420
C           74.20884762968346       47.41620972778129       65.36649186486190
H           72.70876903787840       50.58354435998849       55.28238580769067
H           71.24122295783990       49.82306151929076       55.90149386843616
H           71.21505517012254       50.65533249793513       54.34726908052329
H           74.45301561626076       46.35599016416311       65.34956503445522
H           73.59873840779683       47.63596640927548       64.49250022051471
H           75.13419723761994       47.98218529191563       65.28689308496884
H           72.37118006133720       45.93774991746981       66.66920032006503
H           71.52611668786918       47.26935938990054       65.89432408245035
H           72.00886255093238       49.18466433709226       68.57279942760762
H           70.46759300000896       48.72997629871319       69.27897317766633
H           70.79382904307639       49.28966239195673       66.30873467825174
H           68.79820439787369       47.94301648522083       66.97824978056060
H           68.32818607936254       49.22289154675874       68.09627900759513
H           68.35243837217183       49.52590113653871       66.35703902433094
H           70.12538920497052       51.13066144160639       68.61959129570386
H           69.58148206059114       51.47699631011564       66.98361547497252
H           70.83378134080796       53.56708654398452       67.64994032244839
H           72.57245843981129       53.61473919591208       67.38122991812733
H           70.38926233516085       46.69859523531454       67.90384708879211
H           72.25579719630538       45.52062399526361       69.03561014116558
H           72.97902597662356       47.07258881292780       69.46383117581665