3864
 energy: -5104.073622617196 gnorm: 0.000925311975 xtb: 6.6.1 (8d0f1dd)
C           46.23334982220343       31.61277843198527       42.58908445794914
C           47.58019249407364       31.91091789420368       42.41640235232599
C           48.12454606799716       32.95825516158141       43.14780584318727
C           47.35303214287313       33.67710976689397       44.04381380074456
C           46.01514043471503       33.36759579867006       44.21052720136775
C           45.45575528670425       32.33709108352818       43.47477017937122
C           48.45509370920645       31.10713902640697       41.48603899391190
C           48.57177994846085       29.66628216307772       41.98890717149685
C           47.92633119582231       31.14257308578474       40.04721373429529
C           47.95621697782101       32.55980073419808       39.46895747509767
C           49.35079624728796       33.10856740230346       39.29048203137094
C           49.61255217470019       34.42673926561268       39.64633112408710
C           50.85840977667501       34.98807915616648       39.43684968513925
C           51.87560455770674       34.23237936973261       38.88026559516658
C           51.62682676612910       32.92038935349277       38.51825162934389
C           50.37316868857713       32.36768230047497       38.71157321644021
C           47.20932960897064       32.62641573594531       38.12127803208829
C           45.70827076232536       32.91163201430852       38.28908994089148
C           44.93641309104716       32.55567476783328       37.04425191396896
C           45.31525994345530       33.03944610653015       35.79576596463485
C           44.56871609265445       32.74876476979939       34.66848652703082
C           43.43330319613969       31.96180184328995       34.76695278063967
C           43.05544406081130       31.46177135115612       36.00041369742291
C           43.80152032713175       31.75885905936396       37.12777824657386
C           45.49201977747636       34.38688557258931       38.65881569883182
C           44.00848812034027       34.78286728398298       38.83789631277798
C           43.87568622551557       35.59536624543069       40.10281630135475
C           43.75463006702388       34.91746842483103       41.31210469058536
C           43.69995253361612       35.59939373279511       42.51279390136488
C           43.75472960459278       36.98206693933352       42.52454753318033
C           43.86615070900676       37.66968223396791       41.32953678740791
C           43.93706766600625       36.98290127751113       40.12956763092144
C           43.49143237015305       35.47527407100063       37.57250135493083
C           42.03524748815031       35.96561427923219       37.65039244829894
C           41.16934250098926       34.90350700587614       38.28014661675639
C           40.84233182215402       33.73529395099839       37.60109568399800
C           40.08435196394828       32.75243068088940       38.21118440875538
C           39.64331823326798       32.91508334696201       39.51373178105425
C           39.96017534849163       34.07407468357924       40.20016121013473
C           40.71602057180057       35.05672712832822       39.58529752819925
C           41.53024914790601       36.34846402572909       36.25066671153068
C           42.20975189143424       37.60526583232871       35.66553801734010
C           42.53928932203775       37.38766710268641       34.21044614677845
C           41.53520250670943       37.15546701604426       33.27748915794804
C           41.84452983481113       36.94690245133702       31.94624448096799
C           43.16415536027401       36.95759282809230       31.52614594634431
C           44.17152922430368       37.18178617382539       32.44814844425896
C           43.85929821448843       37.39853451311468       33.77871299109440
C           41.33115883262237       38.85037826476095       35.85061896551476
C           41.93680668065406       40.07902420073074       35.16631441261787
C           43.32730549799404       40.41559493508975       35.65241611737423
C           44.30095586856950       40.81758267331113       34.74541354492718
C           45.54090652810682       41.25116643393877       35.18179598650967
C           45.83037969832811       41.28873836434634       36.53415795078136
C           44.88430573308062       40.85329259613591       37.44339866409266
C           43.64353226338455       40.42630764138345       37.00620948868769
C           41.09110830023126       41.35330546654930       35.34903095133494
C           39.60039742476148       41.25197132668129       34.98108757929077
C           39.33640357936230       40.39081242552221       33.77189271976443
C           38.37739534067875       39.38678168116188       33.84111384204952
C           38.08726226879382       38.60370359301183       32.73836467354645
C           38.75178137389733       38.81734909186375       31.54375138361531
C           39.70579278738369       39.81671000955450       31.46283991703731
C           39.99574259512423       40.59896661981029       32.56614421806010
C           39.02240782876105       42.65500547962660       34.71509650848184
C           38.83794408351750       43.50499401371292       35.98778572968354
C           37.52349095027500       43.13587077571071       36.63114878018491
C           36.31588998361914       43.58099923967531       36.10472883945270
C           35.11220564462043       43.18931410362086       36.66224644757207
C           35.09281355037538       42.34367077991258       37.75855643379924
C           36.28777964015892       41.90072686286909       38.29698962448139
C           37.48950972115348       42.29076731476965       37.73302296613170
C           38.93523970537520       45.00336628439709       35.65528578154336
C           40.39681144267437       45.46036676436010       35.45549415529171
C           40.45734544677377       46.52435166396889       34.38663838653542
C           41.14606485223313       46.30772533252873       33.20103005383878
C           41.21285404474767       47.29109801777189       32.22984771935666
C           40.57814918321958       48.50499630710041       32.42401062855951
C           39.86674028049816       48.72372933106955       33.59193196851912
C           39.80681300567208       47.74119541451957       34.56361694037354
C           41.03771390053049       45.96969496081355       36.76291900383355
C           42.52693971049845       45.60062078156933       36.92941450533492
C           43.29608378782581       45.64472288804356       35.63083222077648
C           43.67606098742537       44.46009916239792       35.01105264532634
C           44.38483515982916       44.47121256708838       33.82270186698281
C           44.74748260314539       45.67519089471224       33.24689085838044
C           44.39489925233168       46.86355847879894       33.86292971243398
C           43.66820111001901       46.84569181758390       35.03884089902162
C           43.20698513358063       46.52848467928971       37.95036180585753
C           42.87700935632054       46.23943880195929       39.42807092891851
C           42.32403219302607       47.45161544565062       40.13693991301921
C           42.92431156933877       48.69552470487207       39.97973285260914
C           42.45573722110804       49.79890429582102       40.66648827044573
C           41.39253090723012       49.67795248456328       41.54196260921660
C           40.79936655619090       48.44049608816961       41.72100364641562
C           41.25749751740790       47.33813823784937       41.01983968783367
C           44.13332502158740       45.80555124495806       40.20441477394188
C           44.76427794519397       44.49358603258835       39.69386470508459
C           46.14705127998927       44.74253561477411       39.14417569583231
C           46.41689531444445       44.57840552850272       37.79102962164784
C           47.67811884647207       44.84328327109937       37.28589780363424
C           48.68682088242188       45.27074281918114       38.13094703647423
C           48.43522178183186       45.42633078938334       39.48251746361369
C           47.17450779333790       45.16222025806698       39.98276593236915
C           44.84891064746625       43.43595415136777       40.80064664865733
C           43.49186369517211       42.91530904269109       41.29006042846142
C           43.68084713484706       42.13132808969591       42.56291137964906
C           44.52041184850783       41.02471458062721       42.60129173762019
C           44.63401966195919       40.26318275479428       43.75000664952448
C           43.91459665005660       40.59877707673382       44.88285075178281
C           43.10499965405958       41.72184798014874       44.86655324983387
C           42.99395447164392       42.48136308300605       43.71763785984989
C           42.80353731541638       42.02755690202546       40.24702132887663
C           41.43332704475221       41.52923941937203       40.72244522943547
C           40.44252005397991       42.65244910161174       40.88759922615299
C           40.05135325644682       43.43089891225274       39.80548883109948
C           39.05454435375214       44.38141040875494       39.93785307091365
C           38.44840051117467       44.58286610202116       41.16483072773561
C           38.87098427155592       43.85625672758636       42.26515215120527
C           39.85617240614116       42.89573193944897       42.12418483161344
C           40.89863333401331       40.47310956600039       39.74421501246504
C           39.52873893569890       39.90083916086795       40.14085713001191
C           39.54780955392160       39.45077011510234       41.57689383998216
C           38.66356217685670       40.01343298851001       42.48921098081178
C           38.70674350497489       39.66728966078703       43.82720160980568
C           39.62915352128867       38.73737688998391       44.27352949674716
C           40.50264591847932       38.15664056541866       43.37075971551403
C           40.46788589967962       38.51560296092740       42.03651191096073
C           39.15044510718329       38.78981695418444       39.14978412880453
C           37.72433458441841       38.24094131383936       39.31066412853180
C           37.27131701226196       37.64778371653171       37.99708821930578
C           36.26046726046447       38.25227417429040       37.26058353357877
C           35.83725132095590       37.71132535788856       36.05864454895227
C           36.42435638421480       36.55694742626487       35.57068733764793
C           37.44404370079607       35.95541953232860       36.28759675665520
C           37.86308575652371       36.49639999152826       37.48900050131283
C           37.63333861055998       37.20158033463213       40.43204466192658
C           36.20934091936500       36.65726848275389       40.58734850267250
C           35.24942805370206       37.75055904405305       40.97866458788376
C           34.15725869058909       38.04403104936123       40.17227482268041
C           33.29196843053439       39.07448726522887       40.49685269618185
C           33.50756323871385       39.83095133150204       41.63526237676422
C           34.58426694725490       39.53912212710897       42.45505853221147
C           35.44379002210853       38.50517261000877       42.13045802271716
C           36.18702237065158       35.49393299012721       41.58932322248315
C           34.98720611404964       34.56760112365814       41.36220953239639
H           49.45678841410025       31.55306372449660       41.49050226508098
H           48.52271629622248       30.46961584609667       39.42946105051392
H           46.89862395421750       30.77504397250030       40.02599321561055
H           47.44244291580200       33.21021825120757       40.18430332538610
H           47.65601700178598       33.41056267532892       37.50615759119525
H           47.34172333962373       31.68112631458003       37.59021702969204
H           45.32751040155668       32.29771090646713       39.11317741329211
H           46.02628746550498       34.58608157321473       39.59015014544851
H           45.94379333592948       35.01128874486761       37.88657411195961
H           43.42616271307757       33.86640773187218       38.97960416956447
H           43.57171103965988       34.76207001320152       36.75038657448317
H           41.99127947928682       36.85409175713506       38.28907521099558
H           41.70922131781175       35.50948789845951       35.57518465252905
H           40.45087011793593       36.51051647356861       36.29413113319653
H           43.15254069850480       37.78410597149765       36.19009708558249
H           40.34924381796249       38.66138401125138       35.41603364497328
H           41.19110331026118       39.03115137226813       36.91696704763880
H           41.99342359648124       39.86256697625893       34.09448015656734
H           41.17059669736150       41.67108252857542       36.39214345217372
H           41.55524681153499       42.13259385439106       34.73826523287345
H           39.05398551389219       40.81473865861500       35.82452998716773
H           39.64052969223471       43.26911228242284       36.69151201060523
H           38.37438541204414       45.20258144641759       34.73975029912169
H           38.47464846556338       45.58788042210610       36.45443726403069
H           40.97250311015100       44.59991482135784       35.10290572426766
H           40.93431224639558       47.05514828809856       36.81100751339144
H           40.49718669434735       45.56242985720908       37.61878413049102
H           42.57518380962423       44.56605334135257       37.29236837478948
H           44.28681787514167       46.46049366202714       37.80641025673344
H           42.91606793672977       47.55251435791843       37.71450264444925
H           42.13646724867780       45.43515125450197       39.49270438082945
H           44.86538176712023       46.61142433510572       40.13656196546218
H           43.87259153321009       45.70636510113459       41.26094492730957
H           44.15354722081019       44.09499606996838       38.88077659232462
H           45.44418099791538       42.59920832467032       40.42817116394557
H           45.37879664436412       43.86371072933312       41.65489449174263
H           42.83759908753848       43.76704664387179       41.50149519500251
H           42.69098008830895       42.57709685458209       39.31171713885772
H           43.43582266216210       41.16099776630957       40.04627174560779
H           41.56620695127875       41.04584495357693       41.69645169052735
H           40.81778703010208       40.90936167259923       38.74528834681346
H           41.62170029573429       39.65480561908620       39.69484369423228
H           38.78457081711500       40.70044473472888       40.05497501635044
H           39.23556875177027       39.20518637174816       38.14124051121905
H           39.86127146715452       37.96543673986108       39.22705522259967
H           37.05648216738893       39.07303598842585       39.55771157024896
H           38.30108141917977       36.36985361881543       40.20279566494205
H           37.96416919163363       37.64290289272243       41.37063976826269
H           45.78411106143795       30.80081034991106       42.03513084566192
H           44.41120664562982       32.08768379786217       43.59993322944256
H           45.42008430928314       33.92389025195531       44.91940146205771
H           47.79744344713642       34.47269046796288       44.62408301448578
H           49.16933508673798       33.20093653453466       43.01925920663970
H           48.82829313843473       35.02715790207758       40.08570477218009
H           51.03635819868601       36.02131052580519       39.69896763729636
H           52.85247994775779       34.66768202569923       38.72804544162558
H           52.41135656463612       32.32485434875674       38.07362213642736
H           50.19586786826920       31.34878020238441       38.40156407549337
H           46.19915028652839       33.65141356200672       35.70019906397217
H           44.87195818700071       33.14103512996510       33.70851523772688
H           42.84906254874847       31.73829154108644       33.88627032560250
H           42.17611898948823       30.84007641280223       36.08734118918313
H           43.49199431123818       31.36678460476359       38.08701376976095
H           43.71011987165815       33.83755679612704       41.30912739999982
H           43.61906793517206       35.04952664243893       43.43913208014630
H           43.70839891257724       37.52595622034765       43.45623887900855
H           43.89864809536615       38.74881326133148       41.33590090916995
H           44.04380640108313       37.54360846753713       39.21253317684943
H           44.14130136046374       36.31886475610761       37.33129081671503
H           41.19296008460139       33.58321528088205       36.59164582425909
H           39.84128083887084       31.84949746232223       37.66967209737051
H           39.06196163310375       32.13819471013130       39.98972810235369
H           39.62478724716679       34.21809863668221       41.21773726736512
H           40.96631162695322       35.95079805210722       40.13878734716585
H           40.50232110657216       37.14191282568041       33.59227352358504
H           41.05096601503303       36.77467309626871       31.23390338681190
H           43.40646962369554       36.79034180359915       30.48643169981233
H           45.20488503466367       37.18504412228411       32.12958883061975
H           44.65252113132335       37.58315616532074       34.49043325556165
H           44.07716020227960       40.80069278795790       33.68762894384576
H           46.28630144628629       41.57075203959648       34.47033051378789
H           46.78166878847727       41.66421344241618       36.87679305796312
H           45.11638429200244       40.85672088819286       38.49875999325955
H           42.91088801996334       40.10811915520294       37.73119849728717
H           37.84844543232774       39.21335883693821       34.76926351317038
H           37.34065755918112       37.82701402757242       32.81673544879092
H           38.52483884001210       38.21110973617947       30.67877477778644
H           40.22433982627814       39.98814010710915       30.53133204919321
H           40.74017535674167       41.37762423752854       32.48284162567605
H           39.67721499027420       43.17636474070857       34.01424859724120
H           38.05005013775190       42.54622009132860       34.22767796814451
H           36.31340040317475       44.23590709054271       35.24583635548159
H           34.18407616313166       43.54285127676604       36.23630641750405
H           34.15376396898144       42.02789229680197       38.19001648597945
H           36.27807872998359       41.25042499182771       39.16059314527345
H           38.41536495133570       41.93377838107639       38.15832513093977
H           41.64828696429859       45.36456552186719       33.03828142116467
H           41.76464881824340       47.10687567613100       31.31956950688157
H           40.63165541901503       49.27583548366497       31.66878832582434
H           39.36038531937723       49.66574827240999       33.74828115190559
H           39.24802444809560       47.92537132206970       35.47084192722788
H           43.41997826654329       43.50937406062744       35.46094223382007
H           44.64644485486762       43.53597301185833       33.34980692261453
H           45.30168897490657       45.68825766362216       32.31991725113554
H           44.68140438007629       47.80915468526812       33.42541220594419
H           43.39230262591166       47.77991049222438       35.49968779676674
H           43.77109211666013       48.81021550800831       39.31938770498144
H           42.92737880260960       50.75661759855051       40.51723386416062
H           41.03671064533110       50.53871548764189       42.09002622657975
H           39.97376003589789       48.34054959553457       42.40909570216169
H           40.78183213321966       46.37640629751869       41.16248071846755
H           45.63428575487122       44.25038661100396       37.12097679693913
H           47.86781032637496       44.71964368744658       36.23037746361318
H           49.66863111080892       45.48846445992977       37.74207511530660
H           49.21955367706678       45.75758745416909       40.14690725213500
H           46.98606193944514       45.28886491720005       41.03762622387417
H           45.09571316773236       40.74756480679111       41.72926210183040
H           45.28506423623347       39.40085008304180       43.75017243352380
H           43.99487824262069       40.00043016752885       45.77819573825156
H           42.56693545602496       42.01418844764162       45.75614549342156
H           42.36136426247378       43.35728092798654       43.70702303506965
H           40.51586270912195       43.28024481696666       38.84100509685024
H           38.73440444400871       44.95250159110433       39.07803506004532
H           37.63999059262499       45.28980817092452       41.26475037409543
H           38.40935965739725       44.02053692516606       43.22766388151055
H           40.15820496453269       42.30713573724206       42.97871452602661
H           37.93340743344049       40.73360331044626       42.14989247528244
H           38.02750374783474       40.13911105804083       44.52237467210784
H           39.66785994672270       38.47028389299706       45.31886958912291
H           41.22165163277381       37.42215047804805       43.70089268989695
H           41.17092440546121       38.06262285417565       41.35315527175743
H           35.79558673176489       39.15464324210218       37.63234969601259
H           35.04573697445084       38.19394001122202       35.50309907262444
H           36.08844943550258       36.12790768160642       34.63802249840261
H           37.91590923108521       35.05856386258796       35.91290378618846
H           38.65434608368087       36.00753542372595       38.03690009614476
H           36.28837761966852       38.29471828561356       42.77218757554387
H           34.75893243430784       40.13072146534623       43.34249605110283
H           32.84532800050798       40.64829212815759       41.88051316679523
H           32.45019769781101       39.29123533830415       39.85461519199379
H           33.99241502821366       37.46248804042846       39.27568005162233
H           49.26206518895467       29.10280235422621       41.36491757210812
H           48.94299473747926       29.65575500877158       43.01136883252455
H           47.60499887858931       29.16855029777950       41.96895121092690
H           35.90160426164309       36.26771320909633       39.61145597576175
H           37.10930369225270       34.91889472534638       41.48739843741589
H           36.16253094013779       35.88546839964457       42.60725836768835
C           35.04359337116075       33.34414862570966       42.29051717082270
C           34.91307002223668       34.10903742522349       39.92533457570635
C           33.71578429176242       34.20530342455624       39.22723678233806
C           33.62925359937756       33.80525873007088       37.90540139045913
C           34.74382087570493       33.30216059077806       37.25754775553884
C           35.93955031816082       33.19135509560668       37.94543988621621
C           36.02068389599595       33.58622615988059       39.26774717441415
H           32.84354280666243       34.60525078817524       39.72631843539467
H           32.68988678835431       33.89188230829830       37.37834250275295
H           34.68002572055545       32.99847855465845       36.22296951595406
H           36.81701521839091       32.80001857952376       37.45133786935318
H           36.96435651888437       33.50014890913862       39.78337007394943
C           34.68983234091083       33.67278061296260       43.74788099255206
H           34.33961278164750       32.59304564104109       41.92315137477090
H           36.04592706178559       32.91165005985354       42.25236196376662
C           33.25550636802151       34.10031216269847       43.86587216368632
C           32.24578449766351       33.14554038120097       43.88748745842742
C           30.91645218033337       33.52139826515680       43.94280951502764
C           30.57720134000699       34.86360784809808       43.97124597294111
C           31.57429484097970       35.82233715237815       43.95022115029213
C           32.90436480289758       35.44347733854386       43.90061557667522
H           32.50630571236528       32.09636290581434       43.86224301501218
H           30.14326211380727       32.76685136723843       43.96191433013881
H           29.53909477652457       35.15962795490263       44.01098217101199
H           31.31650698469074       36.87047396255234       43.97110464851057
H           33.67485215780751       36.20081682895266       43.89141278914400
H           34.07064490397115       35.12512074374479       41.58330262613959
H           34.85327128221083       32.77655531387015       44.35118928762355
H           35.35075043591683       34.45598262932699       44.12057620421608
C           49.30541810527104       67.45624603261803       48.64370266835095
C           50.06156939820893       66.67980701121576       49.51382731575585
C           51.07632164949367       67.29509604932582       50.23487822067367
C           51.34192622983668       68.64413592136465       50.08216956237603
C           50.59055434483739       69.40342012757225       49.20313341483595
C           49.56774558641860       68.80485386110878       48.48787617978796
C           49.79874164132569       65.20282831701431       49.67300663355520
C           48.42188845662128       64.96353829516563       50.29102674793062
C           49.92773389002897       64.47650449195712       48.32785684200854
C           51.35350225823740       64.59430186391049       47.77271501962433
C           52.30633838668222       63.79279241185458       48.61996404023678
C           53.30207668500110       64.42549697665208       49.35411017011877
C           54.15000211265910       63.69820034207646       50.17055750682523
C           54.02287007150704       62.32178909473348       50.25652881619279
C           53.04031844583903       61.67903445325062       49.52146406104797
C           52.18941004074724       62.41089222810240       48.71325284714078
C           51.42659174289508       64.17902056040612       46.29799557474704
C           52.79916062403782       64.50407292384301       45.69612713183717
C           53.13962581679573       65.96341896884805       45.88417159206127
C           52.27917015049163       66.97267902737178       45.46800601132988
C           52.60214476108323       68.30286711097082       45.66375372478462
C           53.79819909324146       68.64788693477615       46.26924218402359
C           54.67124585257470       67.65218727760282       46.67033113959807
C           54.34235829968362       66.32199022583133       46.47903932477963
C           52.88677910906162       64.14958782858047       44.20200571354657
C           53.10793192800539       62.65146769715366       43.92281889470377
C           51.80530255707993       61.89913847541769       43.82961326765425
C           50.91910459929579       62.13209643112604       42.78338967341509
C           49.73118321802996       61.43004878277104       42.69082232269799
C           49.40575817511218       60.48017669985903       43.64378354349460
C           50.28158665080356       60.23142781506876       44.68643523301110
C           51.46870858098815       60.93835694330068       44.77520333148252
C           53.92284817112194       62.46208328592308       42.62970671662300
C           55.41530363676263       62.76153294385275       42.84237552938399
C           56.06357758862413       63.27980678662005       41.58339054306835
C           56.80915831626402       64.45193923761599       41.60888865062451
C           57.44222634519558       64.91596400625433       40.46873482572634
C           57.32924246496592       64.21653879098280       39.27949478987586
C           56.57811020027600       63.05371545267232       39.23750541955165
C           55.95652932317827       62.58723042979034       40.38251723485230
C           56.17401828836220       61.51822640670269       43.33422369058636
C           57.52447092237352       61.91806920859550       43.93934481051286
C           57.34572471701655       62.68887867859092       45.22636625568147
C           58.01502963144856       63.89309362204084       45.41007012662466
C           57.87158199810539       64.61834315480233       46.57933978294898
C           57.04652928769683       64.15225820043864       47.58795814790454
C           56.37979447190381       62.95039306459456       47.42145750410582
C           56.53415065980728       62.22504467658564       46.25407187346563
C           58.46125302908485       60.72295195239268       44.18638491095882
C           58.93949855792608       60.00460981675306       42.91140668965368
C           59.74729748494176       58.78120044726366       43.27518756814229
C           59.33311312528423       57.51737619170137       42.87275256672144
C           60.08180930538519       56.39180556855694       43.17108864237820
C           61.26421180585294       56.51407115509056       43.88033353326215
C           61.68346007021137       57.76620343478719       44.29758128368145
C           60.92962232554483       58.88701508463173       44.00032614460387
C           59.74996099647908       60.93381637218772       41.99482429025099
C           60.07072482483440       60.33610302784952       40.61526064566773
C           61.02848616728099       61.24040280433326       39.87637115554705
C           60.70337941733124       62.56767176356375       39.61702912115787
C           61.57133989158874       63.38295111620975       38.91435777941851