      -----------------------------------------------------------      
     |                   =====================                   |     
     |                           x T B                           |     
     |                   =====================                   |     
     |                         S. Grimme                         |     
     |          Mulliken Center for Theoretical Chemistry        |     
     |                    University of Bonn                     |     
      -----------------------------------------------------------      

   * xtb version 6.6.1 (8d0f1dd) compiled by 'stahn@M-Bot' on 2023-08-01

   xtb is free software: you can redistribute it and/or modify it under
   the terms of the GNU Lesser General Public License as published by
   the Free Software Foundation, either version 3 of the License, or
   (at your option) any later version.
   
   xtb is distributed in the hope that it will be useful,
   but WITHOUT ANY WARRANTY; without even the implied warranty of
   MERCHANTABILITY or FITNESS FOR A PARTICULAR PURPOSE.  See the
   GNU Lesser General Public License for more details.
   
   Cite this work as:
   * C. Bannwarth, E. Caldeweyher, S. Ehlert, A. Hansen, P. Pracht,
     J. Seibert, S. Spicher, S. Grimme, WIREs Comput. Mol. Sci., 2020, 11,
     e01493. DOI: 10.1002/wcms.1493
   
   for GFN2-xTB:
   * C. Bannwarth, S. Ehlert and S. Grimme., J. Chem. Theory Comput., 2019,
     15, 1652-1671. DOI: 10.1021/acs.jctc.8b01176
   for GFN1-xTB:
   * S. Grimme, C. Bannwarth, P. Shushkov, J. Chem. Theory Comput., 2017,
     13, 1989-2009. DOI: 10.1021/acs.jctc.7b00118
   for GFN0-xTB:
   * P. Pracht, E. Caldeweyher, S. Ehlert, S. Grimme, ChemRxiv, 2019, preprint.
     DOI: 10.26434/chemrxiv.8326202.v1
   for GFN-FF:
   * S. Spicher and S. Grimme, Angew. Chem. Int. Ed., 2020, 59, 15665-15673.
     DOI: 10.1002/anie.202004239
   
   for ALPB and GBSA implicit solvation:
   * S. Ehlert, M. Stahn, S. Spicher, S. Grimme, J. Chem. Theory Comput.,
     2021, 17, 4250-4261. DOI: 10.1021/acs.jctc.1c00471
   
   for DFT-D4:
   * E. Caldeweyher, C. Bannwarth and S. Grimme, J. Chem. Phys., 2017,
     147, 034112. DOI: 10.1063/1.4993215
   * E. Caldeweyher, S. Ehlert, A. Hansen, H. Neugebauer, S. Spicher,
     C. Bannwarth and S. Grimme, J. Chem. Phys., 2019, 150, 154122.
     DOI: 10.1063/1.5090222
   * E. Caldeweyher, J.-M. Mewes, S. Ehlert and S. Grimme, Phys. Chem. Chem. Phys.
     2020, 22, 8499-8512. DOI: 10.1039/D0CP00502A
   
   for sTDA-xTB:
   * S. Grimme and C. Bannwarth, J. Chem. Phys., 2016, 145, 054103.
     DOI: 10.1063/1.4959605
   
   in the mass-spec context:
   * V. Asgeirsson, C. Bauer and S. Grimme, Chem. Sci., 2017, 8, 4879.
     DOI: 10.1039/c7sc00601b
   * J. Koopman and S. Grimme, ACS Omega 2019, 4, 12, 15120-15133.
     DOI: 10.1021/acsomega.9b02011
   
   for metadynamics refer to:
   * S. Grimme, J. Chem. Theory Comput., 2019, 155, 2847-2862
     DOI: 10.1021/acs.jctc.9b00143
   
   for SPH calculations refer to:
   * S. Spicher and S. Grimme, J. Chem. Theory Comput., 2021, 17, 1701-1714
     DOI: 10.1021/acs.jctc.0c01306
   
   with help from (in alphabetical order)
   P. Atkinson, C. Bannwarth, F. Bohle, G. Brandenburg, E. Caldeweyher
   M. Checinski, S. Dohm, S. Ehlert, S. Ehrlich, I. Gerasimov, C. Hölzer
   A. Katbashev, J. Koopman, C. Lavigne, S. Lehtola, F. März, M. Müller,
   F. Musil, H. Neugebauer, J. Pisarek, C. Plett, P. Pracht, F. Pultar,
   J. Seibert, P. Shushkov, S. Spicher, M. Stahn, M. Steiner, T. Strunk,
   J. Stückrath, T. Rose, and J. Unsleber
   
 * started run on 2024/10/04 at 20:50:56.236     

           -------------------------------------------------
          |                Calculation Setup                |
           -------------------------------------------------

          program call               : /home/abt-grimme/AK-bin/xtb input.xyz --input input.inp --opt
          hostname                   : boar018.thch.uni-bonn.de
          coordinate file            : input.xyz
          omp threads                :                     8

   ID    Z sym.   atoms
    1    6 C      1-146, 294-300, 306, 309-314, 323-468, 616-622, 628,
                  631-636, 645-790, 938-944, 950, 953-958, 967-1112,
                  1260-1266, 1272, 1275-1280, 1289-1434, 1582-1588, 1594,
                  1597-1602, 1611-1756, 1904-1910, 1916, 1919-1924,
                  1933-2078, 2226-2232, 2238, 2241-2246, 2255-2400,
                  2548-2554, 2560, 2563-2568, 2577-2722, 2870-2876, 2882,
                  2885-2890, 2899-3044, 3192-3198, 3204, 3207-3212,
                  3221-3366, 3514-3520, 3526, 3529-3534, 3543-3688,
                  3836-3842, 3848, 3851-3856
    2    1 H      147-293, 301-305, 307, 308, 315-322, 469-615, 623-627, 629,
                  630, 637-644, 791-937, 945-949, 951, 952, 959-966,
                  1113-1259, 1267-1271, 1273, 1274, 1281-1288, 1435-1581,
                  1589-1593, 1595, 1596, 1603-1610, 1757-1903, 1911-1915,
                  1917, 1918, 1925-1932, 2079-2225, 2233-2237, 2239, 2240,
                  2247-2254, 2401-2547, 2555-2559, 2561, 2562, 2569-2576,
                  2723-2869, 2877-2881, 2883, 2884, 2891-2898, 3045-3191,
                  3199-3203, 3205, 3206, 3213-3220, 3367-3513, 3521-3525,
                  3527, 3528, 3535-3542, 3689-3835, 3843-3847, 3849, 3850,
                  3857-3864

molecular fragmentation (1/2 indicates fragments):
111111111111111111111111111111111111111111111111111111111111111111111111
111111111111111111111111111111111111111111111111111111111111111111111111
111111111111111111111111111111111111111111111111111111111111111111111111
111111111111111111111111111111111111111111111111111111111111111111111111
111111111111111111111111111111111122222222222222222222222222222222222222
222222222222222222222222222222222222222222222222222222222222222222222222
222222222222222222222222222222222222222222222222222222222222222222222222
222222222222222222222222222222222222222222222222222222222222222222222222
222222222222222222222222222222222222222222222222222222222222222222222222
222222222222222222222222222222222222222222222222222222222222222222222222
222222222222222222222222222222222222222222222222222222222222222222222222
222222222222222222222222222222222222222222222222222222222222222222222222
222222222222222222222222222222222222222222222222222222222222222222222222
222222222222222222222222222222222222222222222222222222222222222222222222
222222222222222222222222222222222222222222222222222222222222222222222222
222222222222222222222222222222222222222222222222222222222222222222222222
222222222222222222222222222222222222222222222222222222222222222222222222
222222222222222222222222222222222222222222222222222222222222222222222222
222222222222222222222222222222222222222222222222222222222222222222222222
222222222222222222222222222222222222222222222222222222222222222222222222
222222222222222222222222222222222222222222222222222222222222222222222222
222222222222222222222222222222222222222222222222222222222222222222222222
222222222222222222222222222222222222222222222222222222222222222222222222
222222222222222222222222222222222222222222222222222222222222222222222222
222222222222222222222222222222222222222222222222222222222222222222222222
222222222222222222222222222222222222222222222222222222222222222222222222
222222222222222222222222222222222222222222222222222222222222222222222222
222222222222222222222222222222222222222222222222222222222222222222222222
222222222222222222222222222222222222222222222222222222222222222222222222
222222222222222222222222222222222222222222222222222222222222222222222222
222222222222222222222222222222222222222222222222222222222222222222222222
222222222222222222222222222222222222222222222222222222222222222222222222
222222222222222222222222222222222222222222222222222222222222222222222222
222222222222222222222222222222222222222222222222222222222222222222222222
222222222222222222222222222222222222222222222222222222222222222222222222
222222222222222222222222222222222222222222222222222222222222222222222222
222222222222222222222222222222222222222222222222222222222222222222222222
222222222222222222222222222222222222222222222222222222222222222222222222
222222222222222222222222222222222222222222222222222222222222222222222222
222222222222222222222222222222222222222222222222222222222222222222222222
222222222222222222222222222222222222222222222222222222222222222222222222
222222222222222222222222222222222222222222222222222222222222222222222222
222222222222222222222222222222222222222222222222222222222222222222222222
222222222222222222222222222222222222222222222222222222222222222222222222
222222222222222222222222222222222222222222222222222222222222222222222222
222222222222222222222222222222222222222222222222222222222222222222222222
222222222222222222222222222222222222222222222222222222222222222222222222
222222222222222222222222222222222222222222222222222222222222222222222222
222222222222222222222222222222222222222222222222222222222222222222222222
222222222222222222222222222222222222222222222222222222222222222222222222
222222222222222222222222222222222222222222222222222222222222222222222222
222222222222222222222222222222222222222222222222222222222222222222222222
222222222222222222222222222222222222222222222222222222222222222222222222
222222222222222222222222222222222222222222222222
# atoms in fragment 1/2:   322  3542
 fragment masses (1/2) :     2085.00    22935.05
CMA distance (Bohr)    :  35.339
constraining FC (au)   :  0.0500

           -------------------------------------------------
          |                 G F N 2 - x T B                 |
           -------------------------------------------------

        Reference                      10.1021/acs.jctc.8b01176
      * Hamiltonian:
        H0-scaling (s, p, d)           1.850000    2.230000    2.230000
        zeta-weighting                 0.500000
      * Dispersion:
        s8                             2.700000
        a1                             0.520000
        a2                             5.000000
        s9                             5.000000
      * Repulsion:
        kExp                           1.500000    1.000000
        rExp                           1.000000
      * Coulomb:
        alpha                          2.000000
        third order                    shell-resolved
        anisotropic                    true
        a3                             3.000000
        a5                             4.000000
        cn-shift                       1.200000
        cn-exp                         4.000000
        max-rad                        5.000000


          ...................................................
          :                      SETUP                      :
          :.................................................:
          :  # basis functions                9624          :
          :  # atomic orbitals                9624          :
          :  # shells                         5784          :
          :  # electrons                      9624          :
          :  max. iterations                   250          :
          :  Hamiltonian                  GFN2-xTB          :
          :  restarted?                      false          :
          :  GBSA solvation                  false          :
          :  PC potential                    false          :
          :  electronic temp.          300.0000000     K    :
          :  accuracy                    1.0000000          :
          :  -> integral cutoff          0.2500000E+02      :
          :  -> integral neglect         0.1000000E-07      :
          :  -> SCF convergence          0.1000000E-05 Eh   :
          :  -> wf. convergence          0.1000000E-03 e    :
          :  Broyden damping             0.4000000          :
          ...................................................

 iter      E             dE          RMSdq      gap      omega  full diag
   1  -5195.7235616 -0.519572E+04  0.371E+00    4.32       0.0  T
   2  -5198.3124651 -0.258890E+01  0.219E+00    4.30       1.0  T
   3  -5198.2314642  0.810009E-01  0.496E-01    4.11       1.0  T
   4  -5198.4385322 -0.207068E+00  0.244E-01    4.05       1.0  T
   5  -5198.5980002 -0.159468E+00  0.473E-02    4.11       1.0  T
   6  -5198.6004647 -0.246447E-02  0.293E-02    4.12       1.0  T
   7  -5198.6018308 -0.136610E-02  0.114E-02    4.12       1.0  T
   8  -5198.6021296 -0.298820E-03  0.298E-03    4.13       1.0  T
   9  -5198.6021470 -0.173840E-04  0.127E-03    4.13       1.3  T
  10  -5198.6021486 -0.157562E-05  0.548E-04    4.13       2.9  T
  11  -5198.6021488 -0.225487E-06  0.292E-04    4.13       5.5  T
  12  -5198.6021490 -0.188272E-06  0.105E-04    4.13      15.3  T

   *** convergence criteria satisfied after 12 iterations ***

         #    Occupation            Energy/Eh            Energy/eV
      -------------------------------------------------------------
         1        2.0000           -0.6517006             -17.7337
       ...           ...                  ...                  ...
      4806        2.0000           -0.3816451             -10.3851
      4807        2.0000           -0.3813893             -10.3781
      4808        2.0000           -0.3810954             -10.3701
      4809        2.0000           -0.3810221             -10.3681
      4810        2.0000           -0.3808974             -10.3647
      4811        2.0000           -0.3805028             -10.3540
      4812        2.0000           -0.3803064             -10.3487 (HOMO)
      4813                         -0.2286706              -6.2224 (LUMO)
      4814                         -0.2284466              -6.2163
      4815                         -0.2281825              -6.2092
      4816                         -0.2276683              -6.1952
      4817                         -0.2270688              -6.1789
       ...                                ...                  ...
      9624                          0.6852258              18.6459
      -------------------------------------------------------------
                  HL-Gap            0.1516357 Eh            4.1262 eV
             Fermi-level           -0.3044885 Eh           -8.2856 eV

 SCC (total)                   0 d,  0 h, 48 min,  4.660 sec
 SCC setup                      ...        0 min,  0.705 sec (  0.024%)
 Dispersion                     ...        0 min,  6.848 sec (  0.237%)
 classical contributions        ...        0 min,  0.165 sec (  0.006%)
 integral evaluation            ...        0 min, 11.604 sec (  0.402%)
 iterations                     ...       42 min,  7.473 sec ( 87.618%)
 molecular gradient             ...        5 min, 10.429 sec ( 10.761%)
 printout                       ...        0 min, 27.434 sec (  0.951%)

         :::::::::::::::::::::::::::::::::::::::::::::::::::::
         ::                     SUMMARY                     ::
         :::::::::::::::::::::::::::::::::::::::::::::::::::::
         :: total energy           -5104.066151921650 Eh    ::
         :: gradient norm              0.023728492276 Eh/a0 ::
         :: HOMO-LUMO gap              4.126218546477 eV    ::
         ::.................................................::
         :: SCC energy             -5198.602148973525 Eh    ::
         :: -> isotropic ES            0.264720939547 Eh    ::
         :: -> anisotropic ES          0.789701821855 Eh    ::
         :: -> anisotropic XC          3.251624278914 Eh    ::
         :: -> dispersion             -7.004436917614 Eh    ::
         :: repulsion energy          93.376269777978 Eh    ::
         :: add. restraining           0.000000000000 Eh    ::
         :: total charge              -0.000000000030 e     ::
         :::::::::::::::::::::::::::::::::::::::::::::::::::::

      ----------------------------------------------------------- 
     |              Fast Inertial Relaxation Engine              |
      ----------------------------------------------------------- 

          ...................................................
          :                      SETUP                      :
          :.................................................:
          :   energy convergence        0.5000000E-05 Eh    :
          :   grad. convergence         0.1000000E-02 Eh/a0 :
          :   optimization log               true           :
          :   writing optlog all                1     steps :
          :   Hessian reset                    20     steps :
          :   time step scaling                 5     steps :
          :   maximium step len.        1.0000000     a0    :
          :   initial time step         0.2500000     fs    :
          :   maximum time step         1.2500000     fs    :
          :   power reset thr           0.0000000     au    :
          :   alpha parameter           0.1000000           :
          :   BFGS update                   false           :
          :   preconditioning               false           :
          ...................................................

........................................................................
.............................. CYCLE    1 ..............................
........................................................................

 iter      E             dE          RMSdq      gap      omega  full diag
   1  -5198.6032251 -0.519860E+04  0.329E-04    4.13       0.0  T
   2  -5198.6032251 -0.163009E-07  0.203E-04    4.13       7.9  T
   3  -5198.6032250  0.351538E-07  0.909E-05    4.13      17.7  T
     SCC iter.                  ...       10 min, 36.857 sec
     gradient                   ...        5 min,  9.496 sec
 * total energy  : -5104.0662158 Eh     change    :  -0.6390550E-04 Eh
   gradient norm :     0.0222473 Eh/a0  converged?    E=F G=F D=F
   time step     :     0.2500000 fs     power     :   0.3281078E-08
   step length   :     0.0027809 a0     speed     :   0.2690698E-03

........................................................................
.............................. CYCLE    2 ..............................
........................................................................

 iter      E             dE          RMSdq      gap      omega  full diag
   1  -5198.6048241 -0.519860E+04  0.483E-04    4.13       0.0  T
   2  -5198.6048241 -0.309246E-07  0.295E-04    4.13       5.5  T
   3  -5198.6048241  0.471409E-07  0.108E-04    4.13      14.9  T
     SCC iter.                  ...       10 min, 33.606 sec
     gradient                   ...        5 min, 10.645 sec
 * total energy  : -5104.0663022 Eh     change    :  -0.8641555E-04 Eh
   gradient norm :     0.0201543 Eh/a0  converged?    E=F G=F D=F
   time step     :     0.2500000 fs     power     :   0.4349629E-08
   step length   :     0.0040838 a0     speed     :   0.3951278E-03

........................................................................
.............................. CYCLE    3 ..............................
........................................................................

 iter      E             dE          RMSdq      gap      omega  full diag
   1  -5198.6069412 -0.519861E+04  0.621E-04    4.13       0.0  T
   2  -5198.6069412 -0.475784E-07  0.379E-04    4.13       4.2  T
   3  -5198.6069412  0.714490E-07  0.130E-04    4.13      12.3  T
     SCC iter.                  ...       10 min, 36.249 sec
     gradient                   ...        5 min, 10.194 sec
 * total energy  : -5104.0664009 Eh     change    :  -0.9868985E-04 Eh
   gradient norm :     0.0176591 Eh/a0  converged?    E=F G=F D=F
   time step     :     0.2500000 fs     power     :   0.4859598E-08
   step length   :     0.0052600 a0     speed     :   0.5089307E-03

........................................................................
.............................. CYCLE    4 ..............................
........................................................................

 iter      E             dE          RMSdq      gap      omega  full diag
   1  -5198.6095754 -0.519861E+04  0.741E-04    4.13       0.0  T
   2  -5198.6095755 -0.632435E-07  0.454E-04    4.13       3.5  T
   3  -5198.6095754  0.109766E-06  0.155E-04    4.13      10.4  T
     SCC iter.                  ...       10 min, 34.947 sec
     gradient                   ...        5 min,  8.720 sec
 * total energy  : -5104.0665012 Eh     change    :  -0.1002835E-03 Eh
   gradient norm :     0.0150403 Eh/a0  converged?    E=F G=F D=F
   time step     :     0.2500000 fs     power     :   0.4815228E-08
   step length   :     0.0062779 a0     speed     :   0.6074244E-03

........................................................................
.............................. CYCLE    5 ..............................
........................................................................

 iter      E             dE          RMSdq      gap      omega  full diag
   1  -5198.6127279 -0.519861E+04  0.838E-04    4.13       0.0  T
   2  -5198.6127279 -0.742402E-07  0.515E-04    4.13       3.1  T
   3  -5198.6127278  0.163904E-06  0.182E-04    4.13       8.9  T
     SCC iter.                  ...       10 min, 35.168 sec
     gradient                   ...        5 min, 10.448 sec
 * total energy  : -5104.0665940 Eh     change    :  -0.9278525E-04 Eh
   gradient norm :     0.0126456 Eh/a0  converged?    E=F G=F D=F
   time step     :     0.2500000 fs     power     :   0.4321653E-08
   step length   :     0.0071124 a0     speed     :   0.6881660E-03

........................................................................
.............................. CYCLE    6 ..............................
........................................................................

 iter      E             dE          RMSdq      gap      omega  full diag
   1  -5198.6168049 -0.519862E+04  0.101E-03    4.13       0.0  T
   2  -5198.6168050 -0.985765E-07  0.625E-04    4.13       2.6  T
   3  -5198.6168047  0.318149E-06  0.242E-04    4.13       6.6  T
     SCC iter.                  ...       10 min, 37.635 sec
     gradient                   ...        5 min,  8.754 sec
 * total energy  : -5104.0666805 Eh     change    :  -0.8653215E-04 Eh
   gradient norm :     0.0106780 Eh/a0  converged?    E=F G=F D=F
   time step     :     0.2750000 fs     power     :   0.3463552E-08
   step length   :     0.0085909 a0     speed     :   0.7556521E-03

........................................................................
.............................. CYCLE    7 ..............................
........................................................................

 iter      E             dE          RMSdq      gap      omega  full diag
   1  -5198.6219509 -0.519862E+04  0.117E-03    4.13       0.0  T
   2  -5198.6219510 -0.118927E-06  0.734E-04    4.13       2.2  T
   3  -5198.6219504  0.563253E-06  0.314E-04    4.13       5.1  T
     SCC iter.                  ...       10 min, 38.713 sec
     gradient                   ...        5 min,  9.277 sec
 * total energy  : -5104.0667533 Eh     change    :  -0.7272808E-04 Eh
   gradient norm :     0.0095690 Eh/a0  converged?    E=F G=F D=F
   time step     :     0.3025000 fs     power     :   0.2432971E-08
   step length   :     0.0100298 a0     speed     :   0.8020165E-03

........................................................................
.............................. CYCLE    8 ..............................
........................................................................

 iter      E             dE          RMSdq      gap      omega  full diag
   1  -5198.6281858 -0.519863E+04  0.130E-03    4.13       0.0  T
   2  -5198.6281859 -0.137984E-06  0.828E-04    4.13       1.9  T
   3  -5198.6281851  0.853989E-06  0.386E-04    4.13       4.2  T
     SCC iter.                  ...       10 min, 34.290 sec
     gradient                   ...        5 min,  9.906 sec
 * total energy  : -5104.0668086 Eh     change    :  -0.5534730E-04 Eh
   gradient norm :     0.0092005 Eh/a0  converged?    E=F G=F D=F
   time step     :     0.3327500 fs     power     :   0.1477002E-08
   step length   :     0.0112783 a0     speed     :   0.8198591E-03

........................................................................
.............................. CYCLE    9 ..............................
........................................................................

 iter      E             dE          RMSdq      gap      omega  full diag
   1  -5198.6353090 -0.519864E+04  0.140E-03    4.13       0.0  T
   2  -5198.6353092 -0.163692E-06  0.894E-04    4.13       1.8  T
   3  -5198.6353082  0.101959E-05  0.434E-04    4.13       3.7  T
   4  -5198.6353094 -0.120642E-05  0.499E-05    4.13      32.3  T
   5  -5198.6353094 -0.672935E-08  0.226E-05    4.13      71.3  T
     SCC iter.                  ...       17 min, 35.197 sec
     gradient                   ...        5 min, 11.275 sec
 * total energy  : -5104.0668484 Eh     change    :  -0.3981403E-04 Eh
   gradient norm :     0.0089737 Eh/a0  converged?    E=F G=F D=F
   time step     :     0.3660250 fs     power     :   0.7099324E-09
   step length   :     0.0122445 a0     speed     :   0.8091805E-03

........................................................................
.............................. CYCLE   10 ..............................
........................................................................

 iter      E             dE          RMSdq      gap      omega  full diag
   1  -5198.6428005 -0.519864E+04  0.145E-03    4.13       0.0  T
   2  -5198.6428006 -0.191638E-06  0.924E-04    4.13       1.7  T
   3  -5198.6427996  0.108875E-05  0.468E-04    4.13       3.4  T
   4  -5198.6428009 -0.132597E-05  0.524E-05    4.13      30.7  T
   5  -5198.6428009 -0.879027E-08  0.221E-05    4.13      73.0  T
     SCC iter.                  ...       17 min, 38.072 sec
     gradient                   ...        5 min,  8.785 sec
 * total energy  : -5104.0668719 Eh     change    :  -0.2346774E-04 Eh
   gradient norm :     0.0087157 Eh/a0  converged?    E=F G=F D=F
   time step     :     0.4026275 fs     power     :   0.1199387E-09
   step length   :     0.0129163 a0     speed     :   0.7759796E-03

........................................................................
.............................. CYCLE   11 ..............................
........................................................................

 iter      E             dE          RMSdq      gap      omega  full diag
   1  -5198.6499179 -0.519865E+04  0.147E-03    4.13       0.0  T
   2  -5198.6499181 -0.203386E-06  0.910E-04    4.13       1.8  T
   3  -5198.6499172  0.932251E-06  0.446E-04    4.13       3.6  T
     SCC iter.                  ...       10 min, 37.071 sec
     gradient                   ...        5 min, 12.100 sec
 * total energy  : -5104.0668800 Eh     change    :  -0.8080534E-05 Eh
   gradient norm :     0.0088237 Eh/a0  converged?    E=F G=F D=F
   time step     :     0.4428903 fs     power     :  -0.3170193E-09
   step length   :     0.0132845 a0     speed     :   0.7255467E-03

........................................................................
.............................. CYCLE   12 ..............................
........................................................................
 * reset velocities

 iter      E             dE          RMSdq      gap      omega  full diag
   1  -5198.6497744 -0.519865E+04  0.620E-05    4.13       0.0  T
   2  -5198.6497744 -0.538330E-08  0.535E-05    4.13      30.1  T
   3  -5198.6497744 -0.112304E-07  0.201E-05    4.13      79.9  T
     SCC iter.                  ...       10 min, 36.228 sec
     gradient                   ...        5 min, 22.494 sec
 * total energy  : -5104.0668847 Eh     change    :  -0.4684224E-05 Eh
   gradient norm :     0.0086690 Eh/a0  converged?    E=T G=F D=T
   time step     :     0.2214451 fs     power     :   0.2107150E-09
   step length   :     0.0004057 a0     speed     :   0.4431415E-04

........................................................................
.............................. CYCLE   13 ..............................
........................................................................

 iter      E             dE          RMSdq      gap      omega  full diag
   1  -5198.6494752 -0.519865E+04  0.788E-05    4.13       0.0  T
   2  -5198.6494752 -0.139971E-08  0.543E-05    4.13      29.6  T
   3  -5198.6494752  0.273212E-08  0.233E-05    4.13      69.0  T
     SCC iter.                  ...       10 min, 34.898 sec
     gradient                   ...        5 min,  9.713 sec
 * total energy  : -5104.0668915 Eh     change    :  -0.6823052E-05 Eh
   gradient norm :     0.0083204 Eh/a0  converged?    E=F G=F D=T
   time step     :     0.2214451 fs     power     :   0.4008337E-09
   step length   :     0.0008042 a0     speed     :   0.8784838E-04

........................................................................
.............................. CYCLE   14 ..............................
........................................................................

 iter      E             dE          RMSdq      gap      omega  full diag
   1  -5198.6490220 -0.519865E+04  0.112E-04    4.13       0.0  T
   2  -5198.6490220 -0.284217E-08  0.784E-05    4.13      20.5  T
   3  -5198.6490220  0.519594E-08  0.338E-05    4.13      47.5  T
     SCC iter.                  ...       10 min, 36.384 sec
     gradient                   ...        5 min,  9.438 sec
 * total energy  : -5104.0669011 Eh     change    :  -0.9576937E-05 Eh
   gradient norm :     0.0078160 Eh/a0  converged?    E=F G=F D=F
   time step     :     0.2214451 fs     power     :   0.5550871E-09
   step length   :     0.0011867 a0     speed     :   0.1296239E-03

........................................................................
.............................. CYCLE   15 ..............................
........................................................................

 iter      E             dE          RMSdq      gap      omega  full diag
   1  -5198.6484173 -0.519865E+04  0.146E-04    4.13       0.0  T
   2  -5198.6484173 -0.472664E-08  0.102E-04    4.13      15.8  T
   3  -5198.6484173  0.875843E-08  0.435E-05    4.13      37.0  T
     SCC iter.                  ...       10 min, 38.481 sec
     gradient                   ...        5 min, 10.664 sec
 * total energy  : -5104.0669126 Eh     change    :  -0.1158651E-04 Eh
   gradient norm :     0.0071787 Eh/a0  converged?    E=F G=F D=F
   time step     :     0.2214451 fs     power     :   0.6624880E-09
   step length   :     0.0015456 a0     speed     :   0.1688316E-03

........................................................................
.............................. CYCLE   16 ..............................
........................................................................

 iter      E             dE          RMSdq      gap      omega  full diag
   1  -5198.6476641 -0.519865E+04  0.176E-04    4.13       0.0  T
   2  -5198.6476641 -0.644013E-08  0.123E-04    4.13      13.1  T
   3  -5198.6476641  0.133005E-07  0.524E-05    4.13      30.7  T
     SCC iter.                  ...       10 min, 35.128 sec
     gradient                   ...        5 min, 10.734 sec
 * total energy  : -5104.0669253 Eh     change    :  -0.1266305E-04 Eh
   gradient norm :     0.0064407 Eh/a0  converged?    E=F G=F D=F
   time step     :     0.2214451 fs     power     :   0.7169942E-09
   step length   :     0.0018744 a0     speed     :   0.2047433E-03

........................................................................
.............................. CYCLE   17 ..............................
........................................................................

 iter      E             dE          RMSdq      gap      omega  full diag
   1  -5198.6467659 -0.519865E+04  0.202E-04    4.13       0.0  T
   2  -5198.6467659 -0.834189E-08  0.141E-04    4.13      11.4  T
   3  -5198.6467658  0.183772E-07  0.602E-05    4.13      26.7  T
     SCC iter.                  ...       10 min, 38.004 sec
     gradient                   ...        5 min, 10.080 sec
 * total energy  : -5104.0669382 Eh     change    :  -0.1291627E-04 Eh
   gradient norm :     0.0056447 Eh/a0  converged?    E=F G=F D=F
   time step     :     0.2214451 fs     power     :   0.7182244E-09
   step length   :     0.0021672 a0     speed     :   0.2367254E-03

........................................................................
.............................. CYCLE   18 ..............................
........................................................................

 iter      E             dE          RMSdq      gap      omega  full diag
   1  -5198.6456083 -0.519865E+04  0.247E-04    4.13       0.0  T
   2  -5198.6456083 -0.122573E-07  0.173E-04    4.13       9.3  T
   3  -5198.6456083  0.294667E-07  0.749E-05    4.13      21.5  T
     SCC iter.                  ...       10 min, 36.414 sec
     gradient                   ...        5 min, 11.559 sec
 * total energy  : -5104.0669517 Eh     change    :  -0.1351494E-04 Eh
   gradient norm :     0.0047650 Eh/a0  converged?    E=F G=F D=F
   time step     :     0.2435896 fs     power     :   0.6640841E-09
   step length   :     0.0026890 a0     speed     :   0.2670259E-03

........................................................................
.............................. CYCLE   19 ..............................
........................................................................

 iter      E             dE          RMSdq      gap      omega  full diag
   1  -5198.6441408 -0.519864E+04  0.294E-04    4.13       0.0  T
   2  -5198.6441408 -0.163700E-07  0.206E-04    4.13       7.8  T
   3  -5198.6441408  0.448381E-07  0.901E-05    4.13      17.8  T
     SCC iter.                  ...       10 min, 37.064 sec
     gradient                   ...        5 min,  9.112 sec
 * total energy  : -5104.0669648 Eh     change    :  -0.1303403E-04 Eh
   gradient norm :     0.0039098 Eh/a0  converged?    E=F G=F D=F
   time step     :     0.2679486 fs     power     :   0.5531459E-09
   step length   :     0.0032544 a0     speed     :   0.2937860E-03

........................................................................
.............................. CYCLE   20 ..............................
........................................................................

 iter      E             dE          RMSdq      gap      omega  full diag
   1  -5198.6423161 -0.519864E+04  0.337E-04    4.13       0.0  T
   2  -5198.6423162 -0.196342E-07  0.237E-04    4.13       6.8  T
   3  -5198.6423161  0.650361E-07  0.105E-04    4.13      15.3  T
     SCC iter.                  ...       10 min, 34.874 sec
     gradient                   ...        5 min,  8.242 sec
 * total energy  : -5104.0669760 Eh     change    :  -0.1125561E-04 Eh
   gradient norm :     0.0032958 Eh/a0  converged?    E=F G=F D=F
   time step     :     0.2947435 fs     power     :   0.3998932E-09
   step length   :     0.0038299 a0     speed     :   0.3143140E-03
 * RMSD in coord.:     0.0013084 a0     energy gain  -0.8241041E-03 Eh

........................................................................
.............................. CYCLE   21 ..............................
........................................................................

 iter      E             dE          RMSdq      gap      omega  full diag
   1  -5198.6406522 -0.519864E+04  0.284E-04    4.13       0.0  T
   2  -5198.6406522 -0.115551E-07  0.197E-04    4.13       8.2  T
   3  -5198.6406522  0.482896E-07  0.877E-05    4.13      18.4  T
     SCC iter.                  ...       10 min, 34.207 sec
     gradient                   ...        5 min,  9.268 sec
 * total energy  : -5104.0669829 Eh     change    :  -0.6921532E-05 Eh
   gradient norm :     0.0031417 Eh/a0  converged?    E=F G=F D=F
   time step     :     0.2500000 fs     power     :   0.2842496E-09
   step length   :     0.0033087 a0     speed     :   0.3201363E-03

........................................................................
.............................. CYCLE   22 ..............................
........................................................................

 iter      E             dE          RMSdq      gap      omega  full diag
   1  -5198.6389400 -0.519864E+04  0.268E-04    4.13       0.0  T
   2  -5198.6389400 -0.860746E-08  0.185E-04    4.13       8.7  T
   3  -5198.6389400  0.465143E-07  0.849E-05    4.13      19.0  T
     SCC iter.                  ...       10 min, 36.020 sec
     gradient                   ...        5 min, 13.762 sec
 * total energy  : -5104.0669881 Eh     change    :  -0.5142348E-05 Eh
   gradient norm :     0.0032334 Eh/a0  converged?    E=F G=F D=F
   time step     :     0.2500000 fs     power     :   0.2067870E-09
   step length   :     0.0032730 a0     speed     :   0.3166850E-03

........................................................................
.............................. CYCLE   23 ..............................
........................................................................

 iter      E             dE          RMSdq      gap      omega  full diag
   1  -5198.6372576 -0.519864E+04  0.250E-04    4.13       0.0  T
   2  -5198.6372576 -0.603450E-08  0.168E-04    4.13       9.6  T
   3  -5198.6372576  0.367463E-07  0.759E-05    4.13      21.2  T
     SCC iter.                  ...       10 min, 34.912 sec
     gradient                   ...        5 min, 12.683 sec
 * total energy  : -5104.0669923 Eh     change    :  -0.4223854E-05 Eh
   gradient norm :     0.0034095 Eh/a0  converged?    E=T G=F D=F
   time step     :     0.2500000 fs     power     :   0.1734866E-09
   step length   :     0.0031726 a0     speed     :   0.3069641E-03

........................................................................
.............................. CYCLE   24 ..............................
........................................................................

 iter      E             dE          RMSdq      gap      omega  full diag
   1  -5198.6356733 -0.519864E+04  0.234E-04    4.13       0.0  T
   2  -5198.6356733 -0.387990E-08  0.151E-04    4.13      10.6  T
   3  -5198.6356733  0.214968E-07  0.594E-05    4.13      27.1  T
     SCC iter.                  ...       10 min, 36.026 sec
     gradient                   ...        5 min,  9.497 sec
 * total energy  : -5104.0669963 Eh     change    :  -0.4029524E-05 Eh
   gradient norm :     0.0035554 Eh/a0  converged?    E=T G=F D=F
   time step     :     0.2500000 fs     power     :   0.1764813E-09
   step length   :     0.0030516 a0     speed     :   0.2952611E-03

........................................................................
.............................. CYCLE   25 ..............................
........................................................................

 iter      E             dE          RMSdq      gap      omega  full diag
   1  -5198.6342378 -0.519863E+04  0.223E-04    4.13       0.0  T
   2  -5198.6342378 -0.276759E-08  0.138E-04    4.13      11.7  T
   3  -5198.6342378  0.654654E-08  0.354E-05    4.13      45.5  T
     SCC iter.                  ...       10 min, 34.505 sec
     gradient                   ...        5 min, 18.692 sec
 * total energy  : -5104.0670007 Eh     change    :  -0.4311149E-05 Eh
   gradient norm :     0.0036187 Eh/a0  converged?    E=T G=F D=F
   time step     :     0.2500000 fs     power     :   0.2019085E-09
   step length   :     0.0029447 a0     speed     :   0.2849136E-03

........................................................................
.............................. CYCLE   26 ..............................
........................................................................

 iter      E             dE          RMSdq      gap      omega  full diag
   1  -5198.6328626 -0.519863E+04  0.241E-04    4.13       0.0  T
   2  -5198.6328626 -0.264481E-08  0.143E-04    4.13      11.2  T
   3  -5198.6328626  0.144701E-08  0.231E-05    4.13      69.7  T
     SCC iter.                  ...       10 min, 35.817 sec
     gradient                   ...        5 min, 12.269 sec
 * total energy  : -5104.0670060 Eh     change    :  -0.5373676E-05 Eh
   gradient norm :     0.0035788 Eh/a0  converged?    E=F G=F D=F
   time step     :     0.2750000 fs     power     :   0.2356828E-09
   step length   :     0.0031692 a0     speed     :   0.2787606E-03

........................................................................
.............................. CYCLE   27 ..............................
........................................................................

 iter      E             dE          RMSdq      gap      omega  full diag
   1  -5198.6316120 -0.519863E+04  0.266E-04    4.13       0.0  T
   2  -5198.6316120 -0.273758E-08  0.157E-04    4.13      10.3  T
   3  -5198.6316120  0.300861E-08  0.295E-05    4.13      54.5  T
     SCC iter.                  ...       10 min, 39.370 sec
     gradient                   ...        5 min,  9.652 sec
 * total energy  : -5104.0670126 Eh     change    :  -0.6604982E-05 Eh
   gradient norm :     0.0034261 Eh/a0  converged?    E=F G=F D=F
   time step     :     0.3025000 fs     power     :   0.2666502E-09
   step length   :     0.0034721 a0     speed     :   0.2776395E-03

........................................................................
.............................. CYCLE   28 ..............................
........................................................................

 iter      E             dE          RMSdq      gap      omega  full diag
   1  -5198.6305620 -0.519863E+04  0.301E-04    4.13       0.0  T
   2  -5198.6305620 -0.368618E-08  0.178E-04    4.13       9.0  T
   3  -5198.6305620  0.124901E-07  0.515E-05    4.13      31.3  T
     SCC iter.                  ...       10 min, 35.114 sec
     gradient                   ...        5 min, 10.900 sec
 * total energy  : -5104.0670204 Eh     change    :  -0.7798056E-05 Eh
   gradient norm :     0.0031749 Eh/a0  converged?    E=F G=F D=F
   time step     :     0.3327500 fs     power     :   0.2850508E-09
   step length   :     0.0038692 a0     speed     :   0.2812685E-03

........................................................................
.............................. CYCLE   29 ..............................
........................................................................

 iter      E             dE          RMSdq      gap      omega  full diag
   1  -5198.6298019 -0.519863E+04  0.344E-04    4.13       0.0  T
   2  -5198.6298019 -0.539058E-08  0.206E-04    4.13       7.8  T
   3  -5198.6298019  0.339423E-07  0.819E-05    4.13      19.6  T
     SCC iter.                  ...       10 min, 33.971 sec
     gradient                   ...        5 min, 10.606 sec
 * total energy  : -5104.0670292 Eh     change    :  -0.8727224E-05 Eh
   gradient norm :     0.0028670 Eh/a0  converged?    E=F G=F D=F
   time step     :     0.3660250 fs     power     :   0.2841513E-09
   step length   :     0.0043657 a0     speed     :   0.2885107E-03

........................................................................
.............................. CYCLE   30 ..............................
........................................................................

 iter      E             dE          RMSdq      gap      omega  full diag
   1  -5198.6294287 -0.519863E+04  0.389E-04    4.13       0.0  T
   2  -5198.6294287 -0.757063E-08  0.236E-04    4.13       6.8  T
   3  -5198.6294286  0.608479E-07  0.109E-04    4.13      14.8  T
     SCC iter.                  ...       10 min, 35.926 sec
     gradient                   ...        5 min, 10.235 sec
 * total energy  : -5104.0670383 Eh     change    :  -0.9133653E-05 Eh
   gradient norm :     0.0025767 Eh/a0  converged?    E=F G=F D=F
   time step     :     0.4026275 fs     power     :   0.2629350E-09
   step length   :     0.0049524 a0     speed     :   0.2975271E-03

........................................................................
.............................. CYCLE   31 ..............................
........................................................................

 iter      E             dE          RMSdq      gap      omega  full diag
   1  -5198.6295252 -0.519863E+04  0.429E-04    4.13       0.0  T
   2  -5198.6295252 -0.949240E-08  0.263E-04    4.13       6.1  T
   3  -5198.6295252  0.822192E-07  0.125E-04    4.13      12.8  T
     SCC iter.                  ...       10 min, 35.852 sec
     gradient                   ...        5 min, 13.877 sec
 * total energy  : -5104.0670473 Eh     change    :  -0.9016086E-05 Eh
   gradient norm :     0.0023855 Eh/a0  converged?    E=F G=F D=F
   time step     :     0.4428903 fs     power     :   0.2283299E-09
   step length   :     0.0056035 a0     speed     :   0.3060381E-03

........................................................................
.............................. CYCLE   32 ..............................
........................................................................

 iter      E             dE          RMSdq      gap      omega  full diag
   1  -5198.6301194 -0.519863E+04  0.457E-04    4.13       0.0  T
   2  -5198.6301195 -0.105938E-07  0.280E-04    4.13       5.8  T
   3  -5198.6301194  0.845812E-07  0.126E-04    4.13      12.8  T
     SCC iter.                  ...       10 min, 36.338 sec
     gradient                   ...        5 min,  9.447 sec
 * total energy  : -5104.0670559 Eh     change    :  -0.8578875E-05 Eh
   gradient norm :     0.0023199 Eh/a0  converged?    E=F G=F D=F
   time step     :     0.4871793 fs     power     :   0.1930256E-09
   step length   :     0.0062837 a0     speed     :   0.3119887E-03

........................................................................
.............................. CYCLE   33 ..............................
........................................................................

 iter      E             dE          RMSdq      gap      omega  full diag
   1  -5198.6311443 -0.519863E+04  0.467E-04    4.13       0.0  T
   2  -5198.6311443 -0.111786E-07  0.282E-04    4.13       5.7  T
   3  -5198.6311442  0.555228E-07  0.102E-04    4.13      15.8  T
     SCC iter.                  ...       10 min, 33.142 sec
     gradient                   ...        5 min,  8.822 sec
 * total energy  : -5104.0670643 Eh     change    :  -0.8414916E-05 Eh
   gradient norm :     0.0023466 Eh/a0  converged?    E=F G=F D=F
   time step     :     0.5358972 fs     power     :   0.1686629E-09
   step length   :     0.0069734 a0     speed     :   0.3147580E-03

........................................................................
.............................. CYCLE   34 ..............................
........................................................................

 iter      E             dE          RMSdq      gap      omega  full diag
   1  -5198.6324310 -0.519863E+04  0.458E-04    4.13       0.0  T
   2  -5198.6324310 -0.108939E-07  0.273E-04    4.13       5.9  T
   3  -5198.6324310  0.125638E-07  0.565E-05    4.13      28.5  T
     SCC iter.                  ...       10 min, 33.913 sec
     gradient                   ...        5 min, 10.940 sec
 * total energy  : -5104.0670730 Eh     change    :  -0.8720262E-05 Eh
   gradient norm :     0.0024216 Eh/a0  converged?    E=F G=F D=F
   time step     :     0.5894869 fs     power     :   0.1621509E-09
   step length   :     0.0076932 a0     speed     :   0.3156788E-03

........................................................................
.............................. CYCLE   35 ..............................
........................................................................

 iter      E             dE          RMSdq      gap      omega  full diag
   1  -5198.6337388 -0.519863E+04  0.434E-04    4.13       0.0  T
   2  -5198.6337388 -0.885484E-08  0.263E-04    4.13       6.1  T
   3  -5198.6337388  0.142227E-07  0.557E-05    4.13      28.9  T
     SCC iter.                  ...       10 min, 35.574 sec
     gradient                   ...        5 min, 11.236 sec
 * total energy  : -5104.0670830 Eh     change    :  -0.9981607E-05 Eh
   gradient norm :     0.0024510 Eh/a0  converged?    E=F G=F D=F
   time step     :     0.6484356 fs     power     :   0.1745980E-09
   step length   :     0.0085080 a0     speed     :   0.3173765E-03

........................................................................
.............................. CYCLE   36 ..............................
........................................................................

 iter      E             dE          RMSdq      gap      omega  full diag
   1  -5198.6348003 -0.519863E+04  0.418E-04    4.13       0.0  T
   2  -5198.6348003 -0.673936E-08  0.258E-04    4.13       6.2  T
   3  -5198.6348003  0.229102E-07  0.660E-05    4.13      24.4  T
     SCC iter.                  ...       10 min, 36.797 sec
     gradient                   ...        5 min, 16.740 sec
 * total energy  : -5104.0670949 Eh     change    :  -0.1191651E-04 Eh
   gradient norm :     0.0023282 Eh/a0  converged?    E=F G=F D=F
   time step     :     0.7132792 fs     power     :   0.1933008E-09
   step length   :     0.0095164 a0     speed     :   0.3227234E-03

........................................................................
.............................. CYCLE   37 ..............................
........................................................................

 iter      E             dE          RMSdq      gap      omega  full diag
   1  -5198.6353744 -0.519864E+04  0.419E-04    4.13       0.0  T
   2  -5198.6353744 -0.996079E-08  0.268E-04    4.13       6.0  T
   3  -5198.6353743  0.614709E-07  0.101E-04    4.13      16.0  T
     SCC iter.                  ...       10 min, 34.169 sec
     gradient                   ...        5 min, 11.781 sec
 * total energy  : -5104.0671087 Eh     change    :  -0.1376310E-04 Eh
   gradient norm :     0.0022155 Eh/a0  converged?    E=F G=F D=F
   time step     :     0.7846071 fs     power     :   0.1999417E-09
   step length   :     0.0107903 a0     speed     :   0.3326576E-03

........................................................................
.............................. CYCLE   38 ..............................
........................................................................

 iter      E             dE          RMSdq      gap      omega  full diag
   1  -5198.6353163 -0.519864E+04  0.446E-04    4.13       0.0  T
   2  -5198.6353163 -0.145728E-07  0.280E-04    4.13       5.7  T
   3  -5198.6353162  0.542532E-07  0.989E-05    4.13      16.3  T
     SCC iter.                  ...       10 min, 35.248 sec
     gradient                   ...        5 min, 11.791 sec
 * total energy  : -5104.0671243 Eh     change    :  -0.1561181E-04 Eh
   gradient norm :     0.0023273 Eh/a0  converged?    E=F G=F D=F
   time step     :     0.8630678 fs     power     :   0.2100268E-09
   step length   :     0.0123118 a0     speed     :   0.3450583E-03

........................................................................
.............................. CYCLE   39 ..............................
........................................................................

 iter      E             dE          RMSdq      gap      omega  full diag
   1  -5198.6347690 -0.519863E+04  0.513E-04    4.13       0.0  T
   2  -5198.6347690 -0.144464E-07  0.310E-04    4.13       5.2  T
   3  -5198.6347690  0.253731E-07  0.756E-05    4.13      21.3  T
     SCC iter.                  ...       10 min, 36.444 sec
     gradient                   ...        5 min, 10.478 sec
 * total energy  : -5104.0671437 Eh     change    :  -0.1938583E-04 Eh
   gradient norm :     0.0022933 Eh/a0  converged?    E=F G=F D=F
   time step     :     0.9493746 fs     power     :   0.2455902E-09
   step length   :     0.0141336 a0     speed     :   0.3601053E-03

........................................................................
.............................. CYCLE   40 ..............................
........................................................................

 iter      E             dE          RMSdq      gap      omega  full diag
   1  -5198.6342887 -0.519863E+04  0.593E-04    4.13       0.0  T
   2  -5198.6342887 -0.164255E-07  0.361E-04    4.13       4.5  T
   3  -5198.6342887  0.453147E-07  0.960E-05    4.13      16.8  T
     SCC iter.                  ...       10 min, 36.076 sec
     gradient                   ...        5 min, 10.749 sec
 * total energy  : -5104.0671672 Eh     change    :  -0.2353052E-04 Eh
   gradient norm :     0.0020268 Eh/a0  converged?    E=F G=F D=F
   time step     :     1.0443120 fs     power     :   0.2663007E-09
   step length   :     0.0164946 a0     speed     :   0.3820565E-03

........................................................................
.............................. CYCLE   41 ..............................
........................................................................

 iter      E             dE          RMSdq      gap      omega  full diag
   1  -5198.6347988 -0.519863E+04  0.632E-04    4.13       0.0  T
   2  -5198.6347989 -0.191603E-07  0.390E-04    4.13       4.1  T
   3  -5198.6347988  0.690006E-07  0.115E-04    4.13      13.9  T
     SCC iter.                  ...       10 min, 34.970 sec
     gradient                   ...        5 min,  8.885 sec
 * total energy  : -5104.0671929 Eh     change    :  -0.2571505E-04 Eh
   gradient norm :     0.0021027 Eh/a0  converged?    E=F G=F D=F
   time step     :     1.1487432 fs     power     :   0.2580420E-09
   step length   :     0.0193946 a0     speed     :   0.4083887E-03

........................................................................
.............................. CYCLE   42 ..............................
........................................................................

 iter      E             dE          RMSdq      gap      omega  full diag
   1  -5198.6366185 -0.519864E+04  0.684E-04    4.13       0.0  T
   2  -5198.6366185 -0.133759E-07  0.407E-04    4.13       3.9  T
   3  -5198.6366185  0.157088E-07  0.653E-05    4.13      24.6  T
     SCC iter.                  ...       10 min, 34.226 sec
     gradient                   ...        5 min, 16.259 sec
 * total energy  : -5104.0672233 Eh     change    :  -0.3039024E-04 Eh
   gradient norm :     0.0022228 Eh/a0  converged?    E=F G=F D=F
   time step     :     1.2500000 fs     power     :   0.2971670E-09
   step length   :     0.0223545 a0     speed     :   0.4325836E-03
 * RMSD in coord.:     0.0024637 a0     energy gain  -0.2472908E-03 Eh

........................................................................
.............................. CYCLE   43 ..............................
........................................................................

 iter      E             dE          RMSdq      gap      omega  full diag
   1  -5198.6369613 -0.519864E+04  0.134E-04    4.13       0.0  T
   2  -5198.6369613 -0.669388E-09  0.788E-05    4.13      20.4  T
   3  -5198.6369613  0.264936E-08  0.244E-05    4.13      66.0  T
     SCC iter.                  ...       10 min, 34.596 sec
     gradient                   ...        5 min,  9.084 sec
 * total energy  : -5104.0672296 Eh     change    :  -0.6272140E-05 Eh
   gradient norm :     0.0021588 Eh/a0  converged?    E=F G=F D=F
   time step     :     0.2500000 fs     power     :   0.3281088E-09
   step length   :     0.0043751 a0     speed     :   0.4233186E-03

........................................................................
.............................. CYCLE   44 ..............................
........................................................................

 iter      E             dE          RMSdq      gap      omega  full diag
   1  -5198.6372624 -0.519864E+04  0.142E-04    4.13       0.0  T
   2  -5198.6372624 -0.873115E-09  0.850E-05    4.13      18.9  T
   3  -5198.6372624  0.283126E-08  0.248E-05    4.13      64.7  T
     SCC iter.                  ...       10 min, 37.829 sec
     gradient                   ...        5 min,  9.026 sec
 * total energy  : -5104.0672363 Eh     change    :  -0.6697982E-05 Eh
   gradient norm :     0.0019724 Eh/a0  converged?    E=F G=F D=F
   time step     :     0.2500000 fs     power     :   0.3463171E-09
   step length   :     0.0043278 a0     speed     :   0.4187412E-03

........................................................................
.............................. CYCLE   45 ..............................
........................................................................

 iter      E             dE          RMSdq      gap      omega  full diag
   1  -5198.6375086 -0.519864E+04  0.158E-04    4.13       0.0  T
   2  -5198.6375086 -0.133059E-08  0.955E-05    4.13      16.8  T
   3  -5198.6375086  0.446471E-08  0.307E-05    4.13      52.4  T
     SCC iter.                  ...       10 min, 36.040 sec
     gradient                   ...        5 min, 11.380 sec
 * total energy  : -5104.0672430 Eh     change    :  -0.6711539E-05 Eh
   gradient norm :     0.0017349 Eh/a0  converged?    E=F G=F D=F
   time step     :     0.2500000 fs     power     :   0.3456696E-09
   step length   :     0.0043287 a0     speed     :   0.4188217E-03

........................................................................
.............................. CYCLE   46 ..............................
........................................................................

 iter      E             dE          RMSdq      gap      omega  full diag
   1  -5198.6376926 -0.519864E+04  0.171E-04    4.13       0.0  T
   2  -5198.6376926 -0.159071E-08  0.105E-04    4.13      15.4  T
   3  -5198.6376926  0.558066E-08  0.334E-05    4.13      48.1  T
     SCC iter.                  ...       10 min, 37.408 sec
     gradient                   ...        5 min,  8.185 sec
 * total energy  : -5104.0672495 Eh     change    :  -0.6471361E-05 Eh
   gradient norm :     0.0015467 Eh/a0  converged?    E=F G=F D=F
   time step     :     0.2500000 fs     power     :   0.3290807E-09
   step length   :     0.0043675 a0     speed     :   0.4225750E-03

........................................................................
.............................. CYCLE   47 ..............................
........................................................................

 iter      E             dE          RMSdq      gap      omega  full diag
   1  -5198.6378154 -0.519864E+04  0.176E-04    4.13       0.0  T
   2  -5198.6378154 -0.157979E-08  0.108E-04    4.13      14.9  T
   3  -5198.6378154  0.540058E-08  0.325E-05    4.13      49.4  T
     SCC iter.                  ...       10 min, 34.854 sec
     gradient                   ...        5 min, 13.703 sec
 * total energy  : -5104.0672556 Eh     change    :  -0.6090959E-05 Eh
   gradient norm :     0.0014905 Eh/a0  converged?    E=F G=F D=F
   time step     :     0.2500000 fs     power     :   0.3073517E-09
   step length   :     0.0044197 a0     speed     :   0.4276308E-03

........................................................................
.............................. CYCLE   48 ..............................
........................................................................

 iter      E             dE          RMSdq      gap      omega  full diag
   1  -5198.6378941 -0.519864E+04  0.187E-04    4.13       0.0  T
   2  -5198.6378941 -0.155978E-08  0.113E-04    4.13      14.2  T
   3  -5198.6378941  0.503951E-08  0.309E-05    4.13      52.0  T
     SCC iter.                  ...       10 min, 36.069 sec
     gradient                   ...        5 min, 12.860 sec
 * total energy  : -5104.0672619 Eh     change    :  -0.6324160E-05 Eh
   gradient norm :     0.0015630 Eh/a0  converged?    E=F G=F D=F
   time step     :     0.2750000 fs     power     :   0.2912885E-09
   step length   :     0.0049039 a0     speed     :   0.4313432E-03

........................................................................
.............................. CYCLE   49 ..............................
........................................................................

 iter      E             dE          RMSdq      gap      omega  full diag
   1  -5198.6379380 -0.519864E+04  0.186E-04    4.13       0.0  T
   2  -5198.6379380 -0.115142E-08  0.112E-04    4.13      14.4  T
   3  -5198.6379380  0.281398E-08  0.243E-05    4.13      66.2  T
     SCC iter.                  ...       10 min, 38.415 sec
     gradient                   ...        5 min, 13.063 sec
 * total energy  : -5104.0672687 Eh     change    :  -0.6792536E-05 Eh
   gradient norm :     0.0016824 Eh/a0  converged?    E=F G=F D=F
   time step     :     0.3025000 fs     power     :   0.2897173E-09
   step length   :     0.0054022 a0     speed     :   0.4319744E-03

........................................................................
.............................. CYCLE   50 ..............................
........................................................................

 iter      E             dE          RMSdq      gap      omega  full diag
   1  -5198.6379557 -0.519864E+04  0.181E-04    4.13       0.0  T
   2  -5198.6379557 -0.844921E-09  0.107E-04    4.13      15.0  T
   3  -5198.6379557  0.976797E-09  0.163E-05    4.13      98.6  T
     SCC iter.                  ...       10 min, 35.394 sec
     gradient                   ...        5 min, 12.376 sec
 * total energy  : -5104.0672763 Eh     change    :  -0.7642536E-05 Eh
   gradient norm :     0.0017485 Eh/a0  converged?    E=F G=F D=F
   time step     :     0.3327500 fs     power     :   0.3016199E-09
   step length   :     0.0059330 a0     speed     :   0.4312891E-03

........................................................................
.............................. CYCLE   51 ..............................
........................................................................

 iter      E             dE          RMSdq      gap      omega  full diag
   1  -5198.6379462 -0.519864E+04  0.182E-04    4.13       0.0  T
   2  -5198.6379462 -0.620275E-09  0.108E-04    4.13      14.9  T
   3  -5198.6379462  0.863110E-09  0.158E-05    4.13     101.9  T
     SCC iter.                  ...       10 min, 35.399 sec
     gradient                   ...        5 min, 15.502 sec
 * total energy  : -5104.0672852 Eh     change    :  -0.8883729E-05 Eh
   gradient norm :     0.0017051 Eh/a0  converged?    E=F G=F D=F
   time step     :     0.3660250 fs     power     :   0.3177321E-09
   step length   :     0.0065409 a0     speed     :   0.4322595E-03

........................................................................
.............................. CYCLE   52 ..............................
........................................................................

 iter      E             dE          RMSdq      gap      omega  full diag
   1  -5198.6378912 -0.519864E+04  0.199E-04    4.13       0.0  T
   2  -5198.6378912 -0.119235E-08  0.119E-04    4.13      13.5  T
   3  -5198.6378912  0.320051E-08  0.255E-05    4.13      63.2  T
     SCC iter.                  ...       10 min, 32.899 sec
     gradient                   ...        5 min, 14.343 sec
 * total energy  : -5104.0672953 Eh     change    :  -0.1013912E-04 Eh
   gradient norm :     0.0015711 Eh/a0  converged?    E=F G=F D=F
   time step     :     0.4026275 fs     power     :   0.3266629E-09
   step length   :     0.0072744 a0     speed     :   0.4370297E-03

........................................................................
.............................. CYCLE   53 ..............................
........................................................................

 iter      E             dE          RMSdq      gap      omega  full diag
   1  -5198.6377514 -0.519864E+04  0.228E-04    4.13       0.0  T
   2  -5198.6377514 -0.215641E-08  0.139E-04    4.13      11.5  T
   3  -5198.6377514  0.798809E-08  0.389E-05    4.13      41.3  T
     SCC iter.                  ...       10 min, 35.557 sec
     gradient                   ...        5 min, 10.871 sec
 * total energy  : -5104.0673065 Eh     change    :  -0.1116758E-04 Eh
   gradient norm :     0.0014566 Eh/a0  converged?    E=F G=F D=F
   time step     :     0.4428903 fs     power     :   0.3228720E-09
   step length   :     0.0081682 a0     speed     :   0.4461125E-03

........................................................................
.............................. CYCLE   54 ..............................
........................................................................

 iter      E             dE          RMSdq      gap      omega  full diag
   1  -5198.6374751 -0.519864E+04  0.256E-04    4.13       0.0  T
   2  -5198.6374751 -0.244836E-08  0.157E-04    4.13      10.3  T
   3  -5198.6374751  0.100672E-07  0.434E-05    4.13      37.0  T
     SCC iter.                  ...       10 min, 34.300 sec
     gradient                   ...        5 min,  9.846 sec
 * total energy  : -5104.0673185 Eh     change    :  -0.1196367E-04 Eh
   gradient norm :     0.0014778 Eh/a0  converged?    E=F G=F D=F
   time step     :     0.4871793 fs     power     :   0.3157588E-09
   step length   :     0.0092122 a0     speed     :   0.4573944E-03

........................................................................
.............................. CYCLE   55 ..............................
........................................................................

 iter      E             dE          RMSdq      gap      omega  full diag
   1  -5198.6370537 -0.519864E+04  0.274E-04    4.13       0.0  T
   2  -5198.6370537 -0.214004E-08  0.165E-04    4.13       9.8  T
   3  -5198.6370537  0.595264E-08  0.350E-05    4.13      45.9  T
     SCC iter.                  ...       10 min, 39.650 sec
     gradient                   ...        5 min, 10.696 sec
 * total energy  : -5104.0673316 Eh     change    :  -0.1317012E-04 Eh
   gradient norm :     0.0015562 Eh/a0  converged?    E=F G=F D=F
   time step     :     0.5358972 fs     power     :   0.3188871E-09
   step length   :     0.0103560 a0     speed     :   0.4674404E-03

........................................................................
.............................. CYCLE   56 ..............................
........................................................................

 iter      E             dE          RMSdq      gap      omega  full diag
   1  -5198.6365717 -0.519864E+04  0.288E-04    4.13       0.0  T
   2  -5198.6365717 -0.173986E-08  0.170E-04    4.13       9.4  T
   3  -5198.6365717  0.231466E-08  0.264E-05    4.13      61.0  T
     SCC iter.                  ...       10 min, 36.508 sec
     gradient                   ...        5 min, 12.204 sec
 * total energy  : -5104.0673466 Eh     change    :  -0.1499846E-04 Eh
   gradient norm :     0.0015765 Eh/a0  converged?    E=F G=F D=F
   time step     :     0.5894869 fs     power     :   0.3328229E-09
   step length   :     0.0116234 a0     speed     :   0.4769521E-03

........................................................................
.............................. CYCLE   57 ..............................
........................................................................

 iter      E             dE          RMSdq      gap      omega  full diag
   1  -5198.6362204 -0.519864E+04  0.315E-04    4.13       0.0  T
   2  -5198.6362204 -0.218461E-08  0.188E-04    4.13       8.6  T
   3  -5198.6362204  0.830460E-08  0.405E-05    4.13      39.8  T
     SCC iter.                  ...       10 min, 37.797 sec
     gradient                   ...        5 min, 11.524 sec
 * total energy  : -5104.0673639 Eh     change    :  -0.1725264E-04 Eh
   gradient norm :     0.0015062 Eh/a0  converged?    E=F G=F D=F
   time step     :     0.6484356 fs     power     :   0.3477748E-09
   step length   :     0.0131044 a0     speed     :   0.4888378E-03

........................................................................
.............................. CYCLE   58 ..............................
........................................................................

 iter      E             dE          RMSdq      gap      omega  full diag
   1  -5198.6362612 -0.519864E+04  0.363E-04    4.13       0.0  T
   2  -5198.6362612 -0.334148E-08  0.219E-04    4.13       7.3  T
   3  -5198.6362612  0.218997E-07  0.626E-05    4.13      25.7  T
     SCC iter.                  ...       10 min, 33.745 sec
     gradient                   ...        5 min,  9.394 sec
 * total energy  : -5104.0673834 Eh     change    :  -0.1947764E-04 Eh
   gradient norm :     0.0014236 Eh/a0  converged?    E=F G=F D=F
   time step     :     0.7132792 fs     power     :   0.3537017E-09
   step length   :     0.0148878 a0     speed     :   0.5048780E-03

........................................................................
.............................. CYCLE   59 ..............................
........................................................................

 iter      E             dE          RMSdq      gap      omega  full diag
   1  -5198.6368547 -0.519864E+04  0.405E-04    4.13       0.0  T
   2  -5198.6368547 -0.342061E-08  0.242E-04    4.13       6.6  T
   3  -5198.6368547  0.164455E-07  0.564E-05    4.13      28.5  T
     SCC iter.                  ...       10 min, 33.729 sec
     gradient                   ...        5 min, 12.282 sec
 * total energy  : -5104.0674050 Eh     change    :  -0.2167649E-04 Eh
   gradient norm :     0.0014894 Eh/a0  converged?    E=F G=F D=F
   time step     :     0.7846071 fs     power     :   0.3577837E-09
   step length   :     0.0169929 a0     speed     :   0.5238768E-03

........................................................................
.............................. CYCLE   60 ..............................
........................................................................

 iter      E             dE          RMSdq      gap      omega  full diag
   1  -5198.6378039 -0.519864E+04  0.433E-04    4.13       0.0  T
   2  -5198.6378039 -0.314867E-08  0.255E-04    4.13       6.3  T
   3  -5198.6378039  0.890941E-08  0.446E-05    4.13      36.1  T
     SCC iter.                  ...       10 min, 36.286 sec
     gradient                   ...        5 min,  8.009 sec
 * total energy  : -5104.0674299 Eh     change    :  -0.2480652E-04 Eh
   gradient norm :     0.0014934 Eh/a0  converged?    E=F G=F D=F
   time step     :     0.8630678 fs     power     :   0.3760278E-09
   step length   :     0.0193464 a0     speed     :   0.5422131E-03

........................................................................
.............................. CYCLE   61 ..............................
........................................................................

 iter      E             dE          RMSdq      gap      omega  full diag
   1  -5198.6386310 -0.519864E+04  0.491E-04    4.13       0.0  T
   2  -5198.6386311 -0.506316E-08  0.292E-04    4.13       5.5  T
   3  -5198.6386310  0.250629E-07  0.685E-05    4.13      23.5  T
     SCC iter.                  ...       10 min, 33.109 sec
     gradient                   ...        5 min, 11.150 sec
 * total energy  : -5104.0674584 Eh     change    :  -0.2855763E-04 Eh
   gradient norm :     0.0014050 Eh/a0  converged?    E=F G=F D=F
   time step     :     0.9493746 fs     power     :   0.3902748E-09
   step length   :     0.0221255 a0     speed     :   0.5637291E-03

........................................................................
.............................. CYCLE   62 ..............................
........................................................................

 iter      E             dE          RMSdq      gap      omega  full diag
   1  -5198.6388802 -0.519864E+04  0.554E-04    4.13       0.0  T
   2  -5198.6388802 -0.677665E-08  0.329E-04    4.13       4.9  T
   3  -5198.6388802  0.222462E-07  0.670E-05    4.13      24.0  T
     SCC iter.                  ...       10 min, 35.959 sec
     gradient                   ...        5 min, 11.590 sec
 * total energy  : -5104.0674907 Eh     change    :  -0.3229315E-04 Eh
   gradient norm :     0.0014662 Eh/a0  converged?    E=F G=F D=F
   time step     :     1.0443120 fs     power     :   0.3989274E-09
   step length   :     0.0254611 a0     speed     :   0.5897424E-03

........................................................................
.............................. CYCLE   63 ..............................
........................................................................

 iter      E             dE          RMSdq      gap      omega  full diag
   1  -5198.6385814 -0.519864E+04  0.606E-04    4.13       0.0  T
   2  -5198.6385814 -0.717864E-08  0.359E-04    4.13       4.5  T
   3  -5198.6385814  0.317677E-07  0.807E-05    4.13      19.9  T
     SCC iter.                  ...       10 min, 34.440 sec
     gradient                   ...        5 min, 11.407 sec
 * total energy  : -5104.0675279 Eh     change    :  -0.3718528E-04 Eh
   gradient norm :     0.0014360 Eh/a0  converged?    E=F G=F D=F
   time step     :     1.1487432 fs     power     :   0.4227753E-09
   step length   :     0.0292393 a0     speed     :   0.6156847E-03

........................................................................
.............................. CYCLE   64 ..............................
........................................................................

 iter      E             dE          RMSdq      gap      omega  full diag
   1  -5198.6382365 -0.519864E+04  0.701E-04    4.13       0.0  T
   2  -5198.6382365 -0.998261E-08  0.419E-04    4.13       3.8  T
   3  -5198.6382364  0.693526E-07  0.111E-04    4.13      14.5  T
     SCC iter.                  ...       10 min, 35.827 sec
     gradient                   ...        5 min, 11.517 sec
 * total energy  : -5104.0675702 Eh     change    :  -0.4228044E-04 Eh
   gradient norm :     0.0013735 Eh/a0  converged?    E=F G=F D=F
   time step     :     1.2500000 fs     power     :   0.4358966E-09
   step length   :     0.0333861 a0     speed     :   0.6460579E-03

........................................................................
.............................. CYCLE   65 ..............................
........................................................................

 iter      E             dE          RMSdq      gap      omega  full diag
   1  -5198.6386008 -0.519864E+04  0.724E-04    4.13       0.0  T
   2  -5198.6386008 -0.890850E-08  0.428E-04    4.13       3.8  T
   3  -5198.6386008  0.285645E-07  0.819E-05    4.13      19.7  T
     SCC iter.                  ...       10 min, 34.464 sec
     gradient                   ...        5 min, 11.293 sec
 * total energy  : -5104.0676137 Eh     change    :  -0.4349120E-04 Eh
   gradient norm :     0.0014361 Eh/a0  converged?    E=F G=F D=F
   time step     :     1.2500000 fs     power     :   0.4535966E-09
   step length   :     0.0349598 a0     speed     :   0.6765107E-03

........................................................................
.............................. CYCLE   66 ..............................
........................................................................

 iter      E             dE          RMSdq      gap      omega  full diag
   1  -5198.6392402 -0.519864E+04  0.763E-04    4.13       0.0  T
   2  -5198.6392402 -0.102218E-07  0.453E-04    4.13       3.5  T
   3  -5198.6392401  0.727050E-07  0.113E-04    4.13      14.2  T
     SCC iter.                  ...       10 min, 39.295 sec
     gradient                   ...        5 min,  9.705 sec
 * total energy  : -5104.0676589 Eh     change    :  -0.4523295E-04 Eh
   gradient norm :     0.0013604 Eh/a0  converged?    E=F G=F D=F
   time step     :     1.2500000 fs     power     :   0.4702872E-09
   step length   :     0.0364115 a0     speed     :   0.7046019E-03

........................................................................
.............................. CYCLE   67 ..............................
........................................................................

 iter      E             dE          RMSdq      gap      omega  full diag
   1  -5198.6394400 -0.519864E+04  0.778E-04    4.13       0.0  T
   2  -5198.6394400 -0.128139E-07  0.459E-04    4.13       3.5  T
   3  -5198.6394400  0.533628E-07  0.112E-04    4.13      14.4  T
     SCC iter.                  ...       10 min, 36.658 sec
     gradient                   ...        5 min, 11.439 sec
 * total energy  : -5104.0677051 Eh     change    :  -0.4616675E-04 Eh
   gradient norm :     0.0015370 Eh/a0  converged?    E=F G=F D=F
   time step     :     1.2500000 fs     power     :   0.4761433E-09
   step length   :     0.0379422 a0     speed     :   0.7342222E-03
 * RMSD in coord.:     0.0059650 a0     energy gain  -0.4817466E-03 Eh

........................................................................
.............................. CYCLE   68 ..............................
........................................................................

 iter      E             dE          RMSdq      gap      omega  full diag
   1  -5198.6395015 -0.519864E+04  0.153E-04    4.13       0.0  T
   2  -5198.6395015 -0.442924E-09  0.900E-05    4.13      17.9  T
   3  -5198.6395015  0.229556E-08  0.227E-05    4.13      70.8  T
     SCC iter.                  ...       10 min, 32.293 sec
     gradient                   ...        5 min, 10.202 sec
 * total energy  : -5104.0677145 Eh     change    :  -0.9439279E-05 Eh
   gradient norm :     0.0014366 Eh/a0  converged?    E=F G=F D=F
   time step     :     0.2500000 fs     power     :   0.4933710E-09
   step length   :     0.0075022 a0     speed     :   0.7258754E-03

........................................................................
.............................. CYCLE   69 ..............................
........................................................................

 iter      E             dE          RMSdq      gap      omega  full diag
   1  -5198.6395915 -0.519864E+04  0.163E-04    4.13       0.0  T
   2  -5198.6395915 -0.158525E-08  0.965E-05    4.13      16.7  T
   3  -5198.6395915  0.292675E-08  0.318E-05    4.13      50.6  T
     SCC iter.                  ...       10 min, 36.142 sec
     gradient                   ...        5 min,  9.375 sec
 * total energy  : -5104.0677239 Eh     change    :  -0.9407513E-05 Eh
   gradient norm :     0.0013095 Eh/a0  converged?    E=F G=F D=F
   time step     :     0.2500000 fs     power     :   0.4906957E-09
   step length   :     0.0074835 a0     speed     :   0.7240702E-03

........................................................................
.............................. CYCLE   70 ..............................
........................................................................

 iter      E             dE          RMSdq      gap      omega  full diag
   1  -5198.6396889 -0.519864E+04  0.165E-04    4.13       0.0  T
   2  -5198.6396889 -0.138880E-08  0.989E-05    4.13      16.3  T
   3  -5198.6396889  0.315595E-08  0.290E-05    4.13      55.4  T
     SCC iter.                  ...       10 min, 36.137 sec
     gradient                   ...        5 min, 11.681 sec
 * total energy  : -5104.0677332 Eh     change    :  -0.9250975E-05 Eh
   gradient norm :     0.0013362 Eh/a0  converged?    E=F G=F D=F
   time step     :     0.2500000 fs     power     :   0.4816550E-09
   step length   :     0.0075185 a0     speed     :   0.7274585E-03

........................................................................
.............................. CYCLE   71 ..............................
........................................................................

[...]
  3615   6 C     3616   6 C                                       1.5300663
  3617   6 C     3618   6 C                                       1.3893045
  3618   6 C     3619   6 C                                       1.3838561
  3619   6 C     3620   6 C                                       1.3840722
  3620   6 C     3621   6 C                                       1.3848218
  3617   6 C     3622   6 C                                       1.3903342
  3621   6 C     3622   6 C                                       1.3827926
  3616   6 C     3623   6 C                                       1.5361536
  3623   6 C     3624   6 C                                       1.5393650
  3625   6 C     3626   6 C                                       1.3881994
  3626   6 C     3627   6 C                                       1.3848506
  3627   6 C     3628   6 C                                       1.3825494
  3628   6 C     3629   6 C                                       1.3849388
  3625   6 C     3630   6 C                                       1.3923782
  3629   6 C     3630   6 C                                       1.3817338
  3624   6 C     3631   6 C                                       1.5307598
  3631   6 C     3632   6 C                                       1.5326743
  3633   6 C     3634   6 C                                       1.3909275
  3634   6 C     3635   6 C                                       1.3826426
  3635   6 C     3636   6 C                                       1.3843442
  3636   6 C     3637   6 C                                       1.3840511
  3633   6 C     3638   6 C                                       1.3891442
  3637   6 C     3638   6 C                                       1.3839086
  3632   6 C     3639   6 C                                       1.5346479
  3639   6 C     3640   6 C                                       1.5323408
  3641   6 C     3642   6 C                                       1.3889774
  3642   6 C     3643   6 C                                       1.3843581
  3643   6 C     3644   6 C                                       1.3839094
  3644   6 C     3645   6 C                                       1.3849852
  3641   6 C     3646   6 C                                       1.3906552
  3645   6 C     3646   6 C                                       1.3829315
  3640   6 C     3647   6 C                                       1.5353331
  3647   6 C     3648   6 C                                       1.5346846
  3649   6 C     3650   6 C                                       1.3892052
  3650   6 C     3651   6 C                                       1.3842519
  3651   6 C     3652   6 C                                       1.3834575
  3652   6 C     3653   6 C                                       1.3841471
  3649   6 C     3654   6 C                                       1.3904925
  3653   6 C     3654   6 C                                       1.3824455
  3648   6 C     3655   6 C                                       1.5334966
  3657   6 C     3658   6 C                                       1.3897022
  3658   6 C     3659   6 C                                       1.3814461
  3659   6 C     3660   6 C                                       1.3843039
  3660   6 C     3661   6 C                                       1.3833891
  3657   6 C     3662   6 C                                       1.3876242
  3661   6 C     3662   6 C                                       1.3837171
  3656   6 C     3663   6 C                                       1.5334204
  3663   6 C     3664   6 C                                       1.5359142
  3665   6 C     3666   6 C                                       1.3894972
  3666   6 C     3667   6 C                                       1.3827854
  3667   6 C     3668   6 C                                       1.3842306
  3668   6 C     3669   6 C                                       1.3837583
  3665   6 C     3670   6 C                                       1.3894661
  3669   6 C     3670   6 C                                       1.3832300
  3664   6 C     3671   6 C                                       1.5335959
  3671   6 C     3672   6 C                                       1.5352053
  3673   6 C     3674   6 C                                       1.3904617
  3674   6 C     3675   6 C                                       1.3823559
  3675   6 C     3676   6 C                                       1.3839533
  3676   6 C     3677   6 C                                       1.3837762
  3673   6 C     3678   6 C                                       1.3884864
  3677   6 C     3678   6 C                                       1.3838262
  3672   6 C     3679   6 C                                       1.5379889
  3679   6 C     3680   6 C                                       1.5337688
  3681   6 C     3682   6 C                                       1.3907104
  3682   6 C     3683   6 C                                       1.3829448
  3683   6 C     3684   6 C                                       1.3839889
  3684   6 C     3685   6 C                                       1.3844354
  3681   6 C     3686   6 C                                       1.3891402
  3685   6 C     3686   6 C                                       1.3838671
  3680   6 C     3687   6 C                                       1.5367253
  3687   6 C     3688   6 C                                       1.5349054
  3549   6 C     3689   1 H                                       1.0954986
  3551   6 C     3690   1 H                                       1.0921239
  3551   6 C     3691   1 H                                       1.0908968
  3552   6 C     3692   1 H                                       1.0945054
  3559   6 C     3693   1 H                                       1.0931669
  3559   6 C     3694   1 H                                       1.0919642
  3560   6 C     3695   1 H                                       1.0937939
  3567   6 C     3696   1 H                                       1.0905982
  3567   6 C     3697   1 H                                       1.0921607
  3568   6 C     3698   1 H                                       1.0958790
  3575   6 C     3699   1 H                                       1.0916599
  3576   6 C     3700   1 H                                       1.0958766
  3583   6 C     3701   1 H                                       1.0936076
  3583   6 C     3702   1 H                                       1.0922301
  3584   6 C     3703   1 H                                       1.0960170
  3591   6 C     3704   1 H                                       1.0896887
  3591   6 C     3705   1 H                                       1.0905137
  3592   6 C     3706   1 H                                       1.0953433
  3599   6 C     3707   1 H                                       1.0911409
  3599   6 C     3708   1 H                                       1.0930832
  3600   6 C     3709   1 H                                       1.0935951
  3608   6 C     3710   1 H                                       1.0949738
  3615   6 C     3711   1 H                                       1.0918298
  3615   6 C     3712   1 H                                       1.0930865
  3616   6 C     3713   1 H                                       1.0954139
  3623   6 C     3714   1 H                                       1.0918253
  3623   6 C     3715   1 H                                       1.0925271
  3624   6 C     3716   1 H                                       1.0963057
  3631   6 C     3717   1 H                                       1.0905521
  3631   6 C     3718   1 H                                       1.0920872
  3632   6 C     3719   1 H                                       1.0958328
  3639   6 C     3720   1 H                                       1.0914515
  3639   6 C     3721   1 H                                       1.0922244
  3640   6 C     3722   1 H                                       1.0955521
  3647   6 C     3723   1 H                                       1.0917885
  3647   6 C     3724   1 H                                       1.0912964
  3648   6 C     3725   1 H                                       1.0947466
  3655   6 C     3726   1 H                                       1.0925759
  3655   6 C     3727   1 H                                       1.0920990
  3656   6 C     3728   1 H                                       1.0944837
  3663   6 C     3729   1 H                                       1.0937498
  3663   6 C     3730   1 H                                       1.0920292
  3664   6 C     3731   1 H                                       1.0954326
  3671   6 C     3732   1 H                                       1.0906928
  3671   6 C     3733   1 H                                       1.0921481
  3672   6 C     3734   1 H                                       1.0954723
  3679   6 C     3735   1 H                                       1.0929595
  3679   6 C     3736   1 H                                       1.0928332
  3543   6 C     3737   1 H                                       1.0799439
  3548   6 C     3738   1 H                                       1.0812123
  3547   6 C     3739   1 H                                       1.0808770
  3546   6 C     3740   1 H                                       1.0805459
  3545   6 C     3741   1 H                                       1.0811061
  3554   6 C     3742   1 H                                       1.0813955
  3555   6 C     3743   1 H                                       1.0790779
  3556   6 C     3744   1 H                                       1.0796866
  3557   6 C     3745   1 H                                       1.0805994
  3558   6 C     3746   1 H                                       1.0800143
  3562   6 C     3747   1 H                                       1.0807256
  3563   6 C     3748   1 H                                       1.0807394
  3564   6 C     3749   1 H                                       1.0801610
  3565   6 C     3750   1 H                                       1.0803781
  3566   6 C     3751   1 H                                       1.0812546
  3570   6 C     3752   1 H                                       1.0809921
  3571   6 C     3753   1 H                                       1.0804307
  3572   6 C     3754   1 H                                       1.0802121
  3573   6 C     3755   1 H                                       1.0811007
  3574   6 C     3756   1 H                                       1.0805867
  3575   6 C     3757   1 H                                       1.0932892
  3578   6 C     3758   1 H                                       1.0809332
  3579   6 C     3759   1 H                                       1.0800637
  3580   6 C     3760   1 H                                       1.0804210
  3581   6 C     3761   1 H                                       1.0806895
  3582   6 C     3762   1 H                                       1.0804910
  3586   6 C     3763   1 H                                       1.0792238
  3587   6 C     3764   1 H                                       1.0817964
  3588   6 C     3765   1 H                                       1.0792675
  3589   6 C     3766   1 H                                       1.0800151
  3590   6 C     3767   1 H                                       1.0817804
  3594   6 C     3768   1 H                                       1.0793334
  3595   6 C     3769   1 H                                       1.0812498
  3596   6 C     3770   1 H                                       1.0806243
  3597   6 C     3771   1 H                                       1.0806021
  3598   6 C     3772   1 H                                       1.0799316
  3602   6 C     3773   1 H                                       1.0792217
  3603   6 C     3774   1 H                                       1.0801895
  3604   6 C     3775   1 H                                       1.0806398
  3605   6 C     3776   1 H                                       1.0809233
  3606   6 C     3777   1 H                                       1.0820461
  3607   6 C     3778   1 H                                       1.0915151
  3607   6 C     3779   1 H                                       1.0921978
  3610   6 C     3780   1 H                                       1.0806086
  3611   6 C     3781   1 H                                       1.0794277
  3612   6 C     3782   1 H                                       1.0800071
  3613   6 C     3783   1 H                                       1.0796139
  3614   6 C     3784   1 H                                       1.0811831
  3618   6 C     3785   1 H                                       1.0809982
  3619   6 C     3786   1 H                                       1.0805465
  3620   6 C     3787   1 H                                       1.0803683
  3621   6 C     3788   1 H                                       1.0803220
  3622   6 C     3789   1 H                                       1.0808665
  3626   6 C     3790   1 H                                       1.0794000
  3627   6 C     3791   1 H                                       1.0806908
  3628   6 C     3792   1 H                                       1.0800044
  3629   6 C     3793   1 H                                       1.0803812
  3630   6 C     3794   1 H                                       1.0818346
  3634   6 C     3795   1 H                                       1.0804029
  3635   6 C     3796   1 H                                       1.0798352
  3636   6 C     3797   1 H                                       1.0802821
  3637   6 C     3798   1 H                                       1.0804146
  3638   6 C     3799   1 H                                       1.0812482
  3642   6 C     3800   1 H                                       1.0817051
  3643   6 C     3801   1 H                                       1.0803576
  3644   6 C     3802   1 H                                       1.0798303
  3645   6 C     3803   1 H                                       1.0804048
  3646   6 C     3804   1 H                                       1.0812649
  3650   6 C     3805   1 H                                       1.0808358
  3651   6 C     3806   1 H                                       1.0799617
  3652   6 C     3807   1 H                                       1.0800237
  3653   6 C     3808   1 H                                       1.0809208
  3654   6 C     3809   1 H                                       1.0799147
  3658   6 C     3810   1 H                                       1.0810528
  3659   6 C     3811   1 H                                       1.0791374
  3660   6 C     3812   1 H                                       1.0797811
  3661   6 C     3813   1 H                                       1.0802531
  3662   6 C     3814   1 H                                       1.0796926
  3666   6 C     3815   1 H                                       1.0809369
  3667   6 C     3816   1 H                                       1.0805703
  3668   6 C     3817   1 H                                       1.0806732
  3669   6 C     3818   1 H                                       1.0805573
  3670   6 C     3819   1 H                                       1.0803221
  3674   6 C     3820   1 H                                       1.0802966
  3675   6 C     3821   1 H                                       1.0802799
  3676   6 C     3822   1 H                                       1.0799712
  3677   6 C     3823   1 H                                       1.0805493
  3678   6 C     3824   1 H                                       1.0810681
  3686   6 C     3825   1 H                                       1.0811982
  3685   6 C     3826   1 H                                       1.0806623
  3684   6 C     3827   1 H                                       1.0802254
  3683   6 C     3828   1 H                                       1.0801537
  3682   6 C     3829   1 H                                       1.0806921
  3550   6 C     3830   1 H                                       1.0877344
  3550   6 C     3831   1 H                                       1.0879280
  3550   6 C     3832   1 H                                       1.0878942
  3680   6 C     3833   1 H                                       1.0956897
  3687   6 C     3834   1 H                                       1.0935302
  3687   6 C     3835   1 H                                       1.0916318
  3837   6 C     3838   6 C                                       1.3885576
  3838   6 C     3839   6 C                                       1.3840258
  3839   6 C     3840   6 C                                       1.3837327
  3840   6 C     3841   6 C                                       1.3844658
  3837   6 C     3842   6 C                                       1.3905193
  3841   6 C     3842   6 C                                       1.3828033
  3838   6 C     3843   1 H                                       1.0811917
  3839   6 C     3844   1 H                                       1.0805120
  3840   6 C     3845   1 H                                       1.0803248
  3841   6 C     3846   1 H                                       1.0806535
  3842   6 C     3847   1 H                                       1.0802004
  3836   6 C     3848   6 C                                       1.5324380
  3836   6 C     3849   1 H                                       1.0922628
  3836   6 C     3850   1 H                                       1.0923303
  3851   6 C     3852   6 C                                       1.3887500
  3852   6 C     3853   6 C                                       1.3847317
  3853   6 C     3854   6 C                                       1.3834971
  3854   6 C     3855   6 C                                       1.3850288
  3851   6 C     3856   6 C                                       1.3909596
  3855   6 C     3856   6 C                                       1.3822741
  3852   6 C     3857   1 H                                       1.0809615
  3853   6 C     3858   1 H                                       1.0806697
  3854   6 C     3859   1 H                                       1.0800204
  3855   6 C     3860   1 H                                       1.0802382
  3856   6 C     3861   1 H                                       1.0807061
  3688   6 C     3862   1 H                                       1.0955667
  3848   6 C     3863   1 H                                       1.0898138
  3848   6 C     3864   1 H                                       1.0931860

 * 2 distinct bonds (by element types)

   Z      Z             #   av. dist./Å        max./Å        min./Å
   1 H    6 C        1944     1.0851071     1.0990231     1.0775305
   6 C    6 C        1852     1.4190092     1.5407428     1.3812966


optimized geometry written to: xtbopt.xyz


           -------------------------------------------------
          | TOTAL ENERGY            -5104.073622617196 Eh   |
          | GRADIENT NORM               0.000925311975 Eh/α |
          | HOMO-LUMO GAP               4.127102986687 eV   |
           -------------------------------------------------

------------------------------------------------------------------------
 * finished run on 2024/10/08 at 15:58:47.082     
------------------------------------------------------------------------
 total:
 * wall-time:     3 d, 19 h,  7 min, 50.844 sec
 *  cpu-time:    23 d, 22 h, 58 min, 56.712 sec
 * ratio c/w:     6.309 speedup
 SCF:
 * wall-time:     0 d,  0 h, 48 min,  4.857 sec
 *  cpu-time:     0 d,  5 h, 45 min, 45.268 sec
 * ratio c/w:     7.191 speedup
 ANC optimizer:
 * wall-time:     3 d, 18 h, 18 min, 34.689 sec
 *  cpu-time:    23 d, 17 h, 11 min, 38.920 sec
 * ratio c/w:     6.303 speedup

