3864
 energy: -5104.210101807876 gnorm: 0.000973375944 xtb: 6.6.1 (8d0f1dd)
C           34.33071570617492       52.38070841989592       54.50300625924999
C           33.52664660336308       53.07352937654314       55.40094382553198
C           33.17177871892598       52.44966066471610       56.59197415967453
C           33.61448507434049       51.17103743323840       56.88042154412584
C           34.41781856120072       50.49382662974303       55.97885015989974
C           34.77764729690382       51.10270391749725       54.78971803643181
C           33.01721470561567       54.45506969589621       55.05994115833949
C           31.57499118961684       54.32704033852680       54.56109961415270
C           33.14339863411143       55.41373255755102       56.25494787213366
C           33.21060947127366       56.89604397426239       55.86284894156613
C           31.89561224748375       57.42812891668729       55.35577082684399
C           31.79764984141777       57.93708195176840       54.06589675527453
C           30.60228133963494       58.44816540923399       53.59220415983857
C           29.48334287458413       58.46403671093778       54.40638390073607
C           29.57036224224154       57.96744548989849       55.69666486248707
C           30.76632673333183       57.45729992058668       56.16667078625868
C           33.68478890883254       57.75619806636532       57.05164252383882
C           35.20151170314613       57.66055361091127       57.32889294791626
C           35.46058500764154       57.38328960026849       58.78917989747752
C           36.01553082344462       56.17301295667299       59.18316448421698
C           36.24664776410337       55.89389893882640       60.51880730222903
C           35.93194544317696       56.83149971677005       61.48483730861956
C           35.37302046608889       58.04048730215136       61.10612030406367
C           35.13789639689831       58.31356795799930       59.77058831448849
C           35.95513697106289       58.92249234262172       56.87030696575299
C           36.19763028968149       58.92074708988847       55.35094832756954
C           36.57457448953429       60.30021629660944       54.87069253439763
C           35.65362624307597       61.06082591959438       54.15965077153427
C           35.97972913513759       62.32354539832953       53.69656274883913
C           37.24095194997783       62.84318295361079       53.92937328007699
C           38.16424686230773       62.09923409837650       54.64347666848253
C           37.83007951663029       60.84393193162222       55.11828711001240
C           37.25060397999824       57.86338823263019       54.96593609970304
C           36.76156033362158       56.86823560905962       53.90459149132401
C           37.71621754236880       55.70265021242622       53.82245951248724
C           37.31852664872136       54.44663569504687       54.26290169652668
C           38.17762997608050       53.36316524768176       54.20013786790778
C           39.45791166445515       53.52682135727456       53.70122828564872
C           39.87438406326125       54.77785094846306       53.27606282891060
C           39.00976057926186       55.85539875624082       53.33696113049879
C           36.57976292975022       57.55872450753362       52.55015806773324
C           36.06696176206988       56.58706998002862       51.46560767194518
C           34.72928958403737       57.03310444246082       50.93633168074435
C           33.59525991289297       56.25934357347509       51.14816062067366
C           32.35593117821295       56.67102204766170       50.68981364741690
C           32.23424692000710       57.86713671509045       50.00434654700829
C           33.35749745079976       58.64847014268286       49.78840965037614
C           34.59229294905620       58.23802732138378       50.25495838657445
C           37.09997311640338       56.44574711479068       50.34062243732200
C           36.65396674903585       55.46912899898034       49.24712385105239
C           36.21559509862631       54.14672130244836       49.82847016198179
C           37.00707104219221       53.45110265924795       50.73672802684423
C           36.59129228856012       52.23960970700516       51.25819345475562
C           35.37944119543813       51.69361069712738       50.87221628694339
C           34.58490061396319       52.37207480348292       49.96439796643042
C           35.00076191505271       53.58819542340560       49.45051471542065
C           37.77243612349226       55.21440613480634       48.22163572479639
C           38.23897327528928       56.47241609763721       47.47281826757903
C           37.05432037127272       57.17556522483937       46.85789595342232
C           36.68729170106020       58.44534481259468       47.28475352188043
C           35.58238586353077       59.08652632416192       46.75174958352608
C           34.82600075765158       58.46740181660628       45.77355555833666
C           35.18717834353215       57.20545747868182       45.33143750365626
C           36.29002175684220       56.56652477928044       45.86789289939299
C           39.27688246743834       56.13600827188815       46.38793999212869
C           40.61375610656555       55.62988481539023       46.94899831926163
C           41.26704385390466       56.68501515200453       47.80801243296199
C           41.78100107696614       57.84704193633294       47.24366009379390
C           42.38352776866805       58.80836974691999       48.03437718661238
C           42.48621433717648       58.63065214618336       49.40420664895202
C           41.98097941883919       57.47608501440666       49.97563140365345
C           41.37834604407521       56.51399761859624       49.18258742656815
C           41.56731361768208       55.18141840736542       45.82645964880120
C           41.35733856959340       53.72577077704185       45.36080298470040
C           40.28948189516922       53.60865738069351       44.30509352367753
C           39.04448954789274       53.07302605868622       44.62156587266557
C           38.05964528065787       52.94391934487933       43.65786895489518
C           38.30734407677927       53.33238894313804       42.35253355750360
C           39.54340870762827       53.86166362680240       42.02323253652008
C           40.51878809474586       54.00725085391232       42.99341714523177
C           42.71298150662369       53.17377289302993       44.89143926150903
C           42.68838767585103       51.80097000725563       44.20108384698847
C           44.11454249008157       51.34409117950621       44.00234708116643
C           44.62695223256923       51.13332332329956       42.72918588412105
C           45.94319166678463       50.74304155667960       42.54800292752452
C           46.76867886583716       50.55327940143530       43.64190491645537
C           46.26748911748196       50.74912633900109       44.91732024312775
C           44.95244107533900       51.13711120137263       45.09415663948760
C           41.90147750249513       50.75319780555249       44.99511295476640
C           41.87661449074900       49.39781979938412       44.28228451869158
C           41.26960906885784       49.47833314294011       42.90351228376132
C           41.91472224740117       48.91719174860473       41.80745865707540
C           41.31656007512829       48.89614159027958       40.55908515196442
C           40.06045970893533       49.44999268723205       40.38253744507220
C           39.42047273122107       50.04693024243065       41.45644174197564
C           40.01859168989745       50.05346867448777       42.70405718593406
C           41.09879697501967       48.35757707869032       45.11005283988992
C           41.53068011361588       46.93451992849798       44.73141568555275
C           42.87643598824810       46.63195026705426       45.35245350272377
C           44.00622002087089       46.46449774108488       44.56267525129049
C           45.23892856531182       46.18616863362886       45.12762709336819
C           45.36308206881373       46.06660182303482       46.49956770475311
C           44.24687479354674       46.23787498575107       47.30051274084775
C           43.01888262033662       46.52115760415379       46.73199933268759
C           40.53195578442721       45.84792675555371       45.15334897905623
C           39.11315511743560       45.93689725195248       44.56031965313750
C           38.36749128613802       44.67834058466625       44.93444763649057
C           37.22868291271988       44.73702968692712       45.72780195346496
C           36.53927082158204       43.58628619015014       46.07029517758639
C           36.99389110799708       42.34966970702225       45.64806422754565
C           38.14508538829393       42.27410033612416       44.88249009142497
C           38.81346046525953       43.42831709576070       44.51977833382441
C           39.10137487039528       46.16649858688238       43.04136423399139
C           37.69357045281794       46.08600062444125       42.43107455785784
C           36.67730233814282       46.90504622550469       43.18551560491617
C           35.48896110666932       46.32789007720198       43.61647865704939
C           34.51790644377449       47.08666560856543       44.24701531964296
C           34.71450715361039       48.44300015007150       44.44235587023724
C           35.89035348404240       49.02957517575159       44.00613354317407
C           36.86508055511496       48.26637999556123       43.39091734900223
C           37.68906386823173       46.58925898920818       40.97574292220787
C           38.24115111296467       45.59937777136710       39.94037790060730
C           38.45129412539970       46.32439622829121       38.63516754192355
C           37.38441646831941       46.92963446017271       37.97904232990733
C           37.57182139680094       47.58991556162285       36.77836760813050
C           38.82968647800058       47.63803692204638       36.20131219366566
C           39.89556145560804       47.03078790980372       36.84098876674981
C           39.71009886954687       46.38937303560840       38.05325592919710
C           37.30285613344076       44.38979617697166       39.73937377562194
C           37.86598741541118       43.08899154528401       40.33718789702188
C           36.73653690062991       42.10679770584174       40.51783772212539
C           36.07853630037604       41.55521053339972       39.42306407483616
C           35.01778758415002       40.68494303875547       39.59609386043478
C           34.58677743681253       40.35715066068723       40.87113150220063
C           35.22259723293273       40.91105945912522       41.96865810958578
C           36.28867895505169       41.77605539293204       41.79057531238929
C           39.00785506979993       42.52615402683777       39.47484432485600
C           40.07003249523712       41.76125297195144       40.29820651997993
C           41.35599615730297       42.55791650911662       40.26985180842293
C           41.61673829996879       43.47652461977508       41.28101997182892
C           42.76037370734348       44.25403726095044       41.27103123497052
C           43.67754120967608       44.12047200366433       40.24330021890504
C           43.42829557251693       43.21523751277680       39.22711160043806
C           42.27580703934080       42.44946269839759       39.23331661573421
C           40.28791285855373       40.32595016864259       39.80654962778563
C           39.09534095156175       39.37950102360872       40.02357421409171
H           33.62350773801708       54.84685725536545       54.23410273506903
H           32.30981353011407       55.25835490213134       56.94116075703656
H           34.06265988487696       55.16733008968460       56.79236164695245
H           33.93566476463454       56.99576244749800       55.04992606852231
H           33.41480379937239       58.79621777629321       56.85428518173095
H           33.13540094845003       57.44742147764122       57.94371689361493
H           35.59958353343170       56.81094280397089       56.76779558150677
H           35.38531793874662       59.81303190236248       57.14521204055320
H           36.91525652365055       58.98041040810069       57.38827116677231
H           35.24415641224522       58.66923189638449       54.87879351691021
H           37.53444074226097       57.29790266022748       55.85641307407199
H           35.78808040784736       56.47433780477483       54.21854629289881
H           35.87366645119374       58.38269663601152       52.66827853587775
H           37.52733255240900       57.99576187625314       52.23598263434278
H           35.93192373168826       55.59958305157267       51.91983852931325
H           37.26818186756825       57.42379197219156       49.89158732116379
H           38.03979716418917       56.10418630249707       50.77747693157306
H           35.79782524868056       55.91066036299374       48.72307780065655
H           38.61821041852959       54.76632043862414       48.74389604514139
H           37.40758140111279       54.48864727720672       47.49036672182827
H           38.71129738829590       57.15469237348180       48.18623258583430
H           40.41374902298860       54.75942796509656       47.58004631419116
H           41.47857187195847       55.85071542626565       44.96896760311159
H           42.59106981676904       55.26522190862943       46.19873018586593
H           41.03825000458717       53.13668987804503       46.22606271991445
H           43.17567322815716       53.88612090402492       44.20414052159109
H           43.35652533078250       53.11663204757402       45.77100785383471
H           42.21001203310325       51.91018795282818       43.22060217966404
H           42.36908692533203       50.62286723391068       45.97061549688907
H           40.87960890179428       51.09818434160742       45.14961063388647
H           42.91311702073164       49.05448687941291       44.18939221100871
H           41.28224630424137       48.52394935296967       46.17216150371475
H           40.02978106041970       48.49166126591934       44.94118391076343
H           41.63550949231391       46.89140902047942       43.64292280033764
H           40.97013400415876       44.88572644773675       44.87803169700691
H           40.42980273941397       45.85384702483519       46.24019835175363
H           38.59483442536938       46.78096618378906       45.02524167871368
H           39.51875150351900       47.15216654927087       42.83333959224515
H           39.73671484059829       45.42923021283501       42.55058109000213
H           37.35481397559393       45.04574839992620       42.45068922561915
H           36.66074394694358       46.83915406988569       40.70182382155407
H           38.27069591769381       47.51277900436911       40.92382076021672
H           39.21536677997926       45.24431761756920       40.28704810833765
H           36.33536667801535       44.59863337345992       40.20252888721743
H           37.11971900464714       44.23583344552647       38.67357904690655
H           38.26238467073198       43.32805634064123       41.32853588989887
H           38.59950495476457       41.87421629279002       38.70314279330687
H           39.49522645461173       43.35502973653701       38.95748863533024
H           34.60902921832321       52.83951172941924       53.56332448168023
H           35.41144389963011       50.58302971369341       54.08558574518868
H           34.76540801046222       49.49763307622299       56.20576849174851
H           33.33658722807148       50.70645151591825       57.81613108105210
H           32.54438165335462       52.96151880620945       57.30638475907275
H           32.66003474235286       57.92219786261277       53.41310295907456
H           30.54767874335658       58.83181800407996       52.58343684514316
H           28.54784664937569       58.86118114609437       54.03976867630508
H           28.70074676727163       57.97917225945773       56.33839652776252
H           30.81825781993087       57.07554022761789       57.17584125574892
H           36.26713827341113       55.43045435080136       58.43817482350288
H           36.66828253070132       54.94220292434401       60.80641576009365
H           36.12284822845350       56.62126375969736       62.52762597703413
H           35.11580921365207       58.77329375370451       61.85802117744952
H           34.69526728209627       59.25814718875362       59.48831015575367
H           34.66747137128895       60.66048448284308       53.96132926151731
H           35.24898943487052       62.89976603032900       53.14605868642380
H           37.49713342159311       63.82406309522535       53.55567539560974
H           39.15141842111548       62.49727952111957       54.82693680877322
H           38.55767592003600       60.28379962616342       55.68598879328537
H           38.14584733716630       58.35687258899030       54.58671591553269
H           36.32196318681731       54.30786524847655       54.66104277747976
H           37.84825382239229       52.39409345467531       54.54891597016331
H           40.12618189237257       52.67971041761993       53.65205324640979
H           40.87881331068325       54.91407701926420       52.90226056948717
H           39.34538693535485       56.82568338203198       53.00303952483622
H           33.68022925513512       55.31854714231149       51.67552498501717
H           31.48329454219357       56.05915133273521       50.87152036338453
H           31.26835050065613       58.18975161942370       49.64099550005292
H           33.26839826111476       59.58352154145624       49.25346257658918
H           35.45561216090882       58.86510281533885       50.08783743927355
H           37.95305577115307       53.86152781291592       51.05650896877845
H           37.21217874241512       51.72133240882265       51.97502280363036
H           35.05210388753748       50.74696748908455       51.27783879921494
H           33.63454795968633       51.95567742065106       49.65914621390959
H           34.36874246473094       54.11801553251941       48.74950138582421
H           37.27302107855703       58.94632002873912       48.04264593231776
H           35.31615452394111       60.07392343937213       47.10114584264692
H           33.96308332547817       58.96458163044579       45.35382422785123
H           34.60253328012938       56.71587494246640       44.56448676893260
H           36.55365551578703       55.58180606449577       45.50950311523727
H           38.87123473088589       55.38376804180481       45.71066569221451
H           39.45975646566831       57.04061136040028       45.80132615352463
H           41.71206734272671       57.99827730068602       46.17731677570779
H           42.77961747823911       59.70596427334934       47.57930860949921
H           42.95506996788795       59.38809326297489       50.01571821865436
H           42.05936255055569       57.31883056390637       51.04208618110255
H           40.99088318746087       55.61478848254137       49.64179877773374
H           38.84284077040195       52.74313606403194       45.63348246666560
H           37.09566481276692       52.52771883872255       43.92035469153604
H           37.54147497132951       53.21359712743870       41.59863186777829
H           39.75625628653543       54.15402769204751       41.00465710730150
H           41.47658038653774       54.42248591337077       42.71453762298087
H           43.98434034590524       51.27030793695564       41.86952515258591
H           46.33148563239467       50.59402000481474       41.54995481393532
H           47.79680471622886       50.25719707038362       43.50318948652645
H           46.90854334538856       50.60968618743309       45.77575879206449
H           44.58078336907275       51.28340062335765       46.09774250860156
H           42.89939828143339       48.48985632267252       41.93416015727271
H           41.82634353864677       48.44962108645880       39.71841503178263
H           39.57902614057989       49.41089871952014       39.41446655069679
H           38.44453316000882       50.49647042672830       41.32542051005451
H           39.49634248036446       50.51266587026223       43.53077259813601
H           43.92494494915908       46.55489208580866       43.48828662957043
H           46.10346438639537       46.06042784567438       44.49304026524857
H           46.32315287603343       45.84304701307462       46.94201853947245
H           44.33095185117023       46.14771524096549       48.37493383561069
H           42.16006571054830       46.65217763058627       47.37514461635311
H           36.86923939913940       45.69502804986434       46.07849429525447
H           35.64494355700989       43.65599499870046       46.67464385031299
H           36.46027033586527       41.45079633666853       45.92004835799045
H           38.52648015664114       41.31063515450426       44.57542120230809
H           39.70111505579654       43.34663267532498       43.91043734008392
H           35.31897802601718       45.27111854903950       43.45834764814411
H           33.60149656380553       46.61911259037077       44.58029728775437
H           33.95288627380070       49.03737536809761       44.92812648624486
H           36.04760176760443       50.09099094519323       44.13106119936209
H           37.77405049153540       48.73934867735532       43.05510679745749
H           36.39296429437906       46.87907144559899       38.40623416684437
H           36.73164925444657       48.06144202663264       36.28704613131894
H           38.97357701725279       48.14041924427424       35.25590447752504
H           40.87419926826374       47.04818570252299       36.38591993726463
H           40.55098181598390       45.92642614535001       38.55150156809965
H           36.38964415794775       41.81236536047235       38.42027691331323
H           34.52055066655839       40.26265620566807       38.73381353601344
H           33.75851623311465       39.67649855909038       41.00731650441066
H           34.88630896992824       40.66527817071475       42.96586248742906
H           36.77330231485639       42.20528253877901       42.65724285191619
H           42.10158369572346       41.76489011731658       38.41796774267649
H           44.13014608292798       43.10400013142274       38.41464371934590
H           44.58390534367354       44.70725468020543       40.23712225913679
H           42.93540594235954       44.95554847010835       42.07282457553524
H           40.91390667834906       43.57181084799591       42.09632727175907
H           31.52897126899695       53.62231721151495       53.73225101454430
H           30.92916303728927       53.95929469024931       55.35595308619304
H           31.19413974156205       55.28595744296112       54.22049294754468
H           39.73266671519545       41.70584514738008       41.33769213839978
H           40.49851287234483       40.34318193805449       38.73512450468629
H           41.16402557385223       39.91763209145332       40.31466588038586
C           38.87547964146393       38.99872894679027       41.49413498704736
C           39.29896231347310       38.14245463780516       39.18175569487073
C           40.39735491862999       37.31259259060628       39.37755958033375
C           40.58734287800331       36.18444298329005       38.60144583888180
C           39.67882751709639       35.86744082537027       37.60622284468676
C           38.58165117653726       36.68516814797843       37.39707820927840
C           38.39633292114907       37.81213366369327       38.17912933556492
H           41.11675743118530       37.54727211979566       40.14781170303431
H           41.44735748963214       35.55219932793439       38.76814808705758
H           39.82569636409121       34.98681347514141       36.99716153229285
H           37.86721311579607       36.44333338608149       36.62252458561022
H           37.53340912960658       38.44227935109062       38.01170312736763
C           37.62064985501043       38.13067794756275       41.63712823660771
H           39.74060556267935       38.45763317741918       41.88177871663746
H           38.75271880296806       39.90453341142838       42.08721980553147
C           37.33416325055026       37.70406172056789       43.04900294351800
C           37.24638588861232       36.35777354318548       43.37924215783544
C           36.94390407613726       35.96021350472811       44.67058283525159
C           36.73600656670794       36.90684411566102       45.65928136974080
C           36.82639144808063       38.25274285974979       45.34395689302480
C           37.11383995527204       38.64457948956940       44.04909912437272
H           37.40904614809303       35.60726104343635       42.61915538752144
H           36.87153371531354       34.90627821452359       44.90198161935377
H           36.50934079025053       36.60178972886538       46.67108798498604
H           36.67034098803671       38.99214075101369       46.11724239293459
H           37.15225140429980       39.69404524024817       43.80408318518321
H           38.18481724553514       39.87907080479270       39.67723679773567
H           36.76425389978318       38.70069445842290       41.26380710014416
H           37.72626179811147       37.24255060270376       41.00963661510431
C           67.99896452960149       53.98216017726866       61.89785465124841
C           67.48035040967945       52.70248143020324       61.75177960602233
C           67.43470930427908       52.15266654411453       60.47378846593038
C           67.90553565488582       52.85100480627194       59.37728284525831
C           68.41238488477796       54.13021818137153       59.53682797800028
C           68.45065127579700       54.69470456533083       60.79892613852155
C           67.04714122609003       51.83828159628343       62.91115030628413
C           68.20823850413082       50.89342966492307       63.25091274382854
C           66.62844317453431       52.59554456987843       64.17177708641584
C           65.39093230323523       53.49110673209277       64.00247777184875
C           64.19836125319729       52.65968512416401       63.59983499290366
C           63.70065882379744       52.71808198656579       62.30440316375016
C           62.62103951612782       51.94261376860151       61.92272269876025
C           62.01839978704123       51.09587477227083       62.83499307531949
C           62.50129438674992       51.02938839780061       64.12974854786651
C           63.58528885163549       51.80156236421993       64.50426340164076
C           65.14987869439021       54.26601742303211       65.31515313051756
C           65.58709164891135       55.74223623868643       65.24644183807969
C           66.03249904312823       56.21625206296803       66.60572365426133
C           65.16893707919904       56.18776471288339       67.69482056051309
C           65.59309077950422       56.60129123397817       68.94408307516044
C           66.88774901961885       57.05627232920416       69.12740617831628
C           67.75781735318380       57.08734344954817       68.05143395969455
C           67.33189543132485       56.66581010342671       66.80402435352534
C           64.44233166558222       56.60778160175871       64.70497497186845
C           64.82103819982520       58.08436070961081       64.52623968321515
C           65.93452278648213       58.22596175647177       63.51966931998369
C           67.16779122082629       58.73960829655942       63.89961026091995
C           68.19974826942848       58.86358562951725       62.98546755670836
C           68.01005367089149       58.47777163426652       61.66997976801687
C           66.78236387682776       57.97253919765190       61.27674705413887
C           65.75469503305676       57.84879183102105       62.19333899684575
C           63.59365418257267       58.92955373446754       64.11705064867779
C           62.98190113818222       59.70451050520531       65.29422720100642
C           62.49395822795218       58.79770676617044       66.39598813158810
C           62.96411336272183       58.94769728435563       67.69430913178732
C           62.48498844465609       58.15414301116765       68.72229340817719
C           61.53783159024320       57.17898550071241       68.46371443488007
C           61.06678082687909       57.01364801626644       67.17221639212401
C           61.53451164613725       57.82094381239749       66.15178073119112
C           61.82600951358622       60.60416275671639       64.82189975741645
C           61.42148170089155       61.61815188685536       65.90066832336407
C           62.48009549716816       62.68147398395801       66.05082516207993
C           62.77450284077759       63.54772056451782       65.00359043673294
C           63.74007159304738       64.52685940301625       65.14642755273134
C           64.43113438311657       64.65812107912846       66.33939084878351
C           64.14291681375373       63.80588123486174       67.39097737425317
C           63.17316805827944       62.82900129686267       67.24540811545538
C           60.06585389201214       62.27915552815902       65.59505812251676
C           58.84742126011694       61.42057235794809       65.97818978826626
C           57.61093452688559       61.97602814460891       65.31489641842829
C           57.19778056839502       63.28300800865882       65.55103116713468
C           56.08491942998235       63.80272756090030       64.91430145197720
C           55.36683763538552       63.02569547273748       64.02011951255110
C           55.76099338313661       61.72047776207155       63.78424475334883
C           56.86682931546970       61.19892876438574       64.43566944607878
C           58.66715318935668       61.35957195776130       67.50138886302062
C           57.50017616229213       60.46700945762105       67.95862437215722
C           57.26141931389721       60.69026494531676       69.43012829518263
C           56.06833919437175       61.24811818759702       69.86961380551628
C           55.83679081546686       61.46737338504077       71.21607765226589