3864
 energy: -5104.111998253796 gnorm: 0.000995655963 xtb: 6.6.1 (8d0f1dd)
C           48.78133549934392       53.68859346811400       34.10158155503917
C           49.49084151007855       52.64835837638416       34.69116046357050
C           48.98164472312844       51.35969718327347       34.58768460552682
C           47.79434034705641       51.11190501320485       33.92043055618466
C           47.10246786766099       52.15521766636280       33.33037026190365
C           47.60123911341542       53.44455605088142       33.42345369406771
C           50.79530782869604       52.90406884707046       35.40417544060031
C           51.83764249798879       53.45356430124924       34.42705704731657
C           50.61423022595251       53.86251950628502       36.58753986167009
C           49.77045608906720       53.25109539613544       37.71461542919700
C           50.51644173405396       52.11223272031779       38.36596617035777
C           51.60484841986644       52.35200299577372       39.19733621297878
C           52.29250239066224       51.30620818481123       39.78641084559509
C           51.91324537331514       49.99640476750385       39.54291746355907
C           50.83400998977032       49.74369533109049       38.71402264743585
C           50.13722210776145       50.79422868887575       38.14177563282942
C           49.37719012700120       54.31025955473246       38.75881758075748
C           48.11829692343358       55.10231397280980       38.37572275280467
C           48.41841740994904       56.28043014306684       37.48281536900457
C           47.78204144118838       56.39405795972511       36.25167709196349
C           48.02466344330283       57.47494179335990       35.42271588169452
C           48.90569719753489       58.46732934436352       35.81682465264867
C           49.53815661271226       58.36967880142669       37.04423863780510
C           49.29531784088434       57.28653927642475       37.87033685035181
C           47.34708447753616       55.60271303651982       39.61147679382513
C           46.81703875502078       54.50575878355174       40.55803530363003
C           45.73534353158842       55.07312724697374       41.44365139166963
C           45.86979630963626       55.04568714429292       42.82496817565028
C           44.85258381143369       55.50373956256755       43.64416674288001
C           43.69105475692513       56.01986056306689       43.09622248317758
C           43.54834937186108       56.05529841018511       41.71916369418813
C           44.55784779882443       55.57936013056010       40.90246054532426
C           46.26888860504948       53.29803053122718       39.78578682623552
C           45.59938828275386       52.24677770855681       40.67566738478374
C           46.53929764336043       51.65795935131352       41.70119843653909
C           46.14326572240371       51.56752718670508       43.03028584079826
C           46.94930183626344       50.95985508031679       43.97686237759635
C           48.17247146806766       50.42833905257636       43.60663184957621
C           48.58053988672987       50.51252042142805       42.28574767739635
C           47.77028938514232       51.11932676026949       41.34253072253276
C           45.03416007695263       51.09208173107813       39.82922304535853
C           43.69766322961542       51.39908170582768       39.13928230952535
C           43.82138230798867       52.41348750381931       38.03253386731505
C           43.07143889795036       53.58384984198673       38.06760762217177
C           43.17834315046777       54.52725946569021       37.06101765132507
C           44.04129672431313       54.31502265685796       35.99976477700159
C           44.78419768600310       53.14781710146493       35.94594411909490
C           44.66790782896489       52.20256341968283       36.94897731376136
C           43.10238970369623       50.09611466944685       38.58811404339629
C           41.70217786369108       50.29652682556826       37.99819822066164
C           40.71861687021163       50.71398597256447       39.06181678772790
C           40.52793294941979       49.96548903264210       40.21761780576549
C           39.64181560476393       50.38544552126402       41.19401910293927
C           38.92288039933680       51.55606509645322       41.02731435425407
C           39.08476641802697       52.29668584420082       39.86980930397524
C           39.97576178701488       51.87732293119887       38.89804338536901
C           41.23942423808131       49.01999258561048       37.27976828107577
C           41.87911777874881       48.89393495744937       35.88693441595238
C           41.22319252023401       49.87381674407386       34.94905815882352
C           39.92851691794385       49.66731449602550       34.48698043828276
C           39.32163258629956       50.58912991500911       33.65380808211987
C           39.99625409587526       51.73805876487080       33.27585466267088
C           41.28429339950084       51.95498942366554       33.73210243548675
C           41.89268055570226       51.02674040576510       34.55870603936855
C           41.79735780594653       47.45324600163341       35.36347636695872
C           42.88403983317508       46.56940074043165       35.98672864821615
C           44.26574313591396       46.93789570067997       35.49713457141729
C           45.26659590416562       47.26454280625949       36.40327980163534
C           46.56442832953326       47.50158984837113       35.98598246969454
C           46.88343395360319       47.42174557378198       34.64207213145467
C           45.89125252122182       47.12021431943248       33.72384703134946
C           44.59653231827379       46.87741577474628       34.14778180274262
C           42.65574209723630       45.07506830442989       35.70180755787555
C           41.71684387213583       44.35794374411611       36.68863499404106
C           40.28099093320350       44.76656731501092       36.50233295599423
C           39.56131077435230       44.39717931866967       35.37180243320677
C           38.24545516160262       44.79119490238237       35.21119621123038
C           37.62869017894359       45.57209620179510       36.17372536251219
C           38.33510517636312       45.95056223964161       37.30156107759568
C           39.64648074019122       45.54219246685444       37.46595057035750
C           41.94253223413223       42.84754974386999       36.50935200025562
C           40.90667914552371       41.91071853276898       37.14783075789519
C           41.34061431034816       40.49820124942919       36.83779919503568
C           40.57234834583478       39.68741347573075       36.01280766875375
C           41.00455572383959       38.42041360578126       35.65942032250432
C           42.22516127116977       37.95110810158047       36.11154377575623
C           42.99835049157986       38.75043264369328       36.93724164481544
C           42.55463774678655       40.00707981860234       37.30528164557374
C           40.71705430414805       42.14377593404316       38.65138664802104
C           39.65979151898005       41.19569761432775       39.23312792514506
C           38.38470311487558       41.19314101076112       38.42279775289443
C           37.68635070005039       42.36864391231955       38.17006131316692
C           36.49648680794427       42.34777633383697       37.46622716867837
C           35.98183629927038       41.14849096240669       37.00378984872802
C           36.66656644874104       39.97079164704898       37.25174196876815
C           37.85535436543550       39.99479320454063       37.96057569784795
C           39.26184758223793       41.55590681525783       40.67342666189524
C           40.32642488378642       41.33438779297087       41.75763296143406
C           39.87169371007126       41.97512859350645       43.04815985292775
C           40.69331981061409       42.86015934058701       43.73445760314173
C           40.29091801214986       43.43288818237952       44.92897617760655
C           39.04763654560872       43.12946703284181       45.45440623209950
C           38.21014488329733       42.26190793077841       44.77514931418834
C           38.62468735127946       41.68374034667591       43.59000312965783
C           40.59420380781415       39.84212345666666       41.99433721383949
C           41.82240576878031       39.60397735531798       42.88445991867901
C           43.07831471254003       40.07175910867300       42.19215912016031
C           43.49661368686869       39.50579509913766       40.99276900931984
C           44.64409582729762       39.95364637075157       40.36234753604628
C           45.38451866463479       40.98644047243871       40.91203640221028
C           44.98078874425410       41.55642664115582       42.10594968344096
C           43.84056730957244       41.09628114421635       42.73986308003535
C           41.90435187544844       38.11917324603531       43.26203296895925
C           43.11983849111625       37.78471721614407       44.13440653406351
C           43.17900997397835       38.64412274797199       45.37556799479633
C           42.14038743997200       38.63780646253022       46.29863946627194
C           42.21409852650175       39.39112907916178       47.45561050060980
C           43.33529760526112       40.15911500961718       47.71745162782733
C           44.37686892545411       40.17630717780357       46.80536087335515
C           44.29528497306995       39.42779108022003       45.64345960124199
C           43.10652751411471       36.30914329969877       44.57270307610408
C           43.31186973361892       35.27983202562127       43.45018151457818
C           42.93414655127628       33.90436343460523       43.94422823469765
C           41.94380191143302       33.17744355743248       43.29492176502538
C           41.58002700907497       31.91720070419486       43.73693934489036
C           42.18988779619947       31.37054863922086       44.85220917602074
C           43.17604816438626       32.08701626925111       45.50775559423793
C           43.55200966125248       33.33797776058587       45.05372558801445
C           44.75267951314088       35.30227192033783       42.92765252650501
C           44.99038217287703       34.28979423342697       41.80118304779800
C           44.00827492580868       34.45733260614683       40.66820719261767
C           43.36064580041745       33.34652417874280       40.14311628932574
C           42.46576233266645       33.47244035441111       39.09543212827344
C           42.19181780828266       34.72034414502229       38.56364955497941
C           42.83392785658130       35.83475427366839       39.07515273996700
C           43.74576088344229       35.70152423865427       40.10669961343328
C           46.42424858848003       34.39514802977562       41.24663224416409
C           47.42498226236559       33.46083094286433       41.94016092957676
C           47.69009585118403       33.91201423188719       43.35483043882149
C           47.20116999011695       33.20084849618289       44.44419926043182
C           47.46554520426454       33.61832176199528       45.73748166164670
C           48.23086247694555       34.74911806206853       45.96040211838933
C           48.72226199220855       35.46552268046580       44.88322781002373
C           48.44628639762327       35.05459742849608       43.59306368055485
C           48.75050382469156       33.38749341145356       41.15789366954530
C           48.82776354606983       32.24068933522723       40.13637401270400
H           51.16802206340301       51.95075319641920       35.79575664142812
H           51.59924861957980       54.12198211185245       36.98048784311406
H           50.13915471359151       54.78406688829821       36.24888176339440
H           48.85539795179137       52.84615205407613       37.26530908361983
H           49.18831531261795       53.80003008734933       39.70314747715484
H           50.21192702060106       54.99538396307420       38.91373792167179
H           47.44973491491928       54.44152362413960       37.81530218258106
H           47.97657415940856       56.28235309445629       40.19084218566513
H           46.50201937416569       56.18919451456153       39.24478543467845
H           47.63197394358424       54.16375929098717       41.20554071806612
H           47.07953990187298       52.81834942143585       39.23886358555402
H           44.76644205910117       52.71650120489018       41.21021383571515
H           45.77679783395018       50.78896157989247       39.08905105924531
H           44.86821396526651       50.24047515414294       40.49250184770843
H           43.00767727221522       51.79304426595199       39.89486869432465
H           43.76580061962971       49.70194426034185       37.81673004616646
H           43.05576162317912       49.35726252757680       39.39072319483949
H           41.74862282351539       51.09908018443842       37.25412781316481
H           41.49406970151513       48.15237246703281       37.89039846502254
H           40.15288290371419       49.03619219248350       37.16807024930284
H           42.93948162533158       49.15817178644120       35.95600811660156
H           42.86513302515002       46.71221069319619       37.07214906990723
H           42.27643984644320       44.95207430777187       34.68582698404611
H           43.62398134955915       44.57164558098231       35.75792242891858
H           42.01861131173435       44.63298746377771       37.70507619316255
H           41.96182201178538       42.61901355540063       35.44021919722111
H           42.93303784001433       42.61397781170766       36.90548665133166
H           39.94103179744639       42.08935236275514       36.66369574350163
H           41.66433507622828       41.99040571575502       39.17247088245427
H           40.40289923374444       43.17601969648625       38.81025425200814
H           40.06833053773133       40.18030777841352       39.21383186893146
H           38.95589708973051       42.60523552353567       40.69449005673429
H           38.38475971249449       40.95437466572821       40.91778861129682
H           41.26221031543733       41.80815007071314       41.44482628079705
H           39.71791692223691       39.39470881601299       42.46824218184349
H           40.74131290588548       39.33816533795194       41.03851921499841
H           41.69941032353399       40.18359600492756       43.80678490177846
H           40.99079984787552       37.84462616306823       43.79383598086851
H           41.94776354536693       37.52702046845924       42.34645459154072
H           44.02192288140726       37.98172612152941       43.54750048501226
H           43.88796142871072       36.17048351391876       45.32445538997458
H           42.14655471358178       36.10324444724506       45.05244020022991
H           42.64625799529638       35.52502809071038       42.61731299995058
H           44.97878671911170       36.30441817691292       42.56032666396116
H           45.44115966614919       35.08680236326697       43.74580187916262
H           44.85022561801090       33.28496416465595       42.21422478473689
H           46.40737964368450       34.14833306027871       40.18368091724552
H           46.77494671672442       35.42372670148365       41.34953326117701
H           49.15372370138999       54.70029042048499       34.16770954840008
H           47.06670398162387       54.26457087679924       32.96480074621998
H           46.18167849455436       51.96248130378772       32.79822289567950
H           47.40742400353677       50.10463217758350       33.85978503023779
H           49.52492985897782       50.53609055491530       35.03093237311780
H           51.91471257290370       53.36685432830094       39.39527672796577
H           53.13171737109570       51.51936646371808       40.43240844518167
H           52.45274675077302       49.17524790011122       39.99459861584653
H           50.53698028929452       48.72522498364647       38.51004330022234
H           49.28565403223299       50.58906613992988       37.50714932918949
H           47.09249311915968       55.62185271811515       35.93891475743753
H           47.52491875543747       57.54365413259217       34.46698438693002
H           49.09708296083203       59.31301840479522       35.17233833520975
H           50.22433750124751       59.14215676603293       37.36105129744494
H           49.79555378288173       57.23215839246752       38.82647670727007
H           46.77496588208805       54.64587102238501       43.26135643250026
H           44.95917481834228       55.44653039867698       44.71708539054082
H           42.90260602863125       56.38468356502067       43.73951730943963
H           42.64111495657176       56.44799630329753       41.28163520722305
H           44.41969309131321       55.59263659065331       39.83089800581912
H           45.53871681413631       53.65270688369473       39.06085658868491
H           45.18764149898941       51.97327960309648       43.33101887504267
H           46.61146362931054       50.89809455551197       45.00196668713913
H           48.80426781603514       49.95053503791692       44.34282919947386
H           49.53269434076304       50.09909764971887       41.98324402651938
H           48.10611895958449       51.16310990101059       40.31633449120823
H           42.40309182281806       53.75668534395908       38.89979451239955
H           42.58968132516694       55.43254286681248       37.10637668515449
H           44.13284210578743       55.05417772205100       35.21728004969992
H           45.45995081633647       52.97097628895789       35.12171536375924
H           45.25465532940122       51.29688294305227       36.88611834612793
H           41.07922747169444       49.04716100869328       40.36409878481253
H           39.51085098040755       49.79815073458387       42.09066975794727
H           38.24120943105163       51.89217588559536       41.79507433816658
H           38.51701906066724       53.20443160811056       39.72624151832903
H           40.10243015672007       52.46040730257287       37.99609269893825
H           39.39025225383285       48.77748075253035       34.78048865819652
H           38.31596325628028       50.41279717412736       33.29991775273162
H           39.51901478491511       52.45947220172929       32.62877975552524
H           41.81902027812612       52.84947452472467       33.44665027873492
H           42.90074186119941       51.20421769960315       34.90774222718864
H           40.81745519436626       47.03409571713451       35.58997187358892
H           41.91381500555637       47.46099510304273       34.27794631621800
H           45.02540642989311       47.32025510055805       37.45424125159825
H           47.33031307501408       47.73325112381659       36.71234944311895
H           47.90044401908488       47.58116423448580       34.31424192504900
H           46.13031358262378       47.05929095831809       32.67166088596743
H           43.84098469763957       46.62178807550155       33.41932646181736
H           40.03307916622245       43.79677606224974       34.60772137410714
H           37.69905810829418       44.48972289836087       34.32925828752635
H           36.60264492173872       45.88372939342556       36.04531710498513
H           37.86556628384309       46.56331246268564       38.05639361734876
H           40.18992985960733       45.83944728621211       38.35333161028100
H           39.62537660225203       40.05426322327639       35.64220350611144
H           40.39134101732402       37.80341630890761       35.01856277805983
H           42.57356109688227       36.96955204127206       35.82388908789276
H           43.95888056435847       38.39763492029896       37.28627490668300
H           43.16851898953092       40.61350846952887       37.95517848532125
H           38.06905721450164       43.31543080115263       38.51899437561578
H           35.96947285621584       43.27235897094926       37.28558055544762
H           35.05063086880614       41.13149230472283       36.45671820333230
H           36.27660911305033       39.02887319702062       36.89134646848840
H           38.38202901778462       39.06973209325950       38.15295914226160
H           41.66641408712454       43.09693353205259       43.32883991213154
H           40.94813981063773       44.11380437149171       45.45065430527251
H           38.73298139105384       43.56945389728118       46.39011134266231
H           37.22790186252436       42.03228463950263       45.16292366017952
H           37.96114799781582       40.99648362204806       43.08574935811536
H           42.92122879747367       38.70999675890396       40.54193286468226
H           44.96379419366331       39.49681604655325       39.43544208878927
H           46.27258144361872       41.34550358324078       40.41635473616559
H           45.55701645870938       42.36077154710867       42.54070464480914
H           43.53437219969864       41.53695389225003       43.67707942568003
H           41.25858446217709       38.04097706291100       46.12268640961858
H           41.38727843146205       39.37177957837510       48.15001480527084
H           43.39635472467777       40.74642343898839       48.62199659364634
H           45.25413001038007       40.77818236688501       46.99772325218397
H           45.10958383544777       39.46013950877980       44.93386852586689
H           41.45342539725007       33.59788773406394       42.42823326834689
H           40.81821902305988       31.36301130368268       43.20692778639073
H           41.90056919969899       30.39285014673618       45.20891595924031
H           43.65098919461040       31.66549817597380       46.38144415395964
H           44.33328932489429       33.87662219322063       45.56950148754383
H           43.55664140101194       32.37118532018717       40.56581103196214
H           41.97389631587356       32.59499222898038       38.69976643299673
H           41.47941629367168       34.82909618616345       37.75885070996340
H           42.61752784843973       36.81065650758795       38.66473968550815
H           44.24970097698068       36.57950540695956       40.48406475817796
H           48.82642336324701       35.62738634504916       42.76022495102619
H           49.32291087169354       36.34935463375211       45.04394374993520
H           48.44873375148254       35.06513643003134       46.96857843406684
H           47.07805425040667       33.05762807576339       46.57549118350624
H           46.59969892169718       32.31690566058381       44.28239479776351
H           51.56667421761782       54.45308131416284       34.09464125489476
H           52.81312710104174       53.49714223867495       34.90646929403532
H           51.91672221266018       52.80977550621684       33.55358288698917
H           46.98060824825770       32.46159176405611       41.96872187999826
H           48.91984598143140       34.33347987807036       40.64176582217318
H           49.57313570080130       33.25466140120103       41.86605857931981
C           50.26638713788054       32.15003817686385       39.61333006843647
C           47.82089336973842       32.42046048754352       39.03008819729861
C           46.71612076000851       31.58072572219523       38.95078904246173
C           45.75170921375656       31.76121353095098       37.97556394436688
C           45.88657154966693       32.77855920920891       37.04776957918398
C           46.99365148166011       33.60768960684483       37.10089480170417
C           47.94695970897972       33.43553235252927       38.08769125435725
H           46.61048748177246       30.77561602104699       39.66469421693179
H           44.89454249714070       31.10508771645909       37.93749245934040
H           45.13534157353790       32.92250806117644       36.28538406230182
H           47.11446894372861       34.39810660163741       36.37491256653804
H           48.79254484046374       34.10690351167114       38.12367327880797
C           50.49710480184073       30.98710531714305       38.64390332620460
H           50.54589242745282       33.08133099254083       39.11739210149267
H           50.93982833214464       32.02966058522788       40.46501179979528
C           51.95297041472067       30.94980556742988       38.27776556231618
C           52.44871635159016       31.77726655616941       37.27802579127655
C           53.80131811664130       31.80733865390373       36.98947674720257
C           54.68285239209154       31.01262918901689       37.70305345137222
C           54.19836351343233       30.17902127335107       38.69706741821312
C           52.84397808148316       30.14953063424655       38.98147423333641
H           51.77020882286635       32.40604913877527       36.71900910912662
H           54.16472943885351       32.45611066555623       36.20633621314237
H           55.74188200687942       31.04518487162182       37.49105823435901
H           54.88132405629457       29.55534585927835       39.25594491001952
H           52.47262283823626       29.50266331424567       39.76391187756237
H           48.60078556140109       31.30126133597970       40.65379832802271
H           50.20219952279667       30.05144060103062       39.12334801591779
H           49.88128853993934       31.12640123437485       37.75284759110776
C           47.33375294647012       63.99778906241463       57.38614086071355
C           46.02169952610542       63.95190552360407       57.84062063912157
C           45.63477481692937       64.84384049080691       58.83315814802287
C           46.53348768787450       65.75778039252496       59.35394519657441
C           47.83871405620997       65.79264802355907       58.89378692894400
C           48.23552241004194       64.90926046993060       57.90550608952474
C           45.06636005378462       62.92590375298024       57.28596221513357
C           44.79161824799789       61.85565155849110       58.34717886631832
C           43.74291439842198       63.53163971318057       56.79786415705360
C           43.91170816201779       64.70400053494133       55.81593724880796
C           44.92361356056094       64.36930534610798       54.75174164982939
C           44.71362984283189       63.33968029870908       53.84211739105724
C           45.68161237317774       63.01337923602220       52.90940307497732
C           46.88132586542633       63.70414691067339       52.87914698615891
C           47.09578363430089       64.74013647942257       53.77190997246409
C           46.11990020195037       65.07358638428848       54.69312627654045
C           42.54467049878163       65.07090603408375       55.22099266135727
C           42.60807481536969       66.20854482825796       54.19107986820495
C           43.21826884199444       67.45492441077114       54.77757418134740
C           44.36322762897059       68.01089947010050       54.22160621736082
C           44.91201627799389       69.17055631442101       54.74014767302825
C           44.32819097897447       69.78815765520305       55.83178673908417
C           43.18878841128893       69.24136256145577       56.39720313109065
C           42.63719829086727       68.08812381967336       55.87034310561241
C           41.19754470849299       66.49121152053922       53.62025892325960
C           41.12462083513640       66.27238317007102       52.10094596511659
C           39.70277068769292       66.04370182924588       51.65353392289020
C           38.72503428553840       67.01815146576422       51.81373969201642
C           37.42662957913642       66.79128994583870       51.39425928248846
C           37.08213087983949       65.58405158802540       50.80982255422376
C           38.04438497513677       64.60234177388426       50.65201475380019
C           39.34157324747368       64.83466199490007       51.07294793483700
C           41.75912497923927       67.44601854598751       51.34322549265757
C           41.94461532735303       67.13245058951335       49.85104261150573
C           42.80811694923231       65.90888287492135       49.69161605469932
C           42.29427956390235       64.76308258452369       49.09768810122563
C           43.04820345399961       63.60535789512910       49.01865310429619
C           44.33585659315116       63.57998786002474       49.52658831059842
C           44.86878475138642       64.72552974149248       50.09300280843413
C           44.11132130395703       65.87892380966106       50.17524596553684
C           42.53675611937309       68.34531920939325       49.12077138623732
C           42.82935849186570       68.05905877497091       47.64506027594736
C           41.62888363692744       67.56242698271789       46.87446750362218
C           41.81468665511928       66.60056826981265       45.88836557768260
C           40.75884798661790       66.15435615834255       45.11519374806770
C           39.48820727228067       66.65987444872243       45.32683059435428
C           39.28938094975013       67.62188513729569       46.30204227697495
C           40.35238306657689       68.07632619268439       47.06281521815738
C           43.38704355840290       69.29198611484627       46.90935398420132
C           44.85985721471375       69.60142183013875       47.22831709320737
C           45.02799765505696       70.33851544520158       48.53195844190770
C           45.72087785756956       69.75449458849354       49.58682714669410
C           45.89531423213236       70.42571495373313       50.78390289731543
C           45.37806924605992       71.69865969338221       50.94576112460798
C           44.68502665042737       72.29129280597320       49.90389710990607
C           44.51214025902204       71.61669843539288       48.70890393662864
C           45.48914604408743       70.38842708460463       46.06564989399146
C           46.96820642659297       70.73288385532433       46.30002797276673
C           47.45592231845632       71.71505498529800       45.26514379057611
C           47.41036500253904       71.40343957413795       43.91049156336749
C           47.88985340508661       72.29027952193091       42.96418220948241