3864
 energy: -5104.235274704179 gnorm: 0.000849054456 xtb: 6.6.1 (8d0f1dd)
C           37.80265058903710       39.51128658168673       49.81919321311833
C           37.37857222661648       38.29551116417485       50.33982824017230
C           36.07050070265535       37.89306078274731       50.09554486218446
C           35.21522860066263       38.67977582993559       49.34427475339130
C           35.65372447792994       39.88258638456079       48.81777328933132
C           36.95156349512246       40.29495491905391       49.06118099742498
C           38.33458828566805       37.43670299134210       51.12935778473018
C           37.82092363897654       37.19371558003939       52.54979459020918
C           38.59588331368172       36.10514598760673       50.41043573387197
C           39.18791952385427       36.31037436993002       49.00953096442088
C           40.45850500078188       37.12288412843537       49.06836436283012
C           41.55159605523293       36.69815382222225       49.81454717977931
C           42.71557079598242       37.44380904746087       49.84876752508462
C           42.80415650658735       38.63213698943556       49.14530207117881
C           41.73013369464687       39.05838566760535       48.38556314107530
C           40.57085062260565       38.30501933164819       48.34710450259380
C           39.45835458832134       34.96257892531222       48.32407496998348
C           39.97642828428000       35.16329501941010       46.88985464911669
C           38.85225556846403       35.37216682680764       45.90934023068705
C           37.95337425392361       34.35503661576634       45.61078199457811
C           36.94560434017237       34.54789301062176       44.68271955385005
C           36.81860416182808       35.76609472678496       44.03734696824429
C           37.70042794904614       36.79068036003620       44.33333943212740
C           38.70543179085408       36.59347871490561       45.26317042667150
C           40.88666405847584       34.00578604217479       46.45879528050090
C           41.46815608921427       34.20304890667259       45.04925881762577
C           41.97126773507407       35.60903416473765       44.84332081283793
C           42.88604170606266       36.18187441805686       45.71899237799270
C           43.35792861994035       37.46583149070486       45.51240040515878
C           42.91829854847193       38.20355951638626       44.42687310111501
C           41.99243269535113       37.65007842670246       43.55932281873075
C           41.52420945828098       36.36494775169832       43.76717924757718
C           42.60214724494300       33.19153181889882       44.81470251753383
C           43.20180788149591       33.29935178016690       43.40737987126152
C           42.16536816840628       33.01856034066248       42.34642090309792
C           41.90108409122902       33.95938571735643       41.35880592232137
C           40.95420154378287       33.72134593540989       40.37837290649417
C           40.25433834148628       32.52764158712652       40.36674823082737
C           40.51342765138904       31.57694093083329       41.33955152203003
C           41.46038284791776       31.82082530913538       42.31782666510535
C           44.40017534977530       32.35630896413864       43.20049739078217
C           45.56638323050913       32.53856285901474       44.18870367818089
C           46.67095591361946       31.57702357278465       43.82296716843710
C           46.94753123495435       30.48816606692818       44.64010567116931
C           47.96022400945557       29.59931627163756       44.32497663749751
C           48.71966254869098       29.78948752615532       43.18369497915025
C           48.45170462747124       30.86781036518407       42.35787547247559
C           47.43254481413525       31.74802217057747       42.67242435844945
C           46.07816534024547       33.98225173894545       44.22534478922479
C           47.26862243199399       34.15914298920050       45.17915726134901
C           46.87520084249601       33.79697328087119       46.58912907305660
C           45.86566140502704       34.48607170156618       47.25060995872873
C           45.47955850291616       34.13115282419179       48.53001227379790
C           46.11216540391675       33.08347682330269       49.17575263580179
C           47.14121549015914       32.40839228304759       48.54275604507094
C           47.51617088455705       32.76218072187505       47.25823361546041
C           47.79951279025170       35.60052094824000       45.11230981782403
C           48.69912120710431       35.82862488475865       43.88848155311860
C           50.00375213410718       35.10152882262466       44.10244021683134
C           50.88994719171133       35.49304906558479       45.10066183303319
C           52.05635711219679       34.78594947386170       45.32872407703857
C           52.36067523238195       33.67567344563681       44.55832228845303
C           51.49309109317658       33.28349918347073       43.55448384869991
C           50.32442557518861       33.99069682583355       43.33334591217812
C           48.93571142935722       37.32066925125886       43.60812413256051
C           47.68589452815149       38.04745015226535       43.08669314370563
C           47.19195165387960       37.41796913861599       41.80905782694123
C           47.92490096200145       37.51556903023797       40.63232441064870
C           47.46909302182417       36.93095309432989       39.46497498464500
C           46.27370497040382       36.23186110647060       39.45611860960328
C           45.53101672430788       36.13460781905325       40.61986240524457
C           45.98462943402818       36.72990551218267       41.78398095051702
C           47.95166597773100       39.55036008906721       42.88305741573652
C           47.63810391028161       40.38461022797475       44.13456627617888
C           48.67494690813351       40.18863383937356       45.21247655795912
C           49.97846001070157       40.64215537057293       45.04110412234033
C           50.92463102092632       40.48321957965383       46.03556408085814
C           50.58288859311013       39.86150351738959       47.22442992391204
C           49.29116058455005       39.40147802936983       47.40950479028471
C           48.34723473854852       39.56758396643428       46.41128718001144
C           47.51459614751298       41.87138717193843       43.77229686798017
C           47.17599643665719       42.74536575365746       44.99194159252743
C           47.56902786589710       44.17251585832810       44.69753560877384
C           46.75810201511693       45.06045331225010       44.00419438334989
C           47.20041218795337       46.33971930690281       43.70740439665677
C           48.45722251302840       46.75654057817926       44.10689866337218
C           49.27764680430420       45.88008789994711       44.79896594736846
C           48.83427518706576       44.60195512376198       45.08281073957084
C           45.71357345645730       42.58638455562922       45.41216476726400
C           45.40390780470106       43.38508689673146       46.68321261864912
C           46.30560126831523       42.91495107208043       47.80115688246141
C           47.34520366972943       43.71813721104620       48.25108993008919
C           48.19046833370957       43.29232934098003       49.26179356381269
C           48.01421971175375       42.04662899084850       49.83408775637783
C           46.98583184754254       41.23365710709124       49.39218163230533
C           46.14271439367863       41.66318944003702       48.38422563280301
C           43.93324797493059       43.26177694564608       47.10360071811485
C           42.91196252268496       43.87363418320464       46.11673856696011
C           42.01134510524351       42.79136115291367       45.56707861236943
C           41.00179440770629       42.23435213530959       46.34642863427000
C           40.18304425299070       41.23730534178687       45.84976627984653
C           40.35645136679894       40.76502519875663       44.56016546184285
C           41.36669637988255       41.29735940683972       43.77955469268348
C           42.18176354370251       42.29664948628206       44.28090740006544
C           42.07720666626065       44.97314206854298       46.78849806213679
C           42.90608726815821       46.22447023129990       47.15266817183103
C           42.58953397260257       46.65199614899119       48.56194248566914
C           41.39753686241809       47.28507793304214       48.88724589980598
C           41.12271759274554       47.65658211184256       50.19154287246026
C           42.03265941954540       47.38225002729692       51.19780870455936
C           43.21518304542913       46.73578805286339       50.88783162495416
C           43.48990966095672       46.37710855206127       49.58204539694144
C           42.69320213745210       47.33717609598304       46.11913598657777
C           43.32974625031045       48.68704316653029       46.49982866064325
C           44.66940290690214       48.52440360182568       47.16828324119120
C           45.76024773894873       47.99123633126542       46.49389414681400
C           46.99020011646225       47.88227152844912       47.11551939832887
C           47.14594495533287       48.29665886412749       48.42678797420671
C           46.06303874727135       48.80954863888232       49.11783801767196
C           44.83766481666398       48.92307750588106       48.48814339989956
C           43.44930258389936       49.55029938352779       45.23824060628007
C           44.02623785570668       50.95298722200356       45.48189528874189
C           43.09601356723853       51.79616230337266       46.31224476061139
C           41.92033578148190       52.29531919915789       45.76847375905055
C           41.06175556194146       53.07501847148144       46.52070290013825
C           41.36314849135606       53.36655712200912       47.83922288560642
C           42.53034485337768       52.87156958450096       48.39345866867531
C           43.39134933897704       52.09854570404995       47.63502057903472
C           44.32801514838978       51.60186103448894       44.11670623122157
C           45.81717774888945       51.49998528076797       43.73269597745254
C           45.98604910003999       51.18258962963532       42.27215110372292
C           45.37963977488773       51.96525627266961       41.29659211248534
C           45.53768061979776       51.66452310052404       39.95626961481270
C           46.28833707603983       50.56765022545467       39.56827427735765
C           46.88524473486540       49.77281997548454       40.53194119130682
C           46.73681430014204       50.08425550616916       41.87199861298301
C           46.51192411573997       52.81467243942689       44.10852704564793
C           48.03254836628447       52.82272926115681       43.90879321268231
C           48.71616885511767       51.71117341364717       44.66362500600167
C           49.58827077233521       50.85165556143351       44.00640850421041
C           50.27638141022766       49.86849646823465       44.69638935491900
C           50.09095459060129       49.71733180604446       46.05972197649734
C           49.20877822753013       50.55326646157344       46.72311635333980
C           48.53348018058615       51.54281662337889       46.03172054100798
C           48.57132267478477       54.18801245137118       44.36578333038387
C           50.08878195810938       54.35079334324830       44.20854959889921
H           39.29038048515173       37.96912373600737       51.19972147790447
H           39.28235063586309       35.50915120078121       51.01625185043419
H           37.66143759607490       35.54622270491904       50.32176373635333
H           38.45322261534037       36.85552702057596       48.40404128883769
H           40.20442650323969       34.41452608080929       48.90320082231710
H           38.54263841008853       34.36776583524186       48.31412710761283
H           40.59000368009266       36.06922987868336       46.88960351400328
H           41.70473456668456       33.92981587615002       47.17885319504990
H           40.33838059975693       33.06214122874246       46.48473344813490
H           40.67409880630822       34.01587687604823       44.31681116934774
H           42.22078267596540       32.18227684430131       44.97951912057022
H           43.54640647125084       34.32782110291866       43.26475699973768
H           44.05820068443872       31.32054677414774       43.26848885353568
H           44.77287216359353       32.50689068553744       42.18387282802453
H           45.21884526378815       32.27257349586585       45.19233461782246
H           46.36914434590518       34.28859191361968       43.22011600994265
H           45.26997997087136       34.63753402548380       44.55189240573808
H           48.07285118043281       33.48295412459578       44.86832362543808
H           46.95411179320048       36.28814058337769       45.09113040288346
H           48.38072587579946       35.80873649247145       46.01321742710190
H           48.21497399423355       35.39785403795721       43.00612413550591
H           46.89010274352943       37.94427588462121       43.83075596910716
H           48.98750022028171       39.70786371718198       42.58260022478844
H           47.32191790145154       39.90416286679905       42.06262260477187
H           46.67094308228477       40.04772607329510       44.52347395106422
H           48.46235276187846       42.21059388833846       43.35118715259737
H           46.74892144708826       41.99752533277721       43.00317774746983
H           47.80117459685301       42.39928304562974       45.82324259872786
H           45.05583539104794       42.90137541514463       44.60260884425341
H           45.50789646376145       41.53196973007496       45.60381914865373
H           45.62474452692140       44.44154252026854       46.48771894256112
H           43.69333670610303       42.20650439957576       47.24769626844502
H           43.83353499304015       43.75466068532170       48.07223382891679
H           43.44926287683142       44.33388777534530       45.28236199259553
H           41.25922576020628       45.25171884394287       46.11894637209368
H           41.62556738529884       44.57367943448380       47.69878284472771
H           43.96624218337922       45.95630676106040       47.13364048369297
H           43.10929990339792       46.99464092487340       45.16941662335169
H           41.62456535015932       47.49735707542634       45.95539623477816
H           42.66621716336191       49.19499968548966       47.20947032065076
H           44.09539549505620       49.04146793895380       44.52048013597245
H           42.46259044170653       49.64219173319021       44.77615230282286
H           44.96197694135797       50.84023565306783       46.04036864317572
H           43.71807491623132       51.11904203319385       43.35097521881062
H           44.03648495616800       52.65396394238220       44.12920466003558
H           46.28026936419812       50.68966634290781       44.30699930352775
H           46.08178885056076       53.62289477833631       43.51109177890444
H           46.28315612237854       53.02298637220729       45.15637645316801
H           38.81611930494551       39.83662115851720       50.00360916505331
H           37.30185540828529       41.23023389025624       48.65040537778405
H           34.98660475559745       40.49003099460607       48.22309774562091
H           34.20179377136628       38.35054164791065       49.16080143196160
H           35.71177778390943       36.95250110676721       50.48940921420826
H           41.49954940946506       35.77889114852710       50.38128067268113
H           43.55827105367276       37.08646049346283       50.42203114500170
H           43.70293964295127       39.22845265230817       49.19568896955237
H           41.79152757682531       39.97447264662242       47.81665036846967
H           39.73289569161630       38.63744596616348       47.74933701865829
H           38.04152160056278       33.39644184872338       46.10247702735065
H           36.25878459132527       33.74326494355176       44.45895040449101
H           36.03504965544924       35.91892512962066       43.30879815162982
H           37.59780759026314       37.74626721192771       43.83923637805110
H           39.39551702197033       37.39600660413134       45.48382151835983
H           43.21653188854363       35.62474036813747       46.58261515378591
H           44.06383036032194       37.89233286833002       46.21085359600546
H           43.27912159351400       39.20757222900845       44.26000898491598
H           41.63058555249793       38.22204679940936       42.71734894832622
H           40.79415345685319       35.94004981260020       43.09114045638964
H           43.38466517282951       33.37535023348481       45.55191402410475
H           42.43865156879941       34.89724741824674       41.36288289695354
H           40.76030681317975       34.46956601533557       39.62269049256541
H           39.51286896874402       32.33771820427332       39.60418771826511
H           39.97390171891556       30.64043431094707       41.33489842282985
H           41.64855117276810       31.06566811427847       43.06702949481538
H           46.36644229465946       30.33838864193275       45.53983306746336
H           48.16028586796276       28.75853297995098       44.97423197890686
H           49.51579948635281       29.10120298422240       42.93876226734739
H           49.04223499954531       31.02793831813356       41.46663804615814
H           47.23677746589545       32.58024398301684       42.01176837669480
H           45.37812882852517       35.31362807300203       46.75968170785617
H           44.68720375885946       34.67594425158165       49.02436938215998
H           45.80715801232269       32.78986708326416       50.17001187579717
H           47.65392257938377       31.60386778917007       49.05135221284652
H           48.31424990549391       32.22428018995733       46.76364955988419
H           50.66748584418978       36.35598109804150       45.71249292158890
H           52.73241345182630       35.10053440696936       46.11120284811300
H           53.26753704067672       33.11655203003667       44.74340861674987
H           51.71942053893065       32.42208462576219       42.94211334474007
H           49.65231844268866       33.66662972342900       42.55226330531381
H           49.27890860487630       37.81655569585739       44.51645149120652
H           49.72927474324788       37.40325764024769       42.86076053757620
H           48.85478877403359       38.06501485320515       40.62147702224196
H           48.04988321378658       37.01474021240054       38.55772518951682
H           45.92059883480726       35.76791146281614       38.54548759260283
H           44.59646956710084       35.59045907752709       40.61828295051055
H           45.38846147550634       36.66017462267941       42.68416841042774
H           50.26493300528234       41.13204216334191       44.12318943378651
H           51.93005130346462       40.85127122888014       45.88437225150758
H           51.32405280961296       39.74326875025037       48.00091202980492
H           49.01251106186916       38.91196160724014       48.33184555507018
H           47.34062066455425       39.20760171625668       46.57045208905902
H           45.77517683288335       44.75368997283033       43.67830835151150
H           46.57038655078055       47.01070912476577       43.13989379265271
H           48.79842632409745       47.75712770178549       43.88402489425276
H           50.26306768492419       46.19343934755281       45.11470847594176
H           49.47388978810373       43.90827546413648       45.61070226036008
H           47.49617967794792       44.68902402461091       47.79674829637629
H           48.98450828948435       43.93698510137099       49.60929367992405
H           48.66768558089434       41.70997698773291       50.62559963120002
H           46.84438779928711       40.26116072068552       49.83941428805601
H           45.34605661684224       41.01263051541540       48.05186818415496
H           40.84964909423972       42.57620236310491       47.35884444823827
H           39.40702196932238       40.81992775206795       46.47700493563236
H           39.71171899637539       39.98646854562906       44.17634956483896
H           41.53816381481538       40.93561388168219       42.77499654834430
H           42.96775195223013       42.68198306577685       43.64767426639768
H           40.68305259216188       47.49051539793737       48.10324603097396
H           40.19637052634493       48.15850603629995       50.43295655968177
H           41.81955918578230       47.66707214274411       52.21821324029760
H           43.93545058886066       46.51005966182191       51.65934750971545
H           44.42469495734021       45.88550106215107       49.35167587124020
H           45.65825944628488       47.65617649276023       45.47226003497379
H           47.82664540684365       47.47780890412130       46.56276064988170
H           48.10579501410475       48.21901874530391       48.91462449095292
H           46.17150248982554       49.12396527094306       50.14617560349593
H           43.99337813545274       49.32200053597355       49.03158986798702
H           41.68170350457058       52.06954274616606       44.74119555051022
H           40.14887473458450       53.44394244180391       46.07397424435533
H           40.69242375349515       53.96809988257952       48.43610697940250
H           42.76660238942875       53.08954287484784       49.42517300736733
H           44.30353711155546       51.71818881160355       48.07315273033730
H           44.77492164368419       52.81461162353366       41.58172835558963
H           45.06839404480186       52.29414210937399       39.21583909587087
H           46.40458602829553       50.33166034156606       38.51929593065026
H           47.45719242697944       48.90300540429978       40.24067423111815
H           47.21213739633924       49.46640108342785       42.62141967998769
H           47.85633868458711       52.18905363913893       46.57191170467103
H           49.04454520100956       50.43834284918852       47.78477282108040
H           50.63252984139697       48.95370953847935       46.59878254492161
H           50.96157500583864       49.22300120085468       44.16465251345655
H           49.73661823682608       50.95683898777270       42.94029514373462
H           37.64117616148263       38.14089141628045       53.05504314283388
H           36.89075344571147       36.63023929202448       52.53827587038585
H           38.55570527216025       36.63074045673024       53.12168261426314
H           48.24966268646556       52.70111681560077       42.84084656055327
H           48.06701147470125       54.97399123279214       43.79781809285051
H           48.31403511271517       54.32040500122676       45.41925309976434
C           50.59022275593865       55.49719752484915       45.10645164013733
C           50.47371230030478       54.59926845572559       42.77307070133747
C           50.12768214775576       55.78737214920651       42.13879690562064
C           50.54109199219234       56.04528904968638       40.84547086447490
C           51.31000469631329       55.11689135041443       40.16361358027471
C           51.63568176519505       53.91895609768525       40.77319662600734
C           51.21771959937073       53.66250025261985       42.06670813761605
H           49.53495556139944       56.52701422119425       42.65703232553932
H           50.26729914702067       56.97681539166272       40.36976552524924
H           51.64692914652741       55.31911961211448       39.15785214456911
H           52.23210215169282       53.19137821976636       40.24158584969972
H           51.48520626464069       52.72624617196512       42.53571816204158
C           50.75664856355666       55.03984628910985       46.55900324993919
H           51.54913776194638       55.86502420204121       44.73349152294477
H           49.88469821469758       56.32842378121907       45.05691302975666
C           50.79024038726828       56.17059282019364       47.54706976145551
C           51.87083102204228       56.34685352566546       48.40098643223910
C           51.85888132701843       57.34757609256757       49.35826101090035
C           50.76567336572263       58.18834006028801       49.47165660870742
C           49.68842014957737       58.02971115144012       48.61779374800739
C           49.70239232575110       57.02856312905140       47.66650589681966
H           52.72078797815992       55.68115022648124       48.32904193028546
H           52.70368653069602       57.47381825534318       50.02162611417352
H           50.74914805511759       58.95909066134477       50.22818425727087
H           48.82837420753311       58.67918088874329       48.70771182636764
H           48.84528676344233       56.89209001797021       47.02233981197679
H           50.57361837296565       53.42540852614694       44.53874568800354
H           49.91868733359725       54.38934626967553       46.82597635639401
H           51.66821061483032       54.44683887375380       46.64728447045516
C           35.74945580783718       62.98260394209907       64.32904099897939
C           36.10463723584700       61.64493039452150       64.44835415463673
C           35.25224931770891       60.68570509164490       63.91305894019909
C           34.07849260227611       61.05267917946760       63.27997149711320
C           33.72819064184234       62.38911778098694       63.18191331555808
C           34.57004308373892       63.35391748597581       63.70770595368585
C           37.35942807591469       61.26095159831610       65.19245583474316
C           36.97998937211632       60.64384794582642       66.54321139353550
C           38.23937707507145       60.29153779612056       64.39597638563670
C           38.65871518403582       60.85767601624050       63.03391236283260
C           39.33861032879597       62.19821385523998       63.18012622961762
C           38.89272195602933       63.28817882859184       62.44304787880125
C           39.48160000323743       64.53256741164535       62.58693201165507
C           40.52639948504238       64.70976436123547       63.47785675512240
C           40.99320089629717       63.62663242628022       64.20447400064782
C           40.40986954546667       62.38240369445256       64.04778047205755
C           39.59935054483972       59.90633105404878       62.27455795121919
C           39.10642089999783       58.45483462703130       62.08610011311833
C           40.27994463169131       57.67452676126597       61.53554807102083
C           40.53976424518001       57.51939554875086       60.17927674936352
C           41.67919958915891       56.86382030780909       59.74448169530604
C           42.59140573603229       56.36348261357954       60.65604906171671
C           42.35275488422791       56.52409445440699       62.00995639987443
C           41.20694336263181       57.16637495958052       62.44069257374770
C           37.82070178107569       58.42126780178709       61.25755486122806
C           37.01950154060646       57.10762646708727       61.32459328896415
C           35.58917205205699       57.43151446380175       60.96617648692434
C           35.24556957212081       57.83387535613336       59.68005066548606
C           33.94477906423194       58.18226838894665       59.36901923041847
C           32.95888984541020       58.13106835043504       60.33975929690228
C           33.28599003321650       57.72641039601645       61.62206164160932
C           34.59151304925534       57.38471272077417       61.93040588136307
C           37.59713004034428       56.02103738877914       60.41237788457825
C           36.70819417638419       54.77068781580499       60.34434016469205
C           36.65881095820790       54.05394508940756       61.66701574659409
C           35.46092627740582       53.94894006231995       62.36241806447677
C           35.40162370591360       53.29523817148624       63.58080867789868
C           36.54361562546497       52.72979269815755       64.12179152124946
C           37.74258681937700       52.82315630084302       63.43561388939308
C           37.79825297141851       53.48233369452799       62.22125089864981
C           37.20789867170661       53.85442558816746       59.22214115794323
C           36.37420371826406       52.57827683330857       59.04585725038004
C           34.89414291751208       52.84800003705078       58.99576444076295
C           34.02569284766694       52.12829185777121       59.80610107409360
C           32.65963533884882       52.34116821434300       59.74970796116075
C           32.13925668737777       53.28344361017798       58.87961838481882
C           32.99501857375390       54.00747613696141       58.06712742243760
C           34.35901039889061       53.78898255609203       58.12340028004585
C           36.81602529338147       51.87300363148853       57.75601339139000
C           36.18282423451495       50.49706694308358       57.56662177829993
C           36.50480651239073       49.52076488895668       58.67181354084031
C           37.74608040190328       49.46489174442244       59.29223734695538
C           38.01612750343080       48.50011583668494       60.24687631803608
C           37.05492882355710       47.56533652247376       60.58909895982025
C           35.81422450819065       47.60610672941905       59.97526311641161
C           35.54616776097964       48.57893622988039       59.03030223141960
C           36.64292986843396       49.85847655037731       56.24346053828233
C           35.91851092238146       50.36294073660860       54.98272432060341
C           34.42954126597330       50.21999001593658       55.15247798877799
C           33.61291892522963       51.34115962248603       55.21725691858869
C           32.24633939441876       51.21593185804271       55.39559263394786