3795
 energy: -5103.667184258489 gnorm: 0.000880838977 xtb: 6.6.1 (8d0f1dd)
C          132.99385600765243      114.27935571460621      103.66506493194152
C          131.80885909519830      113.94167572391441      104.53001337500605
C          133.31620641578584      115.78087627882429      103.71234807442346
C          132.18221467904411      116.64952220862553      103.16564336544782
H          133.55263765817512      116.07278976213441      104.73623151051646
H          134.21227576005418      115.94814504684419      103.11318070101608
C          132.68968315188664      118.00123457719904      102.64853202949809
H          131.69957377533521      116.13132227644421      102.33418443574762
H          131.42389946382229      116.81398446323496      103.93368901490442
C          133.38437330399330      118.80225229015235      103.73840565363194
H          133.41025894772807      117.82995645166473      101.84780167782996
H          131.84810917612870      118.57224394882087      102.25745124531034
N          132.56569630228543      119.60102905522322      104.43308287568813
O          132.11624409285977      113.77185929204968      105.79342273351864
O          130.67242557497735      113.82934057267238      104.10489981821313
H          131.31919768764169      113.51641492907638      106.34872054757705
H          132.76855228363289      113.98739345899985      102.63920606155673
H          133.85448002485151      113.72064717276210      104.03120083312949
C          133.00275987981848      120.48063465537822      105.49378023614001
H          131.58004997100520      119.62794290289931      104.19015817926159
C          132.70715878370279      121.94541179089073      105.16497692156211
H          132.49601020630524      120.20259265867543      106.42437441169642
H          134.07649939842494      120.32367720637613      105.61977761569999
C          133.03664234565713      122.85532756745937      106.34725319262425
H          133.29660790355692      122.24028056879094      104.29475845220500
H          131.65092127592769      122.03713614653290      104.90580771062106
C          132.64095233129208      124.31334853426000      106.10851555420356
H          132.52407112733445      122.48521175817616      107.23807280135772
H          134.10966145807282      122.80306671649490      106.54152821661133
C          133.18734500267303      125.21978864557430      107.21100783789623
H          133.03694137173824      124.64278318675814      105.14561329090523
H          131.55316417577689      124.40283374794211      106.07217338729659
C          132.67964362582288      126.65880172265864      107.11606617709806
H          132.90688219752712      124.82047918276365      108.18770940385286
H          134.27642620306270      125.22786803534791      107.15379652013826
N          131.35818823336430      126.79854742152843      107.69078584719442
H          133.36738994589942      127.31983694349505      107.65601892752420
H          132.62717817879604      126.98946322887271      106.07631823588309
C          130.36412470427646      127.48590335925785      107.12568846645098
H          131.24716844800068      126.42863136554178      108.62905101202541
O          134.58953754169099      118.71406385374262      103.95434971035850
C          129.09185309723355      127.56776953884267      107.95531986379436
C          128.58501490791454      129.01297078735377      108.01395762001299
H          128.33601618385535      126.94325742622047      107.47503156204243
H          129.29117425899668      127.18249070289109      108.95520997697646
C          127.50282216428684      129.27056562139853      109.06022480590458
H          129.43049225541381      129.66894990688834      108.23537518265914
H          128.20041396674100      129.28621602797975      107.03148377659498
C          126.22859926032903      128.44103836961204      108.87622400374869
H          127.90428846595285      129.05999499381878      110.05234990438780
H          127.23539353328516      130.32820528979286      109.02192913891170
C          125.69064855011997      128.55047581210954      107.46536902579491
H          126.42632244906557      127.38921718938448      109.07898282802545
H          125.47339044436761      128.80628172000638      109.57237334758685
N          125.10051817934726      129.70533501655189      107.17643238851082
C          124.56270869134819      130.01404726821627      105.87246008192173
H          125.02726160044563      130.41872286124533      107.89915424080047
O          130.46854743489024      128.02387810697294      106.02300789820796
C          123.20562163009882      130.70765341208195      105.94725035059659
H          125.26792612250986      130.65291124014868      105.33070191144843
H          124.46838194588318      129.07285714269491      105.32221458204101
C          123.27346568098369      132.16764078988578      106.39820752331894
H          122.75758645990520      130.65811781623242      104.95295112100203
H          122.55964598833478      130.14912875599967      106.62810964467333
C          124.15034037796896      133.03672542056091      105.48992673411404
H          122.25415119801102      132.56133023391121      106.40954029332450
H          123.65262521630657      132.22238390377757      107.41890003384384
C          123.64218728555581      134.47569582491755      105.36962085922234
H          125.16585696199451      133.05688130255001      105.88747070930259
H          124.18253678384718      132.59650127497969      104.49106652076020
C          122.50260279502787      134.61552595403944      104.36108969583699
N          122.94401617491903      134.23924461820124      103.03468513677581
H          121.66416427935172      133.96229431888989      104.61338183867687
H          122.13931353624186      135.64981716034694      104.35432210571778
C          122.21207942618456      133.51138905725830      102.17675087310485
H          123.88251377952005      134.50628149856357      102.78102617224519
O          125.79778575131373      127.61999972483261      106.66041607867342
C          122.94742092974720      133.10226649063989      100.91140140447781
C          124.14835417155084      132.19251548794512      101.19005652896469
H          122.23841394043504      132.58402795125022      100.26459962696848
H          123.28634643923301      134.00361372201019      100.39745013254944
C          123.74717817689356      130.82893405010279      101.75189903200670
H          124.68899586731469      132.04353146451075      100.25309667747349
H          124.83146697387126      132.67810966495645      101.89043861354921
C          124.98517501315938      130.01009831993954      102.10879796430407
H          123.12260805924409      130.95461066172390      102.63807439910663
H          123.14998641848348      130.28486491907029      101.01742410455871
C          124.67867263099316      128.58665019866748      102.55255836027642
H          125.66414958046673      129.96405371931635      101.25648025106651
H          125.52154306823275      130.49587292625890      102.92737960873204
N          125.75969962955206      127.79303926360051      102.52987952325695
C          125.76942377562447      126.40707298876146      102.94034111520311
H          126.64040569647514      128.18139600851927      102.19998105300958
H          123.29578746852648      134.82635547861960      106.34216720952854
H          124.46317897431965      135.12465388775902      105.05763049901240
O          121.04444447424021      133.21339422204551      102.38925046144995
O          123.56719006386648      128.20752282371953      102.90309126937261
C          126.91245926847995      126.09642913790685      103.90903570344383
H          124.80443043227834      126.19990941454731      103.41007116301290
H          125.86265412381971      125.76708365635209      102.05366084163627
C          126.99448438609727      124.59370988274760      104.16941350183991
H          127.84868582368294      126.45173014739254      103.47537251387023
H          126.74917956273549      126.63283567557454      104.84351700097548
C          128.13587200594372      124.17699908231144      105.09737936687135
H          126.05064986521505      124.26479767785854      104.61000294338893
H          127.10922078898285      124.07243688822514      103.21487837472078
C          128.13345942816423      122.65668461919998      105.27552520156735
H          129.09136815693864      124.49838803145448      104.67937141674426
H          128.01884766766182      124.66725046392938      106.06288945614783
C          129.07435637648865      122.16032458560751      106.37339064013520
H          127.11627128755576      122.31957687718673      105.48690325175998
H          128.43108110910211      122.19410097114849      104.33107372357509
N          129.29547941648983      120.73616895021100      106.21255985757831
H          130.03077432812441      122.69032179129086      106.31101205540971
H          128.66313308899640      122.33740481453751      107.37055111253207
C          129.71159864649718      119.88655383963072      107.14511613959145
H          129.28368125807887      120.39242070541543      105.25503456518243
C          129.92576521823290      118.47135893837017      106.64564601938989
C          128.95634312329642      117.47126398053715      107.28396421049509
H          129.81081988942984      118.44011628650176      105.56376892516070
H          130.94595284588024      118.17610370604250      106.89651444863956
C          129.31498050455590      116.06057659280037      106.82492831007488
H          129.01252235434166      117.54401754682755      108.37203965368309
H          127.93487574383913      117.70966723087743      106.97937259986715
C          128.37039030910859      114.97544340845282      107.35677502036626
H          129.29524603374958      116.03727315363822      105.73433081476476
H          130.33328446852258      115.83112087431762      107.14771922897997
C          128.85674299621971      113.63493550096283      106.85211304393053
H          128.39454152948977      114.97784615556898      108.44882181850645
H          127.35150133301492      115.15555221902775      107.01727959617244
N          128.07070414792940      112.97345209232255      106.02412484783088
C          128.48882416480384      111.75027197214136      105.36596150323105
H          127.15896768251343      113.34024886169635      105.76760881827620
O          129.91926667170230      120.20827399276412      108.32354562602573
C          127.30364399435270      110.85218557031536      105.04803074312689
H          129.01083013335833      112.01430069423388      104.43946945138858
H          129.19939654556296      111.24594084248977      106.02690077437586
C          126.59808187280410      110.35992606261777      106.31083104927829
H          126.61531802562715      111.41466403588670      104.41687850291369
H          127.67561367201893      109.99956238544929      104.47858364439929
C          125.71310388616983      109.13762240815308      106.06284059007780
H          127.35352996175864      110.08048063401132      107.04675180971110
H          126.01201219138025      111.17496247286552      106.73524009987835
C          124.63076070797004      109.33957708289334      105.00276049539147
H          126.34586725590448      108.30684932686071      105.74656114855631
H          125.24199136297236      108.85111380435023      107.00416360676948
C          123.66025621693623      110.45491545551653      105.37530424805438
H          125.09478944335552      109.57045339077830      104.04379629544263
H          124.07381628218337      108.40681140556097      104.89511830490669
N          122.56286375482199      110.52003989088330      104.42949128052359
H          123.22266158115787      110.26738202451499      106.35637769898855
H          124.17655485108162      111.41987856419567      105.39852944315021
O          129.97011281298975      113.19528393800539      107.19800033266969
C          121.28887340850109      110.72816944203804      104.77320561853224
H          122.81222910466138      110.45116220606707      103.45383390604908
C          120.33054704778213      110.81880578466176      103.60045122334974
C          118.86556434499938      110.65090410472700      104.00206026200611
H          120.46661207060657      111.80151047673843      103.13940340173539
H          120.59909552036196      110.06357637415184      102.85960172772829
C          117.95378134980848      110.83397886266791      102.78973832183644
H          118.72103439754034      109.65537805999790      104.42746268042455
H          118.60976012249830      111.37435479091548      104.77813976622568
C          116.52789845570882      110.33117970165318      103.02910974628348
H          117.91755452171282      111.88940151050761      102.51442158651381
H          118.37013288978798      110.28289850581874      101.94425727911687
C          115.66769302745907      111.31252274070658      103.79947981955017
H          116.04155014804419      110.17740459359169      102.06269952685452
H          116.55185764340499      109.38292937388242      103.56229070925245
N          115.24502183053036      110.87634833727088      104.99203981352737
O          120.92865783996687      110.84390896171107      105.94358903157389
C          114.33005440665177      111.62760504436449      105.82788907635597
H          115.49343832993485      109.94747664474558      105.30276636014570
C          114.42123885847950      111.18132611309967      107.28167635659119
H          114.58174452318779      112.68835312295133      105.72801321482893
H          113.30137138522431      111.49632852454745      105.46697770324501
C          113.80084948900219      109.79969661564154      107.47895717758576
H          115.46934341253578      111.17737720464842      107.58254726268595
H          113.89296317040112      111.90688435285654      107.90341758634098
C          113.88074727797765      109.29041450049557      108.91560547723540
H          112.75100581212340      109.85133839541136      107.18214154731832
H          114.30200700785461      109.07750211791885      106.83151358777515
C          115.31166329696748      109.01632826670756      109.37000563925557
H          113.41060508963464      110.00857219197344      109.58721282106090
H          113.31188113841594      108.36058384992693      108.97486457608063
C          115.35379801591925      108.28197718108753      110.71110157963463
H          115.80270962351176      108.40146955617411      108.61213231815989
H          115.87135077685203      109.94689161177723      109.45745439096559
N          116.56353346697345      107.50246987825139      110.84500136706474
H          115.28594658390851      108.98845593704021      111.54434320972862
H          114.51732910339132      107.58374301570706      110.78023545954566
C          116.55673279614646      106.18805807763573      111.08257991102087
H          117.43442095471859      107.97848744205126      110.63039167427154
O          115.36784848139621      112.41826079930352      103.35504238676272
C          117.92831618077969      105.54151376206221      111.07300367267500
C          117.85511667985105      104.07457635354781      111.48771309878072
H          118.31787602427991      105.63020179651835      110.05768373034674
H          118.58775247751743      106.10244083465459      111.73811680384789
C          119.22030159375109      103.40221375275229      111.60130984110383
H          117.34690271132149      104.01509576508320      112.45259196295054
H          117.24121110484467      103.54043107236839      110.76026403691058
C          119.96247466971329      103.31834005424140      110.26521671518651
H          119.84735090007499      103.95107545709602      112.30759490052637
H          119.08780285503876      102.38893473846987      111.98663280849527
C          119.24792044067611      102.45677067993597      109.24300418738108
H          120.08659959081179      104.31574685716762      109.84276849008616
H          120.94506265549428      102.88543250209094      110.44988964402177
N          119.38803117178497      101.14565243004024      109.42016952784569
C          118.85192198842998      100.16449889997888      108.49675835702604
H          119.90900322858684      100.78577266597603      110.21810867429524
O          115.52440953997410      105.55378020307396      111.29864209662507
C          118.97271966583949       98.75585640660971      109.06889210664086
H          117.80809446265228      100.41735728741482      108.28196353606521
H          119.41099497120747      100.22950882974615      107.55283916547091
C          118.92279268720422       97.67999561160741      107.98568822875198
H          119.92269366502444       98.68511020178212      109.60124485947219
H          118.17159563161137       98.57836243602796      109.78709263697573
C          117.53410479853491       97.52487684855393      107.36969325274055
H          119.64721375691100       97.91941030949455      107.20272260893621
H          119.21654267815020       96.72649181286822      108.42802824243479
C          117.53611931154443       96.48769230340889      106.24828066704298
H          116.83003363343526       97.23315604496979      108.15096178487984
H          117.20024190984429       98.48630991433046      106.97714065948409
C          116.14581543651092       96.24051557089112      105.66694463431396
H          118.20823171967199       96.81630147573706      105.45179352530199
H          117.91457550637772       95.54003828527978      106.63316340028089
N          115.58184498699976       97.44185665537266      105.08741597545267
H          116.19929900377900       95.46181893140306      104.89878652182972
H          115.45685848935159       95.91712321214122      106.44983005705687
C          114.38592419228860       97.93192736040169      105.42889237570763
H          116.16548329034997       97.95914205112349      104.44831926101806
O          118.61954124154013      102.94034729520978      108.29520470441174
C          114.01338934170668       99.25834426184623      104.79610314941841
C          114.70056364730135      100.45311849885691      105.47653261828602
H          114.25665675503346       99.24971266810573      103.73285379373009
H          112.93427993046915       99.37640344424933      104.90682715557331
C          116.11770027598693      100.72397343371053      104.97758491003245
H          114.09322771973983      101.33897285868568      105.28538084756499
H          114.70274894888244      100.30572397066685      106.55846862932164
C          116.62665974819836      102.09700834579446      105.43209564710787
H          116.80842093930431       99.95942235024657      105.33817129591294
H          116.13087910797910      100.71252764637312      103.88455275344957
C          117.94898146715317      102.38429186462135      104.73607086299154
H          115.89800258824364      102.85269219063650      105.12945043904611
H          116.74344959843451      102.13331048281788      106.51468377981281
N          119.01269283568323      102.44448209310329      105.54035252301841
O          113.62619899223908       97.33909908342891      106.19039160426424
C          120.36656269998963      102.59623520236576      105.04411615066068
H          118.88030580537598      102.45360640875916      106.55159863647776
C          121.25246671286976      103.35149420468058      106.02840973091389
H          120.79092571160294      101.60076477798165      104.86254722032757
H          120.31214845910243      103.11544526409352      104.08255778564330
C          120.82736825534776      104.80694216185043      106.20201016547036
H          121.21839217203802      102.84672976745748      106.99617214571821
H          122.28068600626167      103.31025366006628      105.66641939110271
C          121.76699577591447      105.56046958974505      107.14318209962099
H          120.82812250827971      105.29671725406460      105.22605812362465
H          119.80822340196762      104.82702273814265      106.59070324213000
C          121.45753574412045      107.05593209501708      107.22166987136485
H          121.70691414921116      105.12360937496931      108.14171751966320
H          122.79307570687099      105.43173395809328      106.79343326587851
C          120.15766644085419      107.34395171919294      107.96608443835787
H          122.27787840141671      107.56850571546308      107.72656767711102
H          121.38160548186281      107.45972069108154      106.20975413963386
N          119.79251049874642      108.74006258406159      107.85475588879807
H          119.34548407849798      106.73031116508572      107.55685958579109
H          120.25508290740882      107.11404307423470      109.03066145725083
C          119.10228194303201      109.40869163874076      108.78416455436353
H          120.02903532347128      109.21689130934931      106.99516458110391
O          118.01549865952308      102.51355983838015      103.51497245671725
C          118.70159337759058      110.80648514414500      108.35854210612857
C          118.83338752628491      111.81292930815411      109.50059495686435
H          119.31666824594173      111.10175217451801      107.51326687139149
H          117.66430488543692      110.76101939155116      108.01798062513556
C          118.82288828539099      113.26311657753249      109.02246649205871
H          118.02497345898149      111.66061480707630      110.21782182977971
H          119.77210243915349      111.62974357741210      110.02714396703706
C          120.02753173414884      113.61007403140759      108.13869231994455
H          117.90691632749052      113.47244305608447      108.46660331489151
H          118.83177667278176      113.92321591895572      109.89294596458798
C          121.33876977152771      113.31727503275773      108.84349857544358
H          119.98697698638854      113.07155900933553      107.19334779962007
H          119.99360939819161      114.67974001803465      107.92496693538089
N          122.05052438850954      112.30429114666686      108.33274648637411
C          123.35521731553132      111.93543298716702      108.83912712817546
H          121.69055851342478      111.78102914360332      107.54227295749990
O          118.82393359315563      108.93119855546765      109.88139971848622
C          123.42397790774010      110.48181885626225      109.30298330047628
H          124.10185408839862      112.11497739581252      108.05707404437074
H          123.56439545793900      112.60366063085037      109.67786677348714
C          122.47475243255394      110.17715566825386      110.45841683918322
H          123.18296908261959      109.82404496087878      108.46627189217446
H          124.44997487682291      110.27834369130899      109.61295232476590
C          122.66212436276210      108.75288463943888      110.97495549304138
H          122.64058091530137      110.88815283443613      111.27052581299669
H          121.44468690903723      110.29954362649251      110.11956895546288
C          121.60643164805961      108.38165864497491      112.01248775954464
H          122.58240473916069      108.05868481168177      110.13585092920798
H          123.65786950158763      108.65554178214357      111.40949146627692
C          121.68474707610095      106.92079686513011      112.42561219937275
H          121.71287527324270      109.00381668916579      112.90261198061948
H          120.61326581892189      108.56153772992684      111.59596794253761
N          122.93464215988831      106.61600552685363      113.10037652630466
H          120.85821659844223      106.68900256794892      113.10752962216104
H          121.58751527303140      106.26523945576211      111.55152008687821
C          123.12567516672624      105.42147489589111      113.68255035686293
H          123.56124359458884      107.38473895728838      113.30754766314656
O          121.72724121319854      113.97081229764721      109.80821998623661
C          124.36901799002669      105.35103301994184      114.55359136851223
C          125.15751482331903      104.04114562629343      114.46424910969439
H          125.01874374478365      106.18347888673031      114.28331602555264
H          124.03765467714854      105.50286964925311      115.58375008713850
C          124.38658824246380      102.80619883599475      114.92524712350827
H          125.46362380220964      103.88751698180533      113.42683595767475
H          126.06576872212041      104.14779290923215      115.06258654065859
C          124.05735728392281      102.77844496003861      116.41341371499225
H          123.45155944809967      102.74984996626323      114.37256131142472
H          124.97490042946310      101.91696580061344      114.68934406020098
C          123.37354357498089      101.47075730190838      116.79106019825193
H          124.97156213475202      102.86509442697388      117.00689157033543
H          123.38910626306871      103.59989615378542      116.67353439143123
N          122.79868574719792      101.48884888575455      117.99628608893555
O          122.34060761193983      104.49316602632379      113.51377007270371
C          122.09057002492489      100.36801905279096      118.57958319847232
H          122.70943334131067      102.35877172205164      118.51336885859456
C          122.05373218618290      100.51788303123149      120.09709185951220
H          121.06264350204651      100.34928556071770      118.19471476961910
H          122.59156659688736       99.44603682093884      118.27242739559300
C          123.43270810887533      100.35433058436045      120.74746610277806
H          121.67724169428456      101.52023625711936      120.30418947622795
H          121.34975218271288       99.79369469860916      120.50650580637978
C          123.63976754833480      101.30276200109044      121.92958637668461
H          123.57679036663507       99.32206501073719      121.07083740242008
H          124.19996724378488      100.57590580838396      120.00305850686492
C          122.70230076105112      101.04395198299009      123.10839628744273
H          124.67210682912746      101.22217551603630      122.27687264973113
H          123.48694916727882      102.32585984118424      121.57764861399650
C          122.85768070805479      102.13571245075042      124.17378309286697
H          121.66635597637524      101.04237112509981      122.76195653236199
H          122.90688479279758      100.06187126867496      123.54112630796735
N          121.83890037625869      102.15088374629856      125.22045674728255
H          123.83322513929828      102.04235237783560      124.65739093768744
H          122.82279798860965      103.10986305340381      123.67766258160103
H          120.91243680033323      102.04718394573499      124.80934086157745
H          121.96577009794483      101.36154661398403      125.84462856693263
O          123.37229927690287      100.48177938786181      116.06072386163032
C          115.46755129587238      120.96546025108998      131.56259456276467
C          114.97003216133133      121.34708475485552      130.18738641119620
C          116.50482152329143      121.95991240230674      132.08281701939219
C          117.80206508045596      121.91395845525999      131.27684518821798
H          116.08034139028079      122.96389113072532      132.01968306196054
H          116.71811425733696      121.73960454117889      133.12919533528824
C          118.80802201514736      122.95277096632677      131.78655479394538
H          118.24396667680261      120.91783324942297      131.35806104164155
H          117.57627306817480      122.10388288907663      130.22410237157254
C          120.09788737683888      122.89640217499797      130.99142021204901
H          118.36933855390870      123.94870920951740      131.71881017950525
H          119.04485353083275      122.73931053952147      132.82977004783356
N          120.08970295149325      123.60210077867437      129.85356278383901
O          114.79439794313083      120.29512083590667      129.40815418510294
O          114.73064793562092      122.48305617451035      129.84288306866625
H          114.43803012544394      120.51895644895355      128.50085657920420
H          115.84350319480738      119.94259588440605      131.53675453143148
H          114.59557465424844      120.97776385704142      132.22059016464627
C          121.21828301068801      123.71026316969278      128.95186815150635
H          119.25915104871440      124.11402512611060      129.59761005148263
C          121.69484839847122      125.15707261802861      128.81869555327410
H          122.01480600924678      123.08575329973570      129.36239684654140
H          120.92231269934517      123.32251090638997      127.97363586227983
C          123.06541028074452      125.26134675609977      128.14557564404257
H          120.95212744365946      125.72963985957517      128.26155435489491
H          121.76904990300599      125.59180139083796      129.81792946955611
C          123.16752971452851      124.58446300782653      126.77827790499714
H          123.31417177773180      126.31898001972725      128.04071120414625
H          123.80995486553911      124.80855530255904      128.80335463603791
C          122.20204291713024      125.16062214538863      125.74384609540365
H          124.18948696414165      124.71124703855297      126.41463396330577
H          122.99422570386132      123.51325578539370      126.88676704164580
C          122.34558801320615      124.47159708488520      124.39044545306466
H          121.17295963361721      125.04290174757455      126.08514547836863
H          122.39532840574378      126.22601391979104      125.61672612494826
N          121.94297365411003      123.08372927497162      124.49019038315045
H          121.73079940834977      124.98657634628927      123.64371230281193
H          123.38640585137168      124.49768483265331      124.05885435204468