3795
 energy: -5103.055177977034 gnorm: 0.000952487164 xtb: 6.6.1 (8d0f1dd)
C          132.98314506320867      114.29922237342807      103.82821899683134
C          131.76735617700618      113.93122915578343      104.63771299155906
C          133.24016964976468      115.81352535913724      103.86772187945078
C          132.09414377581155      116.62868075997430      103.26495806041682
H          133.42165402593935      116.12579859315416      104.89681290564737
H          134.15323827943342      116.01266058995212      103.30490567232653
C          132.58181823983486      117.97742701431132      102.72269996776305
H          131.64644627798822      116.07050512530616      102.43961443086202
H          131.31337013098184      116.79544650584226      104.00877892491496
C          133.28303347570474      118.79063127370317      103.80154131910564
H          133.29811441532974      117.80304838661748      101.91837759319077
H          131.73281932736876      118.53663439725949      102.32930911362438
N          132.45141505422944      119.56491043112270      104.52128411716211
O          132.03692724858522      113.69666298234303      105.90248604595051
O          130.64627010889683      113.86001405657642      104.17660334087773
H          131.21543499609675      113.45014231211688      106.41865959471184
H          132.82023928678876      113.98514247184859      102.79645614493603
H          133.84612157833365      113.77761045075152      104.24164957214387
C          132.90515857631974      120.44383923174478      105.57175542472257
H          131.46825643602637      119.60293429052136      104.27529834458606
C          132.64387921664269      121.91361857480389      105.23235598757908
H          132.39399431643434      120.18949501589564      106.50670571239743
H          133.97596788859184      120.26573387457209      105.69578955416583
C          132.98189090088138      122.82334134622889      106.41167257865932
H          133.24569073680081      122.19270430091795      104.36476726980847
H          131.59220939062317      122.02839826933251      104.96204750049382
C          132.61131439666428      124.28653713111594      106.16572843286565
H          132.45872016787311      122.46704391570076      107.30219600820580
H          134.05331258391362      122.75537034023650      106.61168380083028
C          133.18013328052808      125.19136415137611      107.25771895656931
H          133.00520246772530      124.60387706437551      105.19702107096835
H          131.52489796369522      124.39625475743293      106.13660612217949
C          132.68934411851072      126.63564857144115      107.15862793872060
H          132.90058913212397      124.80084980780956      108.23849292674264
H          134.26949935918051      125.18386263034748      107.19315584790075
N          131.36240199078526      126.78172244433378      107.71373334727272
H          133.37895124069448      127.29018531596378      107.70704165916986
H          132.65319448347947      126.96992390492014      106.11877859172424
C          130.39157605036601      127.50503497332298      107.14641777041827
H          131.23048046257077      126.40490689889772      108.64609390022675
O          134.48270178442814      118.72609151845123      104.00040816730235
C          129.10778531689795      127.58177335475357      107.95598367557216
C          128.61250958524155      129.02953548385679      108.04019788398041
H          128.35176085557913      126.97708612018862      107.45143112952624
H          129.28695370379873      127.17326724802878      108.95100705053949
C          127.54491537694724      129.27049084207709      109.10441875340081
H          129.46389241313025      129.68006698788730      108.25935261174926
H          128.21290398646957      129.31805321192479      107.06948256359486
C          126.29744737678367      128.39706544234147      108.95183816481185
H          127.97347248989561      129.08496896748306      110.09165069741512
H          127.24296875079486      130.31808179783565      109.06342742511860
C          125.73549982253873      128.47428827969952      107.54698269633317
H          126.53379204126909      127.35500412463898      109.16509128577043
H          125.54289263616512      128.74695674784979      109.65655284230834
N          125.12686927402598      129.61702981560137      107.25301628148523
C          124.55197442074166      129.90044808726523      105.95850675878893
H          125.05816194088514      130.33093052660442      107.97505501518721
O          130.52754052922225      128.06793208014909      106.06417011869181
C          123.19064892582085      130.58232425115239      106.06298869806220
H          125.23532514369705      130.53950238670399      105.39019332919118
H          124.45228420502913      128.95129221595536      105.42484870101291
C          123.25251891740723      132.03543087710165      106.53729928260871
H          122.72997536741997      130.54169080948475      105.07456915642068
H          122.55894169860342      130.01036737003440      106.74598764955599
C          124.11307415516676      132.92556819480029      105.63357984463663
H          122.23193349047982      132.42247035466039      106.56813781368389
H          123.64390250529955      132.07756306707100      107.55371487133408
C          123.58769203420958      134.36032536940888      105.53981250649147
H          125.13200800893549      132.95173667045165      106.02150203788018
H          124.14153871178358      132.50260884725685      104.62698339129631
C          122.43048850149627      134.50028275471786      104.55230073855452
N          122.84886339777454      134.13601641885538      103.21579285626463
H          121.60132176880907      133.83945235187787      104.81335620857354
H          122.05893578645887      135.53276935117887      104.56182395520680
C          122.06842274278753      133.46848183619701      102.34487643958477
H          123.78589302381583      134.39158934287556      102.94843185860617
O          125.84595560964715      127.53424702268826      106.75830613678822
C          122.76147197087752      133.07499824291534      101.04978869875876
C          123.98157846418019      132.17416627724617      101.26360779321627
H          122.03066410067454      132.55804911479140      100.42684503947153
H          123.06854522309106      133.98642298460581      100.53065935697258
C          123.62188613182452      130.81342198497438      101.85933595898506
H          124.46760966264215      132.02324236580566      100.29694015014120
H          124.70449886569165      132.67155792221868      101.91642428042209
C          124.88420260125649      130.01562514151288      102.17798349489425
H          123.03299463114642      130.94484154153520      102.76800077638237
H          123.00496176785076      130.25343767508474      101.15503876498023
C          124.60481467448210      128.59535441551230      102.65295665954893
H          125.53005093692852      129.96809863298475      101.30065302938436
H          125.44603617450173      130.51937051034045      102.96878205520449
N          125.68352385755732      127.79940789179354      102.57013205672067
C          125.70159231098938      126.41694323541606      102.99023138050987
H          126.55395320239256      128.18319436876075      102.21066634452562
H          123.25309525557891      134.69488605137613      106.52205080943341
H          124.39696910706081      135.02342261157625      105.22177878945324
O          120.90093145108401      133.21100850473505      102.57381950847636
O          123.52049376930765      128.22275736268978      103.07197970737957
C          126.85786865373612      126.11057814552369      103.94577654978913
H          124.74415105251938      126.21543921084115      103.47584034844027
H          125.78408452742978      125.77087440729663      102.10772079658727
C          126.94361523150319      124.60765382253668      104.20199428188650
H          127.78940735476546      126.46611374584366      103.50168342038701
H          126.70645686027243      126.64322554797042      104.88438951005169
C          128.08405614221951      124.18621176951774      105.12888154839413
H          126.00197898908401      124.27707187859218      104.64439887364347
H          127.05967811411053      124.08826112211581      103.24670711288476
C          128.06818257955564      122.66644345185189      105.30847962915897
H          129.04320184979261      124.49995059327340      104.71070675245741
H          127.97403129439593      124.68038233380992      106.09368278896466
C          129.00124772791597      122.15563840290815      106.40597235957550
H          127.04798673608633      122.34047007279013      105.51999843157688
H          128.36266819042362      122.20257657640406      104.36383628671142
N          129.18481532200610      120.72696894206315      106.24993370255986
H          129.96932832741223      122.66544990652534      106.33925515741711
H          128.59863757749579      122.34938772070056      107.40405432323917
C          129.62216825568322      119.88164007622764      107.17902870835664
H          129.16911070152503      120.38210218303706      105.29135469819779
C          129.81414088805502      118.46291741378325      106.68027816814164
C          128.87834742136573      117.46111749508056      107.36491586904091
H          129.65094924668873      118.42550602503840      105.60464491178412
H          130.84640656979428      118.17282735003253      106.88497406749241
C          129.20080259816453      116.05537746822465      106.86446326657067
H          129.00068515907932      117.51910828863355      108.44855970789942
H          127.84318503306406      117.70791981292510      107.12328008448239
C          128.29368017766308      114.96294981868043      107.44861770520959
H          129.10457703776575      116.04470172665431      105.77831135599530
H          130.23926491648572      115.82066075400323      107.11155305582062
C          128.75441670401938      113.63674699219663      106.88875500977485
H          128.39292368821145      114.95008761360373      108.53656786792247
H          127.25503763171164      115.14474251991975      107.17840451408316
N          127.99365662971883      113.06644956235134      105.97489710695567
C          128.40435723140286      111.88070026130123      105.25149281148636
H          127.08216030429499      113.45243853451444      105.73296398469448
O          129.85932842493256      120.21195548916809      108.34679732579094
C          127.22761909814436      110.95541490364279      104.98178007577773
H          128.84947016512868      112.18894307416929      104.30027487796551
H          129.17259708242048      111.37835938182786      105.84653141745363
C          126.59259045831358      110.44178664876267      106.27285511091554
H          126.49723459372676      111.50779090149074      104.39159028808356
H          127.58925768619353      110.11413349693345      104.38803751011719
C          125.70249426586980      109.21740990747175      106.05611928754634
H          127.38481935659911      110.15901618119970      106.96935794550610
H          126.02256505148389      111.24748921627219      106.73525621287338
C          124.59465751906339      109.41721884670510      105.02280930935234
H          126.32511989693602      108.38260655273127      105.72780861260530
H          125.25385174231081      108.93280202565161      107.00991223125956
C          123.64518564098235      110.54912683778625      105.40013814189665
H          125.03644321394815      109.62713527979763      104.04757322564966
H          124.02488453040908      108.48819451090208      104.93987766222368
N          122.54572367845221      110.62871106257634      104.45933582420805
H          123.20705070248877      110.36491627092238      106.38156228245897
H          124.17657584532269      111.50574546425180      105.42156457566259
O          129.83957933785561      113.14142298267585      107.25141613174431
C          121.26106436764748      110.76549150538266      104.81328305048569
H          122.79346778611138      110.60779857389834      103.48193222006111
C          120.30146180643844      110.87499357690791      103.64458065441866
C          118.83917152761509      110.67912094086392      104.04198846442765
H          120.42724414488801      111.87054988396999      103.20858636965379
H          120.58265261634101      110.14461223181816      102.88180765035108
C          117.92400351008422      110.92523030822477      102.84358013218065
H          118.70267835991990      109.66112260075435      104.41411389074453
H          118.58627214483546      111.36049286128195      104.85563251726472
C          116.49472711903746      110.42780399113242      103.06956814162827
H          117.89935218730072      111.99208825916764      102.61872323284707
H          118.33481545823329      110.41130376576244      101.97168606434973
C          115.63998960211811      111.40030012086834      103.85838738588083
H          116.01045211691414      110.29332566513162      102.09978528696442
H          116.51344256423727      109.46951534339539      103.58426449334669
N          115.18865380934282      110.93499654004887      105.02748429355377
O          120.90253785410016      110.81344789352491      105.98375495977943
C          114.27802249214528      111.68591275438402      105.86875745358168
H          115.43300088936623      110.00121488092684      105.32756179606966
C          114.37835566690521      111.23657593416850      107.32079859197530
H          114.53188205769777      112.74533851331755      105.76562629325053
H          113.24839214302423      111.55193844098856      105.51549714051157
C          113.76639125016747      109.85012529811620      107.51162171350610
H          115.42751381956873      111.23836037921284      107.61918411514651
H          113.84797745822934      111.95584973709465      107.94794397285243
C          113.85633319097370      109.33254939168705      108.94446316731592
H          112.71580280937614      109.89915024522492      107.21933310127412
H          114.27090622213321      109.13490093677504      106.85980843394695
C          115.29203918276863      109.06970437737874      109.39194624418369
H          113.38284363813065      110.04159630347355      109.62324931706198
H          113.29696901407695      108.39691460145177      109.00087022172778
C          115.34339722980329      108.33609243252403      110.73314879733717
H          115.78456828895202      108.46027700792294      108.63142112444193
H          115.84372512020813      110.00508253920421      109.47769487926514
N          116.55150881778407      107.55190106384363      110.85964287997112
H          115.28546847296948      109.04132972718844      111.56766559426026
H          114.50692302148900      107.63858475454415      110.80867128551560
C          116.53315766229922      106.24332820801801      111.12191322684896
H          117.42621329376178      108.02623310887917      110.65458559672874
O          115.36669256574477      112.52163099483035      103.44320065095481
C          117.89706552965887      105.58047399193546      111.13382254491923
C          117.78939701575466      104.11385795598690      111.54238256941682
H          118.31025162260839      105.66292726524129      110.12765941180245
H          118.55028289783606      106.12928845870742      111.81593764031953
C          119.13963665462140      103.42357104122145      111.71017889915933
H          117.24130443595976      104.05874787406968      112.48592504677777
H          117.19998958047761      103.59025728150027      110.78872026497110
C          119.92716940377737      103.31715627949541      110.40227705450964
H          119.75203167191840      103.96875292976422      112.43211119126852
H          118.98007470575018      102.41486339947521      112.09803788248686
C          119.23735716063293      102.45642096863276      109.36241447919667
H          120.07785218309999      104.30984704070777      109.97690183294790
H          120.89693544550322      102.87710957606726      110.62915048182506
N          119.37901369931012      101.14482772653530      109.53830960740498
C          118.86625075531121      100.16610789274986      108.60056556960014
H          119.90912147908679      100.77958536288865      110.32885378651571
O          115.49579740441911      105.62223053014243      111.34496891278700
C          118.90341153614014       98.76585670891922      109.20456860870334
H          117.84745040483139      100.45213193701991      108.32106517653227
H          119.48343810684422      100.19004295240126      107.69048047426219
C          118.85304306645261       97.67403987884558      108.13814357928329
H          119.82578082316704       98.66645437922173      109.77856576366605
H          118.06341151044593       98.63185731575260      109.88567221189761
C          117.48071786157583       97.56734023255733      107.47733355773379
H          119.61452130138875       97.86940426945388      107.37699711889969
H          119.09236794997166       96.71619146855357      108.60370486834374
C          117.48306893283245       96.53009193026627      106.35623529122412
H          116.74322752107058       97.30338509329712      108.23582711238016
H          117.19865502409547       98.53863467451848      107.07027414930265
C          116.10256459386906       96.32520362768929      105.73782400616263
H          118.18570751656027       96.83836311714700      105.57621343214895
H          117.82578598214997       95.57043227972424      106.74657796903502
N          115.56755338081709       97.55885381591104      105.20479056547364
H          116.15911610451293       95.57495096132818      104.93967165900226
H          115.39183727591524       95.98025646405897      106.49196841633699
C          114.34218130877278       98.00871513880301      105.50499872379079
H          116.18786834033011       98.13504212968900      104.65838462104468
O          118.62286498131617      102.93996264298772      108.40979637199808
C          114.00301943953102       99.38776098399583      104.98053521522627
C          114.74221303929511      100.50777625753962      105.73246134821126
H          114.22705268516296       99.44443186272493      103.91320548909285
H          112.92958258253441       99.52798793836412      105.11477967481189
C          116.10851700336133      100.86058791674279      105.14704310439211
H          114.11400566565908      101.39750468160103      105.70027271022356
H          114.84388044766533      100.23550356805823      106.78426718416030
C          116.59425140265932      102.22764830639463      105.64351045682594
H          116.85511246026634      100.10735939078504      105.41091162302554
H          116.04373961440564      100.90599838726634      104.05647153564594
C          117.90246602870687      102.55752694974868      104.94008648272093
H          115.84522912650667      102.97501515503376      105.37588661076613
H          116.72625319066613      102.22337080202067      106.72463921445065
N          118.99415500032684      102.38394504918676      105.69633496464350
O          113.54623449762495       97.34149885733211      106.15354248411271
C          120.33763046477010      102.55285830334351      105.18695639264065
H          118.88270098730217      102.33928653604139      106.70945045159328
C          121.22159326939004      103.34270550353749      106.14823470865508
H          120.78138421009061      101.56266493829405      105.01882655731492
H          120.26165287742543      103.05882405866264      104.21978818452688
C          120.73235712084559      104.77643517100182      106.32870178840618
H          121.23299404688953      102.84037553539810      107.11777655016637
H          122.24253324593050      103.34478985160466      105.76240596789036
C          121.65342754596929      105.58304038978089      107.24304984898455
H          120.68132816463668      105.26006656813053      105.35019134239391
H          119.72525405833531      104.74524284894527      106.74536170609693
C          121.30840077849523      107.07198505424743      107.26717110077712
H          121.59991982107303      105.18280742890589      108.25711899505448
H          122.68518134438241      105.46623330347296      106.90374510116951
C          119.96607830319407      107.35239151372032      107.93770847754416
H          122.09247563536528      107.61692444972230      107.79752905780110
H          121.27775064964220      107.45142586494174      106.24223710209101
N          119.60705309502231      108.74699081008879      107.82226693659834
H          119.18281679437537      106.74105528203987      107.47482882853468
H          120.00851748083086      107.11634788677878      109.00425416800982
C          119.02193895218005      109.45708506028510      108.79535722030109
H          119.80438291772160      109.20591644199428      106.94444630783607
O          117.93376503222092      102.89233764523837      103.76337974138927
C          118.65050269821712      110.86305253474747      108.37480076416865
C          118.76415255516307      111.85697382126811      109.52936396114991
H          119.29505823785583      111.15521216364318      107.55007994818570
H          117.62416466139923      110.83265405226386      108.00082011529412
C          118.77912938228931      113.31287681607729      109.06925231950012
H          117.93794084222736      111.70265119536954      110.22514234606112
H          119.68787461955600      111.65433872324000      110.07480760471769
C          120.00073997570259      113.66035636666318      108.20801627638865
H          117.87595280753517      113.53987651078786      108.50091530509370
H          118.78267619669720      113.95887632081528      109.94855973926052
C          121.29806248230634      113.33099976849792      108.91622517988102
H          119.96312234769339      113.14652243709438      107.24851023022401
H          119.98271486326513      114.73494593079039      108.02412221631782
N          122.00341962118112      112.31790456432678      108.38625641021639
C          123.29560770253755      111.92775585088715      108.90144919247561
H          121.64277514597019      111.80729300703359      107.58932671620887
O          118.81135105429829      109.00510250675353      109.91523181706215
C          123.34222196749928      110.46990358104635      109.35808907382474
H          124.05739235357626      112.10110695597119      108.13174452737533
H          123.50369855814596      112.58578573219656      109.74911313539762
C          122.36869703498971      110.16677612615662      110.49396744872276
H          123.11515147270359      109.81710515892331      108.51189955744360
H          124.36136407951291      110.25324326623161      109.68558520564875
C          122.54470812942375      108.74631810278754      111.02510780926242
H          122.51913082440312      110.88216603362926      111.30516010500989
H          121.34720159056306      110.28535588644462      110.13155825598382
C          121.48863976759398      108.39723646406451      112.07049172540481
H          122.45864368453046      108.04288322686169      110.19328769798062
H          123.54167576118377      108.64365064618450      111.45670568437269
C          121.55853734655440      106.94414764943430      112.51154337148191
H          121.60357203192194      109.03284568055881      112.94953201549970
H          120.49748766415239      108.57614470973405      111.64997263975441
N          122.82086665469284      106.63698204722533      113.16149594359482
H          120.74624611000779      106.74222359900160      113.21875301790854
H          121.43691656059501      106.26959514338830      111.65576673611780
C          123.06936919593392      105.40771804999255      113.63670101699249
H          123.44157913647233      107.40558199130626      113.38712101317692
O          121.69274307379158      113.95131667093737      109.89594206771424
C          124.33274517062331      105.32294172285035      114.48100987271964
C          125.08174660788768      103.99051608146164      114.40557202741638
H          124.99836104877363      106.13097375415806      114.17474370151290
H          124.03153155958195      105.51256617499497      115.51472049614378
C          124.28635932084542      102.78623117710013      114.90456017223994
H          125.36085130122095      103.80752109775609      113.36540846413243
H          126.00684629999908      104.08324564272311      114.98233407818594
C          123.98442892482852      102.78404184361123      116.39875875498851
H          123.33975885032942      102.74897053057607      114.37099853588848
H          124.84694651253905      101.87838025442684      114.67425064440584
C          123.28540811014652      101.48926705217245      116.79342638281101
H          124.90967438396233      102.85941177834820      116.97812019510707
H          123.33693691812869      103.62053247382855      116.66448236789768
N          122.74196428827274      101.51314369215318      118.01747120792461
O          122.32263806965715      104.46464748139388      113.40738439932491
C          122.01706518367273      100.39788821767050      118.58769831125359
H          122.66185030613657      102.38250300970542      118.53597759989559
C          121.96670315142997      100.53711496239225      120.10530936147052
H          120.99101466018550      100.38805095058171      118.19366175197405
H          122.51207096001640       99.47244059935828      118.28007197941737
C          123.33454576697210      100.33902149191690      120.76821408419842
H          121.61143468611465      101.54656409285349      120.31515265250671
H          121.24136429712276       99.82689210915483      120.50382031859301
C          123.54289899500688      101.26634150088161      121.96650510098915
H          123.45731002741510       99.29943579305026      121.07703738444599
H          124.11338151792313      100.55990638253549      120.03565905942580
C          122.58214145377917      101.01368503444486      123.12797368315999
H          124.56855343486147      101.16093056747199      122.32818327910590
H          123.41735107319109      102.29699012991257      121.62503925432101
C          122.73076607709866      102.10318825116877      124.19711398603543
H          121.55262967020472      101.02366325123096      122.76420346322632
H          122.76918344805935      100.02902943935048      123.56256144176692
N          121.68642840424876      102.14677123038393      125.21517488766629
H          123.69256343338841      101.99034103649225      124.70555309644686
H          122.73153466567004      103.07684772607318      123.69735552138721
H          120.76638887602296      102.06600541521965      124.78206866009961
H          121.77461302918537      101.35639648756275      125.84583025504396
O          123.24415558298861      100.50467679760558      116.06807271728945
C          115.43077912184229      120.93657678873971      131.52802462689957
C          114.92940176867150      121.35557966379407      130.16214529343165
C          116.48873108547086      121.91002131537866      132.04650737154469
C          117.76194569925946      121.87269887364927      131.20270590864723
H          116.07108811428986      122.91851655232088      132.01787692457467
H          116.72899017224401      121.66638166531831      133.08277047556518
C          118.78873982175473      122.89641752505634      131.69997414347145
H          118.20062997845602      120.87328542006090      131.25386642669781
H          117.50606656674117      122.08456655366147      130.16180188919799
C          120.05459920266715      122.85743196572453      130.86789955113289
H          118.35320559142791      123.89654133044864      131.66485045213079
H          119.05790440761271      122.66562873720846      132.73183706576788
N          119.97969368217758      123.51642947355643      129.69915257449853
O          114.79815708041488      120.32431301681440      129.34444239010460
O          114.66200166394155      122.49148921478080      129.85904655911983
H          114.45107819973875      120.57502724298524      128.44437738849274
H          115.79402415410215      119.91017466112082      131.47996078472869
H          114.56897975772517      120.95118933140189      132.19921384994817
C          121.09420947520265      123.65577555825760      128.78785064330916
H          119.12611616813645      123.99207016601481      129.45042807534293
C          121.57602547696858      125.10547470129052      128.69993107964359
H          121.89669088839291      123.02054746251139      129.17022836443647
H          120.78898393875610      123.30407073411502      127.79971540864121
C          122.95371772782661      125.22314991431315      128.04413626936238
H          120.84151213686127      125.69888272886493      128.15320269405396
H          121.64271883639155      125.51242191907392      129.71185706514805
C          123.07022061829687      124.56088705080982      126.67087186954913
H          123.20386638676044      126.28300054960279      127.95383705472189
H          123.69363504108321      124.76492280052922      128.70380901496935
C          122.10675334408373      125.14300486340636      125.63825259587458
H          124.09500610799816      124.69302577470327      126.31423389365993
H          122.89883823547285      123.48863915252169      126.76732608792838
C          122.23984196934475      124.44853828521168      124.28662892956325
H          121.07860590445267      125.03450799501078      125.98435794141655
H          122.30665477095920      126.20803632305048      125.50768729049462
N          121.82370164982255      123.06681240971866      124.39034339795185
H          121.63327023773282      124.97164009101563      123.53759547811561
H          123.28090885451890      124.46323918425415      123.95392365252579