3536
 energy: -3716.244752517001 gnorm: 0.000821959109 xtb: 6.6.1 (8d0f1dd)
C           66.96965050034780       60.68481141244262       50.38296693196821
C           67.22703482836610       62.04257765217046       51.03264377909477
C           68.68622757367342       62.44547035611777       50.82102612486924
C           66.90641086084412       62.02166060123222       52.53255624493712
C           65.41267058233456       61.95231134520694       52.87417146468233
C           64.74525256700137       63.30588644263111       52.63522061473569
C           65.19055016364555       61.54344872933595       54.33691781058931
C           65.57952813852943       60.10811374801881       54.70398003808631
C           64.76302626223175       59.08298174303356       53.91617897435371
C           65.37287898224520       59.84820882880025       56.20222138061861
C           66.19195267615876       60.69446598615234       57.19041397711101
C           67.68015121170767       60.66058004694793       56.85464012766934
C           65.90173719936071       60.14191732137250       58.59399360401285
C           66.63446117442209       60.78022893078920       59.78225114097749
C           66.37709061106335       59.93137420983514       61.02570969403691
C           66.18378908194411       62.22993728547934       59.99241093468967
C           66.76624324791298       62.95866676100530       61.21470249082871
C           66.14169571637056       64.35074325593875       61.30317495868047
C           68.29405441120406       63.03396540265931       61.11989812822454
C           69.04382012585668       63.71066165289729       62.27867338988312
C           70.52455671702883       63.77605391398941       61.89731794635512
C           68.84547210925949       62.94490776280777       63.59269561829262
C           69.51303040879567       63.57774269135464       64.83032979893845
C           70.37262971917171       62.53497143714483       65.54902155736622
C           68.49394639504213       64.15416176722869       65.82319977109462
C           67.68026992948747       65.35385975501724       65.32834061000882
C           68.57408774182122       66.56756386208122       65.07156734090894
C           66.59913292661773       65.74949210949039       66.34815333344248
C           65.56031085416532       64.67316610153161       66.68352803309526
C           64.90866448467787       64.12317973240593       65.41500067902480
C           64.45117952052490       65.22991329858029       67.58824455032028
C           64.86102074967596       65.78041727940516       68.96031327813662
C           65.78849783503742       64.82663095730432       69.71436773099916
C           63.61901771249352       66.02344699929557       69.83738410605059
C           62.50299910541823       66.88816945063755       69.23439204023016
C           62.99413951982759       68.30808090253798       68.96717366683447
C           61.29596845094220       66.87755729279425       70.18465040992002
C           60.01026237814081       67.54931826815292       69.67467765400778
C           59.02039840090910       67.65575153527925       70.83528338246101
C           59.39520686152639       66.77996218327358       68.49940348930173
C           58.21745978160685       67.49709643451023       67.80897497476491
C           56.89282114546418       66.79603604530793       68.11179820704075
C           58.42086558402043       67.57866548523650       66.28700410434926
C           59.41628058770470       68.66186241564597       65.85212595693261
C           58.74850945493962       70.03802866533886       65.88675913114942
C           59.95605709300294       68.41736453417084       64.43423715457810
C           60.89755351113164       67.21992049732971       64.24983839282353
C           62.05011989032482       67.24715707057882       65.25097553032462
C           61.51615593464800       67.21897923424592       62.84368325418746
C           60.55540619865832       67.10738656407806       61.65788317570835
C           59.83752658772500       65.75832731869257       61.66276280135511
C           61.30968978945982       67.25843296336400       60.32803993618749
C           62.06056210990905       68.57751262944859       60.10473319626372
C           61.10487698504798       69.76954478456369       60.12334276184642
C           62.80155180076766       68.54530161716292       58.76050161039770
C           64.06266577202192       67.67114033927180       58.71954281083243
C           65.21602030129868       68.33516554967773       59.46873550160620
C           64.44749603392793       67.40326557103320       57.25686383082824
C           65.34736056746675       66.18273980617471       57.03537501883884
C           65.85408614544012       66.16898384294198       55.59060288831313
C           64.70673292617114       64.83737820098938       57.44247706704988
C           63.18895444440448       64.64291951991797       57.29635985365841
C           62.82002777331763       63.30752245347209       57.94600997333173
C           62.72843944534202       64.68456322961373       55.83743200043326
C           61.21021197323624       64.63854099305402       55.61175389947355
C           60.94485099159223       64.48369480577098       54.11654951781217
C           60.51847828917272       65.89193114545155       56.15724629349730
C           58.98877016628130       65.81172936370567       56.25949800551722
C           58.44346809321278       67.21838815776209       56.50247715637064
C           58.54979148583833       64.86727374450504       57.38500199939304
C           57.05105557788494       64.50896575939461       57.36717500724787
C           56.42119307123424       64.78931357330241       58.73215824733418
C           56.80567001977973       63.03914247279501       57.00036026105973
C           57.18881519394967       62.61396548554419       55.57584837347839
C           56.32229341056497       63.32677456473246       54.54136616210683
C           57.02906266486824       61.08853622244425       55.47298594076914
C           57.49838635593345       60.42946512306717       54.16888702355133
C           57.05119657737671       58.96898355637489       54.13761967966439
C           59.00889709139140       60.56682607371982       53.92716122904866
C           59.94015549711843       59.84802706652994       54.92213431512389
C           61.17396353617445       60.72214741626749       55.15199973365434
C           60.36085766490314       58.44733158638136       54.43656053340501
C           60.43763245403900       57.37150040425288       55.52893483605512
C           61.32025287896830       57.78393386741786       56.70468468897475
C           60.99576744630542       56.05681493808666       54.96745916502149
C           60.17305040952034       55.36234680698902       53.88044328289391
C           58.78860511157726       54.96907951075914       54.39297152563729
C           60.89331456035653       54.10253559863329       53.38115348883749
C           62.26654762344864       54.32471516425679       52.74497566792861
C           62.22552656668141       55.23779185523230       51.52688833196527
H           67.21269271379029       60.71835662150205       49.32296904654967
H           67.58415161768509       59.91753670828486       50.84993419787795
H           65.92750568732032       60.39264917427321       50.47784411146714
H           61.97947674711219       56.25752212927256       51.80962559989698
H           63.19498014584347       55.25068867395074       51.03463828749370
H           61.48303917588990       54.88795079706709       50.81295411956150
H           61.00856943439845       53.41085532564140       54.22048917378400
H           60.24994789715051       53.61466515821724       52.64401908166533
H           61.99286303246203       56.27024183487699       54.57653443609433
H           61.11469827188096       55.35231143458250       55.79575222202767
H           59.42716950219705       57.19976876837938       55.91644253072560
H           60.93729743632933       58.67287967937079       57.19524835230413
H           61.35245722341813       56.98315370978207       57.44163431496371
H           62.33906747344499       57.97644196574718       56.37252589965966
H           59.64905541989543       58.10309237759875       53.68708565962830
H           61.33627807680733       58.51905611487801       53.94638988909357
H           59.22321113271529       60.20923005396914       52.91796639344424
H           59.24623596803890       61.63267400616376       53.93769851571883
H           60.04482565664995       56.04047075660875       53.03278836867764
H           58.19139602005109       55.84595583719285       54.62715636775531
H           58.25373493236605       54.39438373498300       53.63978885967207
H           58.87643832903699       54.35947938298482       55.29018500580181
H           59.41550908849891       59.74155108474452       55.87579700606541
H           60.89401048264754       61.66683651311913       55.61109173063278
H           61.89531822269338       60.23381936280350       55.80012120364461
H           61.66047615173241       60.93778018337469       54.20090054796047
H           57.00274874771825       60.93697367636505       53.33185926701152
H           57.35396841150649       58.49523528099131       53.20606559257276
H           57.48243010228367       58.41494499320344       54.96628149872254
H           55.96808847390841       58.89981036275029       54.21019754206729
H           57.55990678423598       60.62775167014419       56.30878157558251
H           55.96878951480832       60.85506576306243       55.60821168024091
H           58.23568731702473       62.87928819268162       55.40132112967821
H           56.42426014329386       64.40691433309348       54.61890870289751
H           56.60634827876036       63.04034093637740       53.53132039820913
H           55.27415451231833       63.07168000540166       54.69005752259376
H           57.35933007865621       62.41813143207140       57.70884227153437
H           55.74246315202603       62.82234875353041       57.14212098427024
H           56.53799273301365       65.13944651236339       56.63532059509340
H           55.35826292029549       64.55481225582649       58.72377910587986
H           56.89766719802644       64.18924789778946       59.50505659223764
H           56.53485148617798       65.83868162778559       58.99589861747710
H           59.13099086518290       63.94620631971969       57.33396798292200
H           58.80150765830638       65.34199955080601       58.33691903912568
H           58.58308277304232       65.44626272405591       55.31151769913128
H           58.88733207018655       67.64689993558029       57.39966082795632
H           58.67623659971188       67.87031225705125       55.66303382439760
H           57.36490130588648       67.20498926585083       56.63683584216271
H           60.90141318795970       66.11421538445462       57.15489847555449
H           60.77959224742376       66.73470503918850       55.51109629982604
H           60.80585780437344       63.76024551171522       56.12045994369199
H           61.36202495854672       65.32656994791711       53.56811114669556
H           61.40090916357546       63.57178219006120       53.73770614605583
H           59.88023391852518       64.43920670576654       53.90954413735485
H           63.09686879720818       65.59629952696078       55.36707862306856
H           63.18327263107766       63.84029345738937       55.31415721261333
H           62.68635712335599       65.43491706189313       57.85489975100264
H           63.18589288393281       63.26813443445391       58.97013912643241
H           61.74270474589087       63.16977742898776       57.97413981221843
H           63.26261787951703       62.47957174686829       57.39581587350777
H           65.20763572599975       64.04380188643125       56.88148892194319
H           64.93911505958047       64.67096917742857       58.49668908227857
H           66.23742358597072       66.30255662447715       57.66693761296674
H           65.03578165304246       66.11743722761219       54.87846177794925
H           66.42382810630322       67.07334222128178       55.38248344984886
H           66.50817215090721       65.31505633000145       55.42375152071010
H           63.54091003045956       67.27842273486498       56.66503156239597
H           64.96155790808950       68.28716472683422       56.86862261153293
H           63.85237047327208       66.71769147075173       59.20881672490669
H           65.44918070236882       69.30461088270114       59.03109996302662
H           64.96648001835442       68.48417896258846       60.51640758192907
H           66.11040390988477       67.71789848758083       59.42535697359807
H           62.09976351877351       68.19537298216869       58.00071820879037
H           63.08665967992314       69.56445079192872       58.48771600628864
H           62.79787098004539       68.71711072275566       60.89975523926682
H           61.64435975950234       70.69373862447132       59.92446947995234
H           60.33809137071147       69.65104740550291       59.36068353928018
H           60.61664186324830       69.86769552561175       61.08912355014235
H           62.02125357825576       66.43292853713652       60.25286802142549
H           60.58674273053312       67.14275850923271       59.51528722991134
H           59.80382309889855       67.89765944529331       61.72267677032907
H           59.18091323027857       65.67189137151833       60.79933244258481
H           60.55861227129746       64.94468773653951       61.62369560666042
H           59.23439728441293       65.64033174191279       62.55871331246449
H           62.09000358189785       68.14288525797984       62.74920826679936
H           62.22416171927627       66.38745487860646       62.78072425907116
H           60.33887971501646       66.29176995603272       64.39940129843730
H           62.75156791935910       66.44575649473144       65.03048064908532
H           62.58279874545992       68.19522275842419       65.19730657564412
H           61.69592233980197       67.11083386249030       66.26682133890159
H           59.09885625343220       68.29977664798845       63.76762712230367
H           60.49520767815126       69.31683665859333       64.12161826654736
H           60.25224807040507       68.68057007274778       66.55608896723784
H           58.31872246465215       70.24204423316651       66.86472548304366
H           59.46974510398910       70.82299785937272       65.66688121434800
H           57.95159696897577       70.09120417437830       65.14705714642072
H           58.75453320179247       66.60348332805724       65.93088724395356
H           57.45980036333241       67.78834490853424       65.81013261057733
H           58.15281171132549       68.51790713150812       68.19970992650664
H           56.87874764378695       65.80498235892209       67.66268842084864
H           56.74202406604482       66.68853527987608       69.18311489523639
H           56.05700922521975       67.36320840665653       67.70665485669531
H           60.17479637438262       66.60414076764935       67.75942438226659
H           59.06689505932512       65.80175094420410       68.85915740424885
H           60.24754901613973       68.56479036808908       69.33993950587106
H           59.45615099317786       68.21746780455518       71.65939222321646
H           58.10977249194281       68.16283958614511       70.52743088151199
H           58.75669124670658       66.66487944828695       71.20103680879626
H           61.05573678285452       65.83895925807069       70.42990306143309
H           61.59278668578693       67.36843560496239       71.11596455197528
H           62.19981505188471       66.43540738681524       68.28846786914765
H           63.84157239494746       68.29887181508656       68.28684369495423
H           62.21335587863913       68.91439409957846       68.51491552253788
H           63.30307436476674       68.78425456421515       69.89591372390959
H           63.19593526989347       65.04714669097297       70.08914454459361
H           63.94418509800964       66.48388028789007       70.77487599041936
H           65.38945056071162       66.72918688180752       68.82255789375378
H           65.32655985986962       63.84690664083851       69.81166424248366
H           66.74121349819673       64.71197175529966       69.20487406653380
H           65.98706451233072       65.20860142011774       70.71419886832489
H           63.94563057415846       66.02394247716512       67.03760872389803
H           63.72542413862814       64.42929643838052       67.75081163145167
H           66.04683661922446       63.84511819476191       67.20395036124192
H           65.60716956445613       63.52385972045002       64.83793793081212
H           64.06037905651422       63.49491008797520       65.67492481154201
H           64.55130755553122       64.93564769353866       64.78514633079313
H           67.09921946098764       66.06144670031924       67.26789304606693
H           66.06833297947833       66.62184054161138       65.95517670440127
H           67.19359930626867       65.08911497542798       64.38625505134536
H           69.29274023674226       66.37013896259297       64.28035941592644
H           67.97344428297255       67.42399573852231       64.77101105691635
H           69.12224298394467       66.83577906460795       65.97309250667986
H           67.80723566829592       63.35248079232443       66.09708364998244
H           69.02542065626457       64.45456034453422       66.73128271504335
H           70.17568731117073       64.38680126607693       64.51496901581930
H           70.86553577811388       62.96933192523929       66.41699848220506
H           69.75789281107507       61.70220646809821       65.88667250196171
H           71.13973345981485       62.14619732493237       64.88274239044239
H           67.77640087185731       62.84469874793073       63.78362376790907
H           69.24074423938256       61.93557678741096       63.45120146371291
H           68.67803812480264       64.73441944626181       62.40153619442849
H           70.92617369853312       62.77297779569876       61.76345180629733
H           70.65239184192696       64.32089641283136       60.96386640060171
H           71.11691330568873       64.27681770296165       62.65850301318930
H           68.68908288639808       62.01963460161522       61.02973143074462
H           68.54587799514049       63.56461671944232       60.19672780420514
H           66.48259044534410       62.40580203385971       62.11432587942753
H           65.05592934330588       64.27860094061867       61.30371768873698
H           66.44098213937106       64.86120320934596       62.21467437357635
H           66.44606426966023       64.96209715753211       60.45544426638858
H           66.43807158565730       62.80667144438751       59.10075651483130
H           65.09460402596693       62.23136644422632       60.08667058275796
H           67.70949734008705       60.76259232342745       59.58122289669064
H           67.00584140951578       60.25036637000515       61.85161308462206
H           65.33701061303196       60.01138412355662       61.33230707997859
H           66.59478417478638       58.88472064766015       60.82678134088064
H           64.82723347308313       60.22355622733632       58.77018659446761
H           66.14531265619360       59.07632432991007       58.58617616190332
H           65.84888876382307       61.73251664790394       57.14578646678364
H           68.04260964503962       59.63542982871390       56.83824474439520
H           67.86757283168429       61.10812871082526       55.88160048436193
H           68.25699677689211       61.22262396451979       57.58527218449802
H           64.31302596800936       59.98451391065406       56.43421200871769
H           65.61060783862197       58.79729154770571       56.38832239077885
H           66.63449146274260       59.94209591085152       54.46850924832564
H           63.69852936565853       59.26195295106281       54.04964114087305
H           64.99335620428663       59.12651444907937       52.85511635214661
H           64.98552905306221       58.07598788164066       54.26426506527441
H           65.75512185879208       62.23596746286720       54.96537695905213
H           64.13146392515806       61.67477193618527       54.57428386117353
H           64.93017061000107       61.21803936081960       52.22551329369744
H           63.66820871277376       63.23142253739269       52.77066388660690
H           65.12847771447120       64.04541354540052       53.33598613739731
H           64.93638589108666       63.66314228806424       51.62745515098838
H           67.42313876347046       61.16482508900398       52.96892144258661
H           67.32164704298484       62.92179080112872       52.99507462563586
H           66.59646236037662       62.78803112287041       50.53851903799330
H           68.87819078016544       63.43415640952117       51.23301814815758
H           69.35122837965120       61.73596450097431       51.31030262404911
H           68.92951220981514       62.46536052311883       49.76058972914647
H           62.96537863868453       54.72906663837355       53.47897291890487
H           62.65880625737948       53.34990100682595       52.44254647322910
C           57.98681540966451       37.53888962728653       48.29919818814573
C           56.96976933879507       38.64842952871303       48.04074119035576
C           57.37798913472006       39.44309914211270       46.80006875526610
C           56.84250272861997       39.59978764462193       49.23731390678810
C           56.31400518002213       38.97572612514338       50.53368871904620
C           54.87812342458885       38.48209113346408       50.35513641656494
C           56.34067149967538       39.97642775760784       51.70084126786931
C           57.70513334962558       40.56136295830737       52.08933448301526
C           58.71697012022938       39.45928799041444       52.40101863760719
C           57.56687656835813       41.47357352569547       53.31901867204733
C           56.89657877220115       42.82941812206907       53.06781261978546
C           57.84614256062280       43.77229079116781       52.33011880441230
C           56.48381132730058       43.49491049615632       54.38806834522422
C           55.32262649112935       42.84859943514027       55.15092784323060
C           54.07207107252535       42.74416603737658       54.27671085620291
C           54.97078646304298       43.66911873432115       56.40232124230485
C           56.09827177145178       43.90948675734121       57.41378476871351
C           56.62768170293833       42.58908044815552       57.96916282969549
C           55.60435862630751       44.79403066933816       58.57046777093657
C           55.43053235601195       46.27393832158791       58.20921044503682
C           56.79140470323558       46.95762593878913       58.08992150915523
C           54.58994748809422       47.03877955568455       59.24253391153184
C           53.16581373560095       46.52296808665400       59.48655799448178
C           52.44266777015305       46.21671716921183       58.17584542033162
C           52.31969993501064       47.56044182378712       60.24056030023141
C           52.90007738696809       48.13694238842868       61.53472445127630
C           53.21767917983537       47.03878020696845       62.54905866619740
C           51.91625682013343       49.13101344513703       62.17560095625564
C           51.44462746298082       50.28997479634619       61.28885051047173
C           52.61739139162968       51.14172924992771       60.80640646489895
C           50.44908054662711       51.19484921785011       62.03194069725976
C           49.14050841856427       50.53975785196901       62.49450705744110
C           48.44110720273491       49.84294560174110       61.32501246069309
C           48.17005871722711       51.57092805257677       63.10081686571111
C           48.37292628014882       52.01774966719855       64.56190728920885
C           49.54421306410685       52.98148810074603       64.74006544389484
C           48.48642753314612       50.82139123870547       65.51509712897753
C           48.17004368973722       51.13475273750164       66.98626195100347
C           48.76395919205715       50.03883370633387       67.87181945548727
C           46.65702754478145       51.22416683203924       67.21709728786314
C           46.24843819969775       51.91553320929228       68.53121824376532
C           45.02289368053935       51.21757129282662       69.11992037788265
C           45.97487872542119       53.40418380406960       68.28006728177542
C           45.70667874354525       54.24258706002806       69.54547135663836
C           44.39636517048260       55.01824514039976       69.39790235557682
C           46.84288483242708       55.22693761887035       69.85082647485453
C           48.17253626604964       54.58375904413540       70.25897337345505
C           48.04672702214015       53.84930640201042       71.59466428864393
C           49.28142914994881       55.63888211808552       70.39051427607029
C           49.63084526432549       56.42588194070547       69.12200139648323
C           49.96055452572648       55.48886716238037       67.96222363347987
C           50.82653644880305       57.35719622933566       69.37274794133660
C           50.58777308482423       58.52418905334036       70.33780185386640
C           49.49379507487218       59.45639890511876       69.81835574691442
C           51.87664058905298       59.33965071486694       70.51823019420821
C           53.02853402651179       58.65680787127735       71.26302415728627
C           52.59949193506561       58.18324900046649       72.65236474771301
C           54.21477123027076       59.62155895271223       71.42277524164652
C           54.79560704639714       60.21213061571107       70.13248207900997
C           55.20688279120864       59.10972925411117       69.15876392271976
C           56.02198443142549       61.08872661620675       70.42840867877959
C           55.79372458223457       62.29219805222797       71.34878323292435
C           54.73363548302088       63.23611609875189       70.78073559001668
C           57.09433925771225       63.08289237523520       71.55574129914702
C           58.29035751469531       62.31024969508714       72.13079358310380
C           57.92565283761065       61.57332721068181       73.41766062876556
C           59.43792865215654       63.29729573418442       72.39487815761287
C           60.83651282445837       62.66157525342737       72.45359559721371
C           61.77825444360709       63.57746438150806       73.23454767352499
C           61.34858264400376       62.41682656610180       71.03134335685711
C           62.67125977146196       61.65109478021805       70.90210419518297
C           63.11963466172229       61.69638706571539       69.44127357903007
C           62.56336203568298       60.18667940921533       71.36628561902259
C           63.20551541808897       59.87250146600619       72.72181949366896
C           64.72456772944589       60.04312756385580       72.65766232717669
C           62.90969031401129       58.42491226587482       73.14301834201790
C           61.45629479053630       58.07774924488811       73.49830727642612
C           61.01888400295647       58.77423951680751       74.78379229186609
C           61.35856622295739       56.55108102114807       73.63123623249705
C           59.97417865368398       55.94957739895521       73.91963083456184
C           60.14662110161438       54.43980163135112       74.08561436973312
C           58.99116755525478       56.29349172890497       72.79446040633664
C           57.60813726562805       55.62768472308397       72.84327235349366
C           56.83706522127915       56.02294799651010       71.58379555984155
C           56.84968496349932       56.03173506287938       74.11252269424922
C           55.43170663313398       55.46266047896171       74.25427234409875
C           54.79225008264982       56.00549844485297       75.53317514281696
C           55.37053945644602       53.92966946304934       74.20444429215297
C           56.11581410009173       53.20226203505863       75.32113985216941
C           56.03734014587463       51.69026165222586       75.14191268379540
H           57.66788471888621       36.89242166848987       49.11272133446571
H           58.10896308534551       36.92343246776667       47.41002771980802
H           58.95591394443385       37.96413849162423       48.55471702598592
H           56.56144006995719       51.17886527149847       75.94641832011217
H           55.00074714616790       51.35819778262838       75.14418416471651
H           56.48965911405669       51.39334712194614       74.19762649496064
H           54.31879156062610       53.63148434054106       74.24047849512786
H           55.76650221703605       53.59244217384824       73.24482728784463
H           57.43038865212601       55.73410781332020       74.98696777775969
H           56.77519778339403       57.12359594261956       74.13472544618401
H           57.74136015116365       54.54333117881712       72.83049588071412
H           57.43249250389547       55.81909032423696       70.69681139832754
H           55.90851382917638       55.46577640221897       71.49804105237584
H           56.60095679656069       57.08529258650913       71.60097176677608
H           58.83937043755795       57.37560764037601       72.79165998783854
H           59.45798901377477       56.02103909964693       71.84499037080163
H           61.72811007090320       56.10145444866666       72.70497482104123
H           62.03714169845965       56.24129402428655       74.43112458485020
H           54.83107050465098       55.82600661718440       73.41305100429420
H           54.70848332516335       57.08967487634540       75.48543114327205
H           53.79446110468398       55.59324474820832       75.66810181360233