3536
 energy: -3716.238326816561 gnorm: 0.000973925395 xtb: 6.6.1 (8d0f1dd)
C           58.84742733130872       50.08064473589813       47.05835860270967
C           58.35208368339737       49.18047587000793       45.92689925420962
C           57.14035695724094       49.80828685015180       45.24356996890731
C           58.04130207184364       47.78921631032634       46.49143599162529
C           57.47990418506136       46.75796826651542       45.50136919393941
C           57.16528390087966       45.47470359935550       46.26720601890413
C           58.46962212779445       46.50348638643313       44.35959684326203
C           58.03223217967130       45.53348729485031       43.24970336391117
C           59.15966943464668       45.45712340032947       42.21942180216046
C           56.71495749946592       45.99470037182225       42.61505363936852
C           56.23890953038228       45.21114013281189       41.38635392742889
C           55.01908869509826       45.90822832029977       40.77711537721566
C           56.01155939828906       43.70700606582552       41.62936688861540
C           55.31641418367693       43.22712392650919       42.91448545765799
C           55.29413127879634       41.69712113436407       42.88007387769746
C           53.90474501035408       43.79897465747039       43.07796446683897
C           53.08299318098544       43.25835375797256       44.26041907844409
C           51.75528136053890       44.01611542079723       44.31099478388909
C           53.86009148649730       43.39758086231807       45.57441592193953
C           53.11850551672826       43.02046149011512       46.86525843253188
C           54.09683297355575       43.17009324834686       48.03136866380690
C           52.55699966674386       41.59546166566796       46.79474362822512
C           51.72718024503219       41.15680385282045       48.00871203515116
C           51.47580613015583       39.65059701226911       47.93538461120193
C           50.39405513041002       41.91265931905301       48.08634012526609
C           49.78583882159622       41.97962841192505       49.49534306517800
C           48.30864547467458       42.35241288578127       49.39187597075849
C           50.56095448873471       42.99404602504129       50.34630549105454
C           50.22546636611339       43.02031987810499       51.84070278066113
C           50.98046826782523       44.16978584043805       52.51182330799471
C           50.41917138637597       41.67301999725323       52.56600732269867
C           51.61203750672683       40.76817218096664       52.20740167544236
C           51.37446058728565       39.40771370972665       52.86724592590561
C           52.95832440683064       41.36354949960609       52.63566486852964
C           54.19755336284051       40.48319243294966       52.40159974222267
C           55.40981766298092       41.16575412332478       53.03542945867358
C           54.43664090501004       40.24072914254928       50.90696519769728
C           55.44023011550090       39.13110830219364       50.56294144405732
C           55.68279233178432       39.13574951410050       49.05338514351099
C           54.94061918482696       37.74761195202354       51.01811129196440
C           55.62117691124976       37.21722491394858       52.28962127260797
C           56.99944766075591       36.65852450130844       51.94469778594387
C           54.73045899700993       36.15252372124061       52.94237844447647
C           55.20118389370632       35.61416085636709       54.30373760315312
C           54.39816922471751       34.35562110259421       54.62923621911949
C           55.04012869608584       36.69727533051536       55.37832309642841
C           55.80130786442421       36.53482270627345       56.70733663448695
C           57.28737211771669       36.25945965824904       56.48300737786065
C           55.18609824104891       35.49999513700406       57.65836501343903
C           55.46052162105973       35.78390740940864       59.14403001120896
C           55.19372595229397       34.51963114439548       59.96022669284595
C           54.58944431886288       36.93871270482846       59.65548268249476
C           55.05865873213649       37.55384807504852       60.98646346808594
C           53.86527157109184       37.77053715042499       61.91807154268892
C           55.77540914967823       38.89544774338986       60.78651300428690
C           57.09586189463047       38.84335302469055       60.01011145906459
C           58.18887694981688       38.17751828607700       60.84439403941768
C           57.53786631296817       40.26240286210295       59.62105913287537
C           56.80424825697665       40.85248448071442       58.40811641123354
C           57.37156664604033       40.26599019829725       57.11812842127929
C           56.93162743772112       42.38214078366483       58.41417155352339
C           56.02636808976688       43.10755520939806       57.40825646418288
C           56.48986804995410       44.55636818092707       57.25657083688847
C           54.54984045774427       43.02638970549821       57.84092491517102
C           53.59103984211290       42.60117535361287       56.71990833141570
C           53.24214781970834       43.79803367506575       55.83780423715441
C           52.30334808450714       41.96910971441485       57.26843763502792
C           52.47144397412112       40.58883492798829       57.91457340679229
C           52.99762121154998       39.56291186248797       56.90983891355813
C           51.14283403161744       40.07190596463478       58.48561527469103
C           50.46077809521721       40.93356602084014       59.55877055243673
C           51.39602533828584       41.22514760591822       60.72858971231969
C           49.19997150376591       40.19043537482909       60.02333779415195
C           48.32012315552335       40.89967921919656       61.06213745742292
C           47.13233563855778       40.00149193432032       61.40798725635914
C           47.86674395198842       42.33063047489265       60.72164285055637
C           46.72996545478930       42.53153621328283       59.71341445292850
C           47.15427093589787       42.21974877191451       58.27915953959714
C           46.23443837884331       43.98660951809086       59.75711850774157
C           45.58831410009383       44.48326532807432       61.06028381130356
C           44.49394519989865       43.53483444708194       61.54369831830819
C           45.01377902129518       45.88203224972685       60.79058731975866
C           44.62959050244501       46.70812994598116       62.02702556180327
C           43.65327315153736       47.80214584861850       61.59651676261468
C           45.87979444784547       47.30774380967519       62.68290721758251
C           45.65432986851830       47.97595267733360       64.04780100164513
C           46.84735847962470       48.87226146092163       64.37623753534304
C           45.44240450239235       46.93677127547365       65.15419782912433
C           44.85904893124702       47.53088399777486       66.43458557525732
C           44.63945700948845       46.46955295191113       67.50499315967795
H           59.70258868965063       49.62790014041423       47.55554877157400
H           59.14525204791666       51.05449054125236       46.67427080303036
H           58.06622902949177       50.22912409200363       47.80057312653760
H           43.97175563522860       45.68989737189732       67.14479375995263
H           45.58470302297317       46.00722991679098       67.78044827575931
H           44.20211966119945       46.90921921065914       68.39899938506339
H           44.76182923777390       46.16137249074687       64.79667363011798
H           46.39966725616593       46.45966436630607       65.37986982771424
H           46.63010664220396       46.52371153274709       62.80802844528160
H           46.29521425634746       48.04882053774350       61.99541541922937
H           44.12014850828825       46.06234217458920       62.74722153725715
H           42.74747378477982       47.36260675152792       61.18453606480998
H           43.36601480862586       48.42919335549791       62.43501150623056
H           44.10371958682510       48.43005688757102       60.83047006701113
H           45.74009858425261       46.45967507253047       60.21395892725572
H           44.12703274913410       45.75992056347576       60.16373512854127
H           47.07611183988769       44.64354340862339       59.52233447666571
H           45.49684704351773       44.10980431760831       58.95959424209614
H           44.75888516562716       48.60270777182873       63.99259412346795
H           46.69713056662047       49.40326006850820       65.31234259054628
H           47.75086661117483       48.27450063484088       64.46046194948768
H           47.00086401380468       49.60759909997105       63.58928164097918
H           46.35302983439593       44.56142998020269       61.83904463841476
H           44.91203791457259       42.58224756536750       61.85779371180450
H           43.96386848401466       43.95856235268666       62.39295286929018
H           43.77390201283019       43.35146859679941       60.74868941031822
H           45.89543112388402       41.87649671426597       59.97030587961849
H           47.33811954099653       41.15994366939955       58.13807158119461
H           46.37116762614500       42.51486269876241       57.58378376850560
H           48.06163477955901       42.76210532570501       58.02160007805116
H           47.53807401976308       42.77119549824518       61.66505633796374
H           48.73032285038366       42.90716648501770       60.38400414702468
H           48.91958740476616       40.99517625075899       61.97406607871605
H           46.49047901419036       40.48142221526859       62.14360136932410
H           46.54105304065197       39.77533016482108       60.52393695224500
H           47.48113103746683       39.05998096174389       61.82717877668108
H           48.60107857569790       39.94356404087737       59.14627214507379
H           49.51390561190387       39.23997570327895       60.46634683252167
H           50.16032464781906       41.88079538287743       59.10432836998009
H           50.89629520877178       41.83828213697095       61.47349048322339
H           51.71392008237966       40.29835024483199       61.20241583911154
H           52.27818773804848       41.76691980498118       60.39918454322751
H           50.44246594762004       39.94076030612164       57.65602403443661
H           51.32731190746992       39.08272755109846       58.91437115437262
H           53.19221726817750       40.65466816419054       58.73450586438531
H           52.38317577583734       39.55881743534675       56.01205879158136
H           54.02383677654003       39.77536394418804       56.62227296054565
H           52.97209430235736       38.56500199502882       57.34161762630019
H           51.87026783662757       42.65580967125315       57.99675242989477
H           51.58747418898463       41.87020936292707       56.44737394001886
H           54.09344048436153       41.85866995465287       56.09346917482395
H           52.55427640448203       43.50942000538119       55.04660068344886
H           52.77398121793797       44.58160925121557       56.43039739447926
H           54.13629863496320       44.20476973650167       55.37490744419455
H           54.46510952157147       42.31789069903472       58.66423246374052
H           54.23495746949053       43.99729560980189       58.22932399572178
H           56.13716194360853       42.62539047730065       56.43255097990879
H           55.85113120611307       45.09946233891085       56.56577276851421
H           56.46708232219664       45.06867791745220       58.21526618478219
H           57.50862761317359       44.59122533379131       56.87488125194687
H           56.69509562436541       42.75814418595125       59.41319591587811
H           57.97410942117265       42.64089726261266       58.21026173476263
H           55.74540890436908       40.58598771228206       58.47309350019414
H           56.77009395534414       40.54767627380839       56.25719554976964
H           58.38480052841997       40.62652383401970       56.95972389888697
H           57.40034523647315       39.18140269683262       57.16424836203695
H           57.39161038467434       40.91239365330809       60.48814341509733
H           58.60663054341189       40.25354216545521       59.39560914326205
H           56.95228497482520       38.26057054068385       59.09803167341460
H           59.11724509508660       38.11609304005309       60.28022770079849
H           58.37605449379740       38.75184901832235       61.74925614021262
H           57.90437143445903       37.16847930478073       61.13138838495140
H           55.08423714267680       39.56817197534500       60.27273313026385
H           55.97971303963026       39.32725194427331       61.76989160318043
H           55.74470362886567       36.86134997908135       61.48155724539837
H           53.36475295069447       36.82788678205635       62.12821584866485
H           54.18510678013204       38.20587193962976       62.86253082815685
H           53.14769741572467       38.44701553226086       61.45786412581754
H           54.54884150198070       37.72750026444927       58.90375369768588
H           53.57169884783083       36.55826786747160       59.77159526434951
H           56.51498730700627       36.04836053057004       59.26202068330905
H           54.17343072856482       34.17560778804986       59.80040481676321
H           55.87338296084395       33.72187794824526       59.66766368024901
H           55.32695454600385       34.70520929968468       61.02335888324206
H           54.10448390703600       35.46324424022800       57.51138959004373
H           55.58721797442659       34.51318115694719       57.42126925534574
H           55.71996212588460       37.51250317996195       57.19613811057073
H           57.70066551688041       36.97179852036921       55.77201149377706
H           57.84005307227008       36.35015447208327       57.41586286876927
H           57.44572539191766       35.25434748954699       56.09973657538730
H           55.37685992157576       37.64277282520901       54.94815144094745
H           53.97591257001185       36.81061974518936       55.59953359544476
H           56.25330270407035       35.33655140203464       54.22095465747829
H           53.34263052212872       34.59678338347874       54.74013332078288
H           54.49759578594628       33.62657521971703       53.82707670560666
H           54.74252758970015       33.89212321008689       55.54744686864374
H           53.72579333976776       36.56438465302427       53.07461136743319
H           54.64736517290856       35.31400630095302       52.24628084086318
H           55.75318025770133       38.05049887887213       52.98481703275420
H           57.56964207365424       37.38448752233481       51.37013049580724
H           57.56659240356780       36.42487105152739       52.84134562976374
H           56.90183589128620       35.75312785822835       51.35034941653581
H           53.86158363138210       37.79852839751204       51.17626270588187
H           55.10543538398404       37.01984678377315       50.22068635479400
H           56.39320818645245       39.34867576585291       51.05449579108083
H           56.42538833512467       38.39013591438948       48.77831384048980
H           54.76051186909968       38.91250235477444       48.52066636388334
H           56.03893432997876       40.10836070931058       48.72184064620581
H           53.49205998060673       39.97956627983142       50.42842548188236
H           54.78180072568252       41.17765231201165       50.46058255386826
H           54.04690971032885       39.52637091188667       52.90429416825251
H           56.30647431966153       40.56250634985201       52.91712086137309
H           55.58805137062986       42.13273771331097       52.57009059801158
H           55.24452875684018       41.32623133068127       54.09922715207480
H           53.11541785711383       42.30189761684346       52.10132419049636
H           52.90524237515906       41.59357566258066       53.70205892162677
H           51.61839360620721       40.61727814849081       51.12657429246805
H           50.39140323594375       39.02196942046086       52.60371976310640
H           52.11231825357698       38.67794817349417       52.54711653910880
H           51.42400400531436       39.49635611224254       53.95068136449017
H           50.44824222760530       41.87048067269609       53.64119913632626
H           49.51807557949358       41.08126738142876       52.38243030617475
H           49.16177859324075       43.26247383477624       51.94103938056816
H           50.70048931427544       45.11753476169226       52.05556193906541
H           50.73214148267167       44.22113275127015       53.56968682628501
H           52.05655581844107       44.06051882472768       52.41719106774617
H           51.62980796574540       42.80896360858531       50.23908430702714
H           50.36822967734900       43.99145727395895       49.94099969318944
H           49.84972445828463       40.99075564460319       49.95537733270007
H           47.84942421871633       42.40717472294357       50.37546034252500
H           48.19692553291070       43.31681953716124       48.89994103081219
H           47.76846528840819       41.60808878237435       48.81016687114757
H           50.52513948166175       42.93654430804415       47.73280377830001
H           49.68497588995195       41.42628411304155       47.41202290460399
H           52.30814871816402       41.35381772931152       48.91134907231343
H           50.96671132352039       39.39381552360227       47.00831899684166
H           52.41409083449675       39.10059385900212       47.97123691951762
H           50.85724323343985       39.31842438900158       48.76614763666362
H           51.92751643441051       41.49599682057301       45.90940644110425
H           53.39790190255047       40.90600196857680       46.68064370909691
H           52.30086198650191       43.72995927763268       47.01600874639838
H           54.61402669826979       44.12532172195368       47.97173932869362
H           53.58311066052155       43.12550194871615       48.98765282574072
H           54.84364346462062       42.37960454704882       47.99965672906831
H           54.75716204264431       42.77851516923685       45.52270196193826
H           54.18279231272653       44.43823764527083       45.66823492453895
H           52.86790290246699       42.20243090575670       44.07780749957292
H           51.07434429359414       43.57071481342462       45.03109000550522
H           51.91861007155477       45.05543153843333       44.58836609589111
H           51.27277495415421       43.99685569880914       43.33581841561498
H           53.97956635566128       44.87947411522131       43.20289802961320
H           53.34561610585135       43.60961055862916       42.15847538251964
H           55.92194312175251       43.54025152062225       43.76850657019763
H           54.64352858963777       41.34658193752622       42.08150615966512
H           56.29385096081889       41.30681544026514       42.69865997121429
H           54.93998448534904       41.28216561180125       43.81923752352852
H           55.45377485052675       43.31466576139097       40.77462502154130
H           56.99257873799787       43.22426456398258       41.61325251123175
H           57.02446975974641       45.27023491872497       40.62418868582547
H           54.62442256615331       45.33068210040481       39.94439952497764
H           54.22383392899604       46.05164084258235       41.50133118842601
H           55.30559891577740       46.88786614009452       40.39922850665285
H           55.93007410162637       45.96304797046274       43.37019251921399
H           56.83284897371171       47.03896324305691       42.31239886032522
H           57.90054279966434       44.53550561971156       43.67496641169575
H           58.98378634030784       44.66570749570671       41.49625272461716
H           59.24923774513908       46.39808224248419       41.68059555746419
H           60.10743850469205       45.25311607474268       42.71451065317306
H           58.69970071823932       47.45757866471192       43.88221704041004
H           59.39477101005443       46.12457722426095       44.79979257239737
H           56.54569935517024       47.14902201696975       45.09322072741016
H           58.07621273294763       45.03973960986417       46.67285374298741
H           56.49397632013621       45.68362682745455       47.09800917005855
H           56.68694101593099       44.74055728626647       45.62587941586721
H           58.95699861366040       47.38423692853818       46.93117973964897
H           57.31641518376852       47.90854166445281       47.30102247288967
H           59.15836192099982       49.09746924706223       45.19140921960189
H           56.28020913398993       49.79361366883092       45.90944937425624
H           57.35013759768978       50.84126103868122       44.97205078587632
H           56.88042838221597       49.27062443209554       44.33563169468353
H           45.53032101362542       48.29621573118799       66.82730500368154
H           43.90601592934371       48.01163652425412       66.20176534211679
C           45.71714018904900       42.86888327416862       65.65226458542985
C           46.68461871567359       42.25478188877887       66.66159349407913
C           46.41057845118545       42.81887572000689       68.05547351304590
C           48.14595036473484       42.52853548148353       66.28669874058657
C           48.62490766646911       41.90422161842094       64.97163561564166
C           48.53178788316012       40.37862770572990       65.02051534146639
C           50.08000005490455       42.29656362113579       64.67476967160924
C           50.37315065172223       43.79690566921526       64.55409154095011
C           49.45306999965651       44.47889660201391       63.54235934224572
C           51.83072813962571       44.03747092486162       64.13143210102105
C           52.89949435676719       43.45921224239966       65.06462345715610
C           52.72167544174609       43.97328413542230       66.49399916407813
C           54.31408997363356       43.81174847585964       64.57866310037359
C           54.70720036111831       43.31030683301904       63.18202182854746
C           54.43913845611875       41.81413236957358       63.02379180723009
C           56.20123234059381       43.56712775560025       62.92344452343289
C           56.61011802392352       45.02605827330314       62.67624774458228
C           56.14207167755873       45.48218131802542       61.29508587362752
C           58.14096923500630       45.18223506635977       62.78849395134894
C           58.65271664408472       45.82946038818736       64.08524440107502
C           58.19342314432669       45.06644732279857       65.32439219514046
C           58.27040885023354       47.32007467287234       64.16556215962686
C           59.40432643021806       48.25215698273546       63.71732782704682
C           60.44125762778466       48.37376791755941       64.83383372110504
C           58.91626258827588       49.66122539972082       63.34453438215170
C           57.95627602159099       49.75158471630103       62.15200132792369
C           58.50912971036291       49.01017285333759       60.93466305512550
C           57.69205501809038       51.21048088494188       61.74673359449042
C           57.07854122399532       52.13539188750762       62.80634855185994
C           55.83318855082830       51.52271722906693       63.44514927612580
C           56.68748972875120       53.48107587537017       62.17042060634240
C           57.84832327451217       54.37675805156881       61.72602014655147
C           58.65277027392197       54.86202152301134       62.93211491105396
C           57.34582744487767       55.60869797077153       60.95503388321741
C           56.62368781037541       55.36189120012661       59.62334176063309
C           57.44512160250253       54.46384572251566       58.69968853102447
C           56.35327818548177       56.69688952687869       58.90728246704352
C           55.22023287027686       57.55562167022352       59.48491864845973
C           53.85653091522649       56.95515281514646       59.14807658928258
C           55.31775228425066       58.99290320925216       58.94021027955365
C           56.19624757457692       59.91274039333893       59.79955612930961
C           55.40228596984173       60.40315756219741       61.00999388163151
C           56.70570345073578       61.12996281883884       59.01266813329965
C           57.82063204696723       60.85596531849063       57.99683954442742
C           59.05529806946411       60.27160264993285       58.68080188638056
C           58.25345879386453       62.15057807719089       57.29046041278212
C           57.19436278668631       62.87012162407950       56.45053045737593
C           56.63339625410178       61.94138744541726       55.37507416216408
C           57.78533586882808       64.10827206597172       55.75594924774266
C           58.45987910649907       65.14905580165011       56.65810467536158
C           57.54398441219425       65.58612241696747       57.80091725237641
C           58.86822449013346       66.39370887518693       55.85328872116873
C           59.84276445427524       66.16161516893874       54.69433513831639
C           61.16237010746434       65.56701804384282       55.18687214055846
C           60.15204411045809       67.47155910472553       53.95462923943494
C           58.99275708771534       68.15564596233315       53.21944847449593
C           58.38084121487198       67.23427416309167       52.16671722720117
C           59.50392017759514       69.44533742946163       52.55536172900476
C           59.57430351114454       70.65024054291042       53.50467726872009
C           58.19763819949531       71.30718168755496       53.58503101737844
C           60.62807904587037       71.66131562673647       53.03637736375625
C           60.99955014324713       72.70490037419562       54.09902780528441
C           61.69364192088638       73.88984541126891       53.42749808128708
C           61.89313539649763       72.09789347379446       55.19836359425322
C           61.43202007446856       72.38072231033270       56.63374089016509
C           61.33972701991864       73.88084880738377       56.91459206294941
C           62.40414762063965       71.76815673340917       57.65304321560095
C           62.50498887486705       70.23715890994974       57.69963469257659
C           61.17835584760780       69.61328830209395       58.13141519359056
C           63.63817840317085       69.83287710413911       58.66703216400683
C           64.67775298005496       68.84172878010465       58.11778047427930
C           65.42471674697487       69.42071379179134       56.91731541057063
C           64.07253097352040       67.47363432618732       57.77710972865884
C           63.79906561752430       66.61837936036038       59.02431171905202
C           65.08367294993488       65.91434257696932       59.45769718006825
C           62.67339221159762       65.61110369924651       58.76683075686839
C           62.17319563852298       64.86201051298180       60.00984695083473
C           61.18481143411487       63.77996342028871       59.57560650511868
C           61.51142889684250       65.81745539803599       61.02120294559688
C           62.39897628455989       66.19980151420046       62.21380372994401
C           62.48631115572672       65.03787298070601       63.19985929100298
C           61.86480760428767       67.45977907726852       62.91091093096770
C           62.93816416565144       68.22949852034984       63.69188564781189
C           62.28054263891765       69.20219821643147       64.66989562547151
C           63.86825466326393       68.99097677079577       62.73479335632105
C           65.31209505302952       69.13423457083388       63.23480284672046
C           65.99952652589423       70.27562797842126       62.48760725449966
C           66.07014096448778       67.81543135476289       63.04340217568571
C           67.41060814852429       67.75448720246797       63.77185444593162
C           68.05123320931895       66.37778804112959       63.63882482113962
H           45.88872197091262       43.93949939542676       65.56559246471296
H           45.83438667613357       42.41937128232532       64.66963724294496
H           44.68878260449817       42.71285132985079       65.97159816545283
H           69.00295876458723       66.34383456973208       64.16419675217037
H           67.40143006963972       65.61117822662747       64.05559646261383
H           68.22803149203160       66.13879092045876       62.59211598102015
H           65.44895530793204       66.99325139563490       63.40601248474544
H           66.23357138253574       67.65286662717176       61.97516156725571
H           63.90233375862279       68.48859168482927       61.76682317453525
H           63.44663271226602       69.98399827894204       62.56370751021991
H           63.52808686517634       67.51352886241472       64.27195061950492
H           63.03286195191573       69.78598581367027       65.19591083053646
H           61.62581559646544       69.88852153243113       64.13608384694885
H           61.68406692258801       68.66908270445222       65.40676253662863
H           61.43900348750834       68.13928873193268       62.16845166936150
H           61.05886942756607       67.17200763256049       63.58939262404389
H           61.20269868522307       66.72322897603422       60.49474044163584
H           60.60314471610543       65.35943284224889       61.41763318998326
H           65.29691770368977       69.37764756747245       64.30295317936120
H           65.46821747621419       71.21113854318628       62.64957981964570
H           67.02319375061185       70.40709251847980       62.82733353245775