3864
 energy: -5104.263915694826 gnorm: 0.000975691712 xtb: 6.6.1 (8d0f1dd)
C           42.53672950342087       44.82781130325096       70.49889825499764
C           43.57602436368195       45.70698067701497       70.22086922587695
C           44.82735304947512       45.17912637062152       69.92511621100772
C           45.03286808995130       43.81125023069701       69.91342030524409
C           43.98759117720978       42.94491204455295       70.18460015728012
C           42.73589695934439       43.45861394725228       70.47620267359110
C           43.34987198905009       47.19551588357655       70.28980133583146
C           44.17459656226846       47.79107654815809       71.43560064631914
C           43.70045028540326       47.90590161321062       68.97673977613840
C           42.94436633656345       47.36800942711945       67.75316127062953
C           41.46714742413730       47.24877889335960       68.02827406666763
C           40.69447612059469       48.36621968393140       68.32606178782895
C           39.34364782009506       48.24270720659381       68.59313724488311
C           38.74063962709937       46.99672187425199       68.56919446850706
C           39.49376788243196       45.87988758755363       68.25478753727455
C           40.84475777037473       46.00832408300593       67.98411671962350
C           43.14954984141789       48.26889191299345       66.52462964635487
C           44.58115661113599       48.27570676608386       65.96640947171996
C           44.70079125647570       49.41820668848031       64.98912089693948
C           43.98903406051859       49.39821625054318       63.79496887172219
C           44.07212422426582       50.45344878103679       62.90673388712545
C           44.86231108278781       51.55132630118456       63.20272814873712
C           45.57118112689170       51.58646087190889       64.39008311561328
C           45.49147040034833       50.52324797410811       65.27314285938331
C           44.95977360804621       46.93125495895188       65.31592280724126
C           46.21413453501425       46.29589102857690       65.93601892499451
C           46.34477396942027       44.87217956519986       65.45444739562990
C           46.13748070345945       43.81836093127155       66.33531233254374
C           46.23576776781329       42.50464228155462       65.91115609379456
C           46.53272369371679       42.22205020233999       64.58929134824220
C           46.72516501043391       43.26288031118398       63.69696511422471
C           46.63577094259663       44.57360824489184       64.12846161361500
C           47.46933165667610       47.12078645224172       65.62504721269239
C           48.72282083738259       46.53045643056938       66.28366848612360
C           48.56832336091347       46.45179118788911       67.78139044527816
C           48.62704125244019       45.22604106600765       68.43356136541769
C           48.50725865313775       45.14590471505651       69.80988929851587
C           48.31201703220841       46.29378682939027       70.55946973245179
C           48.24195973924395       47.52085975927498       69.92184399759616
C           48.37318529600984       47.59579705522368       68.54687698580476
C           49.97065239297781       47.34432674544899       65.91044303054852
C           51.25766545096449       46.63249546931262       66.34978879232256
C           51.38616012783395       45.30804075370618       65.64077823788135
C           51.48836682966736       45.24433653492741       64.25568893519824
C           51.57024649293061       44.02666152420049       63.60676422757668
C           51.54702741225492       42.84758180128803       64.33259646365786
C           51.46010815278012       42.89750946266143       65.71276353847220
C           51.38381319690340       44.11906884518710       66.35933771111111
C           52.49310650213415       47.50810376068269       66.10155429706973
C           53.76328753186930       46.86995904881454       66.68303876583441
C           53.65645006473720       46.70254000875021       68.17610147420216
C           53.78052151027714       45.44605328438472       68.75568380129251
C           53.68018254248655       45.27974856770603       70.12572920418711
C           53.45155716126425       46.37388375638603       70.94157473695417
C           53.33399679068460       47.63275574802870       70.37675151737476
C           53.43910204439341       47.79508415816348       69.00785001272037
C           54.98867299232574       47.71435646033967       66.31156916486091
C           56.33448985497164       47.14677601633655       66.79800917813995
C           57.37260490430804       48.23249215457930       66.66280697851737
C           57.80540554610605       48.66784538702679       65.41694495962658
C           58.74019018017694       49.67798096232646       65.29983921413672
C           59.25512361377811       50.28300895114295       66.43300312405589
C           58.81996788694194       49.87207570930527       67.68033096007017
C           57.88496581646768       48.85804317747343       67.79095369315580
C           56.71388256148846       45.86752989217911       66.04080766319998
C           58.00560537230280       45.20820928625676       66.54952110025967
C           59.23525763275521       45.98433882837248       66.15241870469573
C           59.60011204033710       46.12575693414513       64.81817666807346
C           60.75270369662356       46.80234169220221       64.46491103330843
C           61.55742995341281       47.36217851565865       65.44179239139173
C           61.20190632041717       47.23663751200527       66.77273845390016
C           60.05414653778836       46.54769831797594       67.12176535014940
C           58.08697592100950       43.76432295251646       66.02336795781721
C           59.39159801933511       43.05746151770229       66.41949082222072
C           59.49745859326465       42.95479308510178       67.92039912395472
C           58.55089007220454       42.25249190940230       68.65864027659227
C           58.65153226485738       42.15786351339270       70.03440253480585
C           59.70639972927079       42.76136520816826       70.69847632597882
C           60.66128563745109       43.45326569514428       69.97390354357344
C           60.55627807602056       43.54623039933700       68.59686050233377
C           59.50032532574605       41.65663484888522       65.78075819487150
C           60.40991787302855       41.59884592611152       64.53950164761341
C           60.63497459840515       40.15002943869452       64.18522430207285
C           59.58249831994890       39.34755708535642       63.75925929942634
C           59.77741441072545       38.00637829782719       63.48518801602825
C           61.03311645340249       37.44111277407941       63.63453564235215
C           62.09101620479665       38.23152770713300       64.05064331594652
C           61.89135124120981       39.57454829194116       64.32245550875552
C           59.82416311176978       42.39106635653065       63.36478865310256
C           60.64321380207794       42.25123255711048       62.07646524838154
C           62.09301152109201       42.62206706679462       62.26817042428544
C           62.46231702254810       43.84085104267331       62.82639274813359
C           63.79437914441541       44.19300574041840       62.94346450256995
C           64.78450728344023       43.33071573274728       62.50405133014122
C           64.42974214648272       42.11403316394815       61.94750108535399
C           63.09544294598869       41.76681666957258       61.82859279880010
C           60.09303271003252       43.13799360032385       60.94485001044806
C           58.63396054121601       42.88547327445918       60.53578066833983
C           58.21370801149108       43.92316075854396       59.52226183642576
C           57.13072572976807       44.75813682913312       59.76495861980708
C           56.71482313693089       45.67718088636081       58.81722167717141
C           57.40010844538146       45.80104890183668       57.62215291028305
C           58.49748723750636       44.99316562314317       57.37908369475208
C           58.89011078937241       44.05396613705135       58.31515651780247
C           58.43046516476360       41.47735089109577       59.96311414790643
C           56.94811471107271       41.16480456484749       59.69774246238060
C           56.21566119324829       41.05671728974918       61.01061868160816
C           55.28405041179943       42.01997999818068       61.38047945420718
C           54.68904279650615       41.99327433787603       62.62974599007289
C           55.01346070929100       40.99519681609753       63.53242924870814
C           55.90510602352937       40.00378933383491       63.16078982926862
C           56.49719058744534       40.03471597416121       61.91049459931762
C           56.82368729129547       39.89789926920450       58.84623432273873
C           55.37726764636112       39.57827478945336       58.45175869012522
C           54.75986059711919       40.70430394521960       57.66113548696750
C           53.66029389346291       41.39585919216494       58.15242680598944
C           53.05226943847016       42.38997316445447       57.40532048299599
C           53.52590502438631       42.69314398667991       56.14158214863694
C           54.63603094507049       42.02808835002101       55.65019145368702
C           55.25240747733797       41.04872665743285       56.40680684324645
C           55.33248497537176       38.27998153441707       57.62873370099373
C           55.38449433785401       37.00507013118693       58.49192051654382
C           56.31400359245379       35.97769099140924       57.90105241972918
C           56.15744904535977       35.54430777302955       56.58917840264038
C           56.97986431126508       34.56212349445146       56.06889665971573
C           57.98499326937400       34.00730329720148       56.84275484633265
C           58.16690311650713       34.45037937004175       58.14086605431488
C           57.33373907713606       35.42396164331296       58.66473480203302
C           53.97075350704411       36.42020209646935       58.65041473887763
C           53.95574948133508       35.10020627933005       59.42229969785305
C           54.47195025097866       35.20678278216603       60.83552412517128
C           54.31033608500519       36.34163771348332       61.62187590251130
C           54.75539023901581       36.36742706441084       62.93234716714633
C           55.38127244954165       35.26307431770302       63.48158939989735
C           55.55863309425428       34.12870831787372       62.70668930411209
C           55.10561229831839       34.10477066222137       61.40078136181886
C           52.56419784695022       34.43203359644065       59.41375804825267
C           51.49181087920866       35.15053981057633       60.25460522155954
C           50.69176848612291       34.14091565943696       61.03839700300578
C           49.94204522589536       33.16331063275204       60.39351720305753
C           49.21218349397309       32.23810891035030       61.11701453988731
C           49.22214925197126       32.27196744985324       62.50155881727734
C           49.97579520949961       33.23169536934686       63.15491792513604
C           50.70562939743698       34.15544300081607       62.42707776330096
C           50.56197771616348       36.02850603338218       59.40343952796039
C           49.63806920085098       36.89003518026639       60.27973784792336
H           42.28872586436454       47.36688460311134       70.50477026233887
H           43.48560067826536       48.96858650813089       69.09918588853171
H           44.77195296581969       47.80395050182349       68.80406343022159
H           43.32699146829815       46.36634290898559       67.53051297490791
H           42.46055736233777       47.95074303411607       65.73852588440391
H           42.88154857821855       49.29393938522161       66.79272971957826
H           45.26164646771380       48.47075053571519       66.79881427235715
H           44.13043026012933       46.22692570504960       65.41429401351152
H           45.13294141844192       47.07492569100255       64.24810531526117
H           46.08081146972066       46.26797299706764       67.02393746237648
H           47.32280569322383       48.14545615707512       65.96674118657403
H           48.85405128424486       45.51190628579623       65.90022494296635
H           49.98432085552882       47.50058528326719       64.83057512773784
H           49.92482417193259       48.32482396511300       66.38695904897186
H           51.18740731899971       46.44535239271325       67.42834685487243
H           52.63283450329968       47.65177067300397       65.02884673008356
H           52.33741085712812       48.49029084625106       66.55096720141512
H           53.86677386891269       45.87744656050065       66.23277287270500
H           55.01940497000547       47.81080646395659       65.22641864154684
H           54.86927086545032       48.71859648405781       66.72526002989949
H           56.23562821353567       46.89726220514564       67.86120122626222
H           57.96451379045121       45.16977192759221       67.64453020463918
H           57.23944172322762       43.20238225689883       66.42019421643812
H           57.99691601930012       43.77022537627627       64.93784855794483
H           60.23311398761451       43.66307269806371       66.06790737465307
H           59.91118596018359       40.96375442932070       66.52054153681115
H           58.50565187315457       41.29493714354820       65.51495329802250
H           61.37897999976720       42.03741090463883       64.80468359936110
H           58.80877988151208       42.03970132061837       63.17584199648055
H           59.77725316493220       43.44305751769694       63.64372885811429
H           60.60950034504051       41.20528931823463       61.75566425860758
H           60.18740473344889       44.18433209544290       61.24966409859960
H           60.73664424438812       42.99322333394773       60.07406905418116
H           57.99372653302427       42.99508189704430       61.41691199493479
H           58.99082912076947       41.38348426416547       59.03093332723753
H           58.82983182779108       40.73952995608749       60.65956559080927
H           56.51854940550497       41.99739423807423       59.12831992214107
H           57.42045181529667       40.03443912481787       57.94138012427585
H           57.24134436891153       39.04492911383023       59.38342757152997
H           54.78976013596107       39.43766301396026       59.36661260333108
H           54.41560378483879       38.26852452195727       57.03643416742452
H           56.17290134367199       38.27841583308268       56.93249696043002
H           55.75850312703454       37.25763462722125       59.48920150072826
H           53.34076012891574       37.15994484339097       59.14202587398356
H           53.55004817018980       36.23343938340187       57.65952624929115
H           54.61789422207475       34.40632507464708       58.88992804740870
H           52.22884224829016       34.33910445978191       58.37901752670492
H           52.68922139680630       33.41774847238171       59.80208455485553
H           41.55719523987997       45.22079027572204       70.73520028468363
H           41.91358808922156       42.79129388644071       70.69263161090842
H           44.14820795143028       41.87638441034114       70.17366312719265
H           46.01734073009243       43.41987424188031       69.69871108115753
H           45.65873149361389       45.83585484359505       69.71248837899458
H           41.15136428846630       49.34418683365482       68.35460295004832
H           38.75377417619629       49.11826848371276       68.82648243733732
H           37.68980567918614       46.89714603918681       68.79300651024909
H           39.02875418567591       44.90428980654779       68.22632726408008
H           41.42917068267729       45.12874305001908       67.74905187693243
H           43.35801297216312       48.55272495251147       63.55951620179498
H           43.51312374089630       50.42128637502491       61.98432516050986
H           44.91296292031334       52.37716690959647       62.50997703851919
H           46.18558811997170       52.44102992591898       64.63674810555361
H           46.05051950634244       50.55648290993371       66.19714652953729
H           45.89326222990601       44.02977576200460       67.36691985183300
H           46.07613712013622       41.69953222813898       66.61540716942713
H           46.60826903525066       41.19719072078905       64.25463907338921
H           46.94358907531631       43.04782657685944       62.66108046681390
H           46.79258461382850       45.37380432965061       63.42103048130276
H           47.62502796004971       47.16214545553435       64.54574651393096
H           48.76726301166919       44.32448023770662       67.85275733884043
H           48.56526587551816       44.18514441306932       70.30300694605344
H           48.21221232005809       46.23097269931914       71.63382134501467
H           48.09171517373083       48.42313256267834       70.49808171689033
H           48.32754775509814       48.56335678908466       68.06933272279514
H           51.50093186062746       46.15357398297157       63.67324684261509
H           51.64322807834618       43.99578314979800       62.52948455098141
H           51.59547024113797       41.89427634089561       63.82646251294801
H           51.44616902192862       41.98174931754086       66.28879823019341
H           51.31591131627022       44.15382174653634       67.43865968116765
H           53.95592728020440       44.58461317100912       68.12607307885757
H           53.78042077570485       44.29426740665228       70.55886076816518
H           53.36883424020525       46.24697081816301       72.01162643815918
H           53.15996764680907       48.49114310225144       71.01020097453089
H           53.35712686990368       48.78450681946872       68.58176314641585
H           57.41530700280927       48.20775327488346       64.52264263228356
H           59.06714377662804       49.99950011917960       64.32107524207024
H           59.98790499309992       51.07280698399034       66.34572451888783
H           59.21226014277400       50.34250906175453       68.57171559891775
H           57.55089597169439       48.54394525186208       68.77115966635000
H           55.90147800074253       45.14862452281154       66.16011910894206
H           56.81305030453955       46.08001055261622       64.97594257806075
H           58.97931774094150       45.70394406579157       64.04076208312971
H           61.03081197646975       46.89883885292809       63.42544297748236
H           62.45675459745154       47.89302378582692       65.16385228781228
H           61.82213170681391       47.67216470141933       67.54386678920675
H           59.78867473523580       46.44659234672856       68.16523351832409
H           57.72856704389918       41.76806507971786       68.15316458277327
H           57.90591895995119       41.61019169640231       70.59323903170234
H           59.78557127617048       42.68900079801745       71.77357149657486
H           61.49136739461930       43.92220970986661       70.48324319552752
H           61.30620809362108       44.08930489045754       68.03828796480559
H           58.59981678819238       39.77701115706663       63.64243800397453
H           58.94861029175541       37.39429613721119       63.15724063607773
H           61.18764974131411       36.39311566061920       63.42144559548548
H           63.07593983597209       37.80036624586021       64.16353204108418
H           62.72401925571528       40.18494638308181       64.64498785052314
H           61.70837780265764       44.52905968429705       63.17784108330955
H           64.06002283952500       45.14701959190801       63.37712939472866
H           65.82621667443595       43.60511872016112       62.59550709997689
H           65.19717464277068       41.43355763551299       61.60395544288592
H           62.82772492033376       40.81859002542888       61.38359720445001
H           56.59761115519451       44.68688064586997       60.70283667777587
H           55.84646023856357       46.28835478440888       59.01406628642192
H           57.07532065245194       46.52051413411609       56.88496692857899
H           59.04925937481313       45.08443737257541       56.45505640684730
H           59.73810868274380       43.42095291835880       58.09863962410756
H           55.03119470072279       42.80497479582812       60.68177426155014
H           53.97254979960954       42.75179592975287       62.90950491389899
H           54.57395465797274       40.99241137784376       64.52063186358784
H           56.14966396163344       39.20851081847718       63.85237907820120
H           57.19646983313407       39.25548131245978       61.64265374778921
H           53.26981542939807       41.15222551175069       59.13119575163568
H           52.19904653433079       42.91651345492779       57.80833419564569
H           53.03268506137756       43.44315165301926       55.54255167184940
H           55.01749827179157       42.27135401494603       54.66873372046751
H           56.12249348039860       40.54337406958471       56.01517782684882
H           55.38756624415529       35.98070347117964       55.96909127671972
H           56.83629979926003       34.22237934881613       55.05417957041594
H           58.62685670212967       33.24229815103973       56.43044068361235
H           58.95552500030664       34.03347716213289       58.75261752402854
H           57.47306438777642       35.75015717547446       59.68662794296636
H           53.83442700504602       37.22623973628146       61.22752175319481
H           54.60456577290555       37.25882747573807       63.52405894317035
H           55.73142371438360       35.28342365042337       64.50403824380525
H           56.05033980162879       33.26066233485066       63.12349931617061
H           55.24684589331757       33.21325853790250       60.80464365636176
H           51.29778988935284       34.89884715970488       62.94315288505878
H           49.99589601740615       33.25945559573433       64.23538266858971
H           48.65027815683904       31.55081370518792       63.06761377887921
H           48.63386759557846       31.48488088015955       60.60080367545446
H           49.93600059860483       33.11870486787006       59.31424047184507
H           43.91609453181184       47.31163802827750       72.37770247487487
H           45.23796486991630       47.64704947073495       71.25820895508741
H           43.98263015016839       48.85775403809892       71.52347539916957
H           51.99674351491694       35.79446880049449       60.97923618668428
H           51.15379235164994       36.67142130200606       58.75259335977179
H           49.94746862437611       35.39548315454032       58.76047118179221
C           48.72832206108927       37.76307448066499       59.40675540858219
C           50.44236254382331       37.73315383732933       61.23587572081962
C           50.24273726190592       37.62280457024504       62.60592436476066
C           51.01106299973114       38.34964034118757       63.49853954081084
C           51.99302151794816       39.20341192556191       63.02956032339819
C           52.18477490459401       39.34470098551559       61.66575985984838
C           51.41343366491060       38.61742858678759       60.77699342163109
H           49.48342101870795       36.94858505395138       62.97879267336123
H           50.84702029334778       38.24191184168468       64.56198263361438
H           52.61332870440722       39.75317404443638       63.72134542409162
H           52.94855716124940       40.02073019709273       61.30605267758472
H           51.57757300285138       38.72660117895676       59.71370915716014
C           47.63049987619159       38.46280779405929       60.21444901910515
H           49.32806630101435       38.51627468733929       58.89551572167462
H           48.26728842720224       37.13434127326028       58.64303874762778
C           46.78347535457598       39.34287901972230       59.33720254372442
C           45.92159372732103       38.78636314704728       58.39846200920587
C           45.14683079230776       39.59207677152772       57.58321154076945
C           45.22664261180118       40.97094005790387       57.68847493017164
C           46.08199979905730       41.53557770911991       58.61727183549480
C           46.84955488681576       40.72634817304981       59.43661577540895
H           45.84846632432337       37.71011253091965       58.31574857733389
H           44.47253878243358       39.14274990893358       56.86675620582889
H           44.61745322917038       41.60429202623130       57.06078361336229
H           46.14566106479785       42.61028699219130       58.70604182869447
H           47.50812742672285       41.17488184920298       60.16610580895443
H           49.00600532976319       36.21367218609254       60.86842999178240
H           47.00154869158138       37.70507157131463       60.69155220260250
H           48.09042183569555       39.06359019811792       61.00228456828100
C           63.03610136211113       54.98010640665922       43.62687706116471
C           63.15243805700197       53.60557487214911       43.79694039957790
C           62.18546159253329       52.78512400408471       43.22957357106025
C           61.13237451035311       53.31752620225812       42.50737580254535
C           61.02397899028602       54.68798775970313       42.34625476820415
C           61.97947325393088       55.51555352636201       42.91142684895408
C           64.32681009732468       52.99029863762095       44.51742809133655
C           65.56392820263092       53.08031171747941       43.61736886496823
C           64.60298880991741       53.64181302011948       45.87790957604476
C           63.39415496979385       53.56897503480645       46.82040113819957
C           62.98892098617505       52.13546641805678       47.05921094503054
C           61.73466415563313       51.68567619287381       46.66680770179752
C           61.35226922895878       50.37344683930448       46.88379270918526
C           62.21951429581332       49.48846376087857       47.50036630574165
C           63.47196175137613       49.92595915240624       47.89569618785526
C           63.85136426717136       51.23795048548823       47.67799880667842
C           63.68148297238942       54.25122892184892       48.16817241344872
C           63.74220072432417       55.78660326227064       48.11665714618496
C           64.37278715655400       56.29275837707647       49.39103171759696
C           63.72682575983359       56.17662465949783       50.61659282443757
C           64.31281360826435       56.65658755871955       51.77298643425288
C           65.56261999545680       57.24978641306242       51.72886498168738
C           66.22395946768707       57.35570144236114       50.51783520606363
C           65.63071165473802       56.88150020968298       49.36113850009222
C           62.35855513969148       56.41033510679637       47.89781759035510
C           62.40721131151200       57.94336757937842       47.93851321189727
C           63.30632634046171       58.48899910609475       46.85994716320537
C           63.04850375404796       58.24521724579189       45.51594883106477
C           63.87503752715229       58.75395798573778       44.53087123381665
C           64.97789477844550       59.51768486177884       44.87362860190347
C           65.24722366159919       59.76542945022707       46.20880574351166
C           64.41761122664471       59.25376054326681       47.19131228686966
C           60.99987611308756       58.54962861033823       47.83455737740917
C           61.00172521647598       60.04375841820048       48.18928669227644
C           61.53626230256918       60.25113543825327       49.58566831435947
C           62.65372394391464       61.04750596993141       49.80382774677339
C           63.15438991238924       61.23899939107120       51.07984371586857
C           62.54582858662592       60.62922484485003       52.16349264895867
C           61.43414795652826       59.82971733177310       51.96081334682049
C           60.93461838198777       59.64793355933021       50.68440169999432
C           59.59035817626776       60.63343999043043       48.05479309256392
C           59.57034747733569       62.14919569772479       48.30412265639770
C           60.22299535808883       62.87787223434916       47.15516790513536
C           61.40854320735723       63.57671347645719       47.34342504030933
C           62.02320018797450       64.23607857957330       46.29286893817041
C           61.45399824676269       64.21396512780251       45.03170401651469
C           60.26496273709619       63.53271067985559       44.83390814348224
C           59.65703277997227       62.87143005242439       45.88490258933607
C           58.14674266065036       62.68967562777951       48.52033918063450
C           57.47638531793005       62.21087441357722       49.81661101083649
C           55.99693838893506       62.50713746626700       49.76505556480745
C           55.09619074567287       61.46381481465454       49.58593069822086
C           53.73229765686470       61.68678591930366       49.61588926841890
C           53.24832794702134       62.96822487537074       49.80640356117686
C           54.13218274708695       64.02579956674823       49.93601660044958
C           55.49645981157791       63.79532479326613       49.91515988484159
C           58.11929012376635       62.80505579638788       51.07734539180532
C           57.46235797368920       62.25463718950746       52.35506954700113
C           57.69878913503236       63.15496114253398       53.53927466100133
C           58.98460182766294       63.53412134302624       53.90853813219999
C           59.19595300414609       64.33901867435740       55.01310724667734