3536
 energy: -3716.276705550162 gnorm: 0.000708266899 xtb: 6.6.1 (8d0f1dd)
C           57.80558425918210       41.52278648455792       47.89665777037207
C           57.09288208057257       41.29974489553810       49.22930323407105
C           57.40051991256262       42.45890150538344       50.17170312867111
C           57.52116002044242       39.94373065982366       49.80420523508992
C           56.98704672862798       39.57604386802717       51.19637251095462
C           57.58415067657566       38.22949663313138       51.60447113599574
C           55.45624071854822       39.53810407842217       51.21678139344503
C           54.78782280840723       39.30641461036127       52.58296035654941
C           53.28633648901193       39.14282479264073       52.34022820182171
C           55.07695972475744       40.47342945832745       53.53709617573267
C           54.50961727050704       40.35453777031320       54.96394704022018
C           53.95828412523564       41.71167281894056       55.40954148546215
C           55.55455109144000       39.89387096268149       55.98976794008741
C           56.11044843867843       38.47661470881837       55.81989119314319
C           55.00175615233626       37.42690818015448       55.90874987269335
C           57.15103779142991       38.17622323120109       56.91111418867216
C           58.48608528692942       38.93092618892482       56.82152496236238
C           59.23211143598343       38.55012807945552       55.54319330120435
C           59.32962202056940       38.62769016638719       58.07631700349825
C           60.09151947383421       39.82812396441854       58.66025606688624
C           61.21299193788187       40.29144299422939       57.73456895842723
C           60.65765913997581       39.44533883924020       60.03623614199383
C           61.09525780984508       40.61767282665198       60.92889894803096
C           62.02692753604293       40.08512233011822       62.01792096787129
C           59.87568447020339       41.31945231341638       61.54070099162706
C           60.17349369309856       42.65733174883307       62.23424367507504
C           59.00633770754401       43.03178655835497       63.14745178788589
C           60.43926429580201       43.77298170432387       61.21365523313560
C           61.32034072329295       44.92210365013990       61.73061203011657
C           61.19306285518258       46.12018418723824       60.79220683210723
C           62.77691134245470       44.45538921885657       61.84151111166070
C           63.82049136767306       45.48789174066776       62.29767637355279
C           65.17597011685812       44.78060453788059       62.37216749204804
C           63.44200296035959       46.11613589570801       63.64505829820207
C           64.44868531077421       47.12732125169814       64.21359088022844
C           64.13324632444895       47.38916751621689       65.68652157042737
C           64.44530425331597       48.44730955457259       63.43131987148630
C           65.70723153028115       49.30389618475243       63.66249338372857
C           65.35351807594367       50.62850097078679       64.34031094187382
C           66.45866579633459       49.59541466055757       62.35539642448609
C           67.00404672174254       48.36864735745123       61.61512912716490
C           68.11498495327568       47.68437202177186       62.40974036584530
C           67.52740319933194       48.76608900217773       60.22510745557415
C           67.43259844381704       47.63286553082310       59.18898975061924
C           68.47496993309852       47.83451051999656       58.09209319513467
C           66.01346775027058       47.59398328677912       58.60949804208498
C           65.67052868329553       46.43406574265583       57.66385500389605
C           64.27872077799456       46.68062315662134       57.08112604864710
C           65.73389313871233       45.09406313035375       58.40398214943239
C           65.39464029702864       43.83726433426929       57.58796400484115
C           65.45601639139363       42.62512723128039       58.51857599722259
C           66.34591389134468       43.68802433355350       56.39260397225182
C           66.26329216993580       42.36951724281611       55.60748929657655
C           67.31691137939268       42.38908976129360       54.49965410853198
C           64.86241095220868       42.16780960048716       55.02319308094035
C           64.56290059531005       40.80407283515402       54.38214791309884
C           63.17121360489886       40.88540503933299       53.75705643585600
C           64.63538354789880       39.68671208633526       55.42976798180081
C           64.29373644546993       38.27677995050280       54.93062070966868
C           64.19128688699992       37.33165937150824       56.12933621483383
C           65.32664231279212       37.74822949933845       53.91610352542945
C           64.77880313812216       37.49631595251130       52.50409445430622
C           63.71275136102098       36.40219162479026       52.52027316760030
C           65.93451259464064       37.10168022106395       51.57314038851300
C           65.61359207426233       37.18707679010389       50.07347660777490
C           66.58035236270284       36.29876433948955       49.29070864297156
C           65.69864322329437       38.63709720427923       49.58086976539918
C           64.93854338203347       38.91595707957124       48.27393850963208
C           65.48423784940643       40.18948266017282       47.63237197799670
C           63.43620733241239       39.02735405498522       48.56236544456642
C           62.51477331725056       39.39547779467422       47.38935119380316
C           61.08397112702848       39.47399092760857       47.92190453274224
C           62.62211750946422       38.38992375840311       46.23694757122265
C           61.83614462353511       38.75797783208168       44.96829947379505
C           61.73006260099530       37.53113833704813       44.06214542520951
C           62.50608307347071       39.91694279723336       44.21831857454788
C           61.58246613857445       40.71284838744806       43.28172898166748
C           62.43477338095395       41.54402898570968       42.32248380671363
C           60.63759330922478       41.60108070480702       44.10103329973981
C           59.68589837862594       42.51759014415507       43.31666292334063
C           58.88807534900130       43.35000644595113       44.31862786309389
C           58.76340235194815       41.69886908977890       42.40631835013083
C           57.68962292756816       42.47531336344414       41.62649349412963
C           56.85554221325405       41.46698487312660       40.83417318041376
C           58.32219296713841       43.52949854147115       40.71030985970246
C           57.35740033846300       44.28241833997041       39.78333862982817
C           58.15356325321557       45.25174727936005       38.90709599437524
C           56.21586235144161       45.00270640199893       40.51654518326119
C           56.64427599245069       46.05120952739913       41.53982488341723
C           55.43953478539996       46.77407414195316       42.12907016376352
H           57.43872963499179       42.42436684644633       47.41167503950194
H           58.87610266360437       41.63185967234722       48.05406626175760
H           57.64212014387174       40.68209116196311       47.22539062097301
H           55.75475443253211       47.46884937433657       42.90477788372193
H           54.90770535253951       47.33135283549819       41.36085811582117
H           54.74426119012175       46.06225248923924       42.56893352057393
H           55.58893091527594       45.48776327332753       39.76203498627201
H           55.59139456793224       44.26062964347175       41.01900503208361
H           58.85081922017440       44.26189382927532       41.32236112778454
H           59.06844065806686       43.03389763366731       40.08168939916151
H           57.02877875189038       42.97594763060919       42.33848222545321
H           56.50800299752405       40.66803231326456       41.48677921688764
H           55.98225723848443       41.93601055317472       40.38944730891532
H           57.45059941236605       41.02050810205110       40.03956706282922
H           59.37554441053845       41.16003171527957       41.67943960831163
H           58.25810867024859       40.95049821715925       43.02459813359224
H           60.02968975727941       40.96550619034088       44.74922819521148
H           61.25014494688079       42.23124581899679       44.75146209658102
H           56.89027011243443       43.55404999665065       39.11051404597200
H           58.71721893181260       45.95705906379340       39.51270940213999
H           58.86006066922774       44.70596070486435       38.28484493323816
H           57.48827194483518       45.81316651810566       38.25488666469423
H           60.28318692337661       43.19948478185535       42.70416950049058
H           58.22941924901034       42.71149781692777       44.90404060401477
H           59.55680837149428       43.86744657431932       45.00291096184083
H           58.28476384525965       44.09676759069028       43.81003030337144
H           60.99129333112476       40.00409921759938       42.69342060345098
H           63.00108124879559       42.29454069129102       42.87013029081945
H           63.13812765026944       40.90647479802001       41.79034584953442
H           61.81774330767439       42.04857921141353       41.58375342904119
H           62.93631683894586       40.61480083860386       44.93810477228594
H           63.33575366558233       39.50853033040212       43.63523596865996
H           60.82252284517345       39.04892424971722       45.25221627788998
H           61.21439350604258       37.77654279126956       43.13666813112205
H           62.72089362902949       37.15603117410295       43.81158019939118
H           61.17821948269457       36.73404536441731       44.55624582010020
H           63.67008572054021       38.27130382564259       45.95482579739537
H           62.26934589271141       37.42013771608147       46.59849818044800
H           62.79195114343425       40.39024231659834       47.03001835749453
H           60.40469306308083       39.87069729114574       47.17336710995990
H           60.73052241023159       38.48814068663209       48.21817611164350
H           61.04393868924181       40.12546000237649       48.79210095218460
H           63.09036019648939       38.07780074112058       48.97783017695939
H           63.30028857596282       39.78745511531589       49.33701592909254
H           65.11238600500383       38.08212696334170       47.58708090388486
H           65.29656721600846       41.04128962709662       48.28113433900820
H           66.55860981715369       40.10685856406070       47.47843298994584
H           65.02271018874772       40.37410705380766       46.66622233572895
H           65.31323016315119       39.30784808676521       50.35142352124006
H           66.75426837058714       38.88288679498254       49.43936721738974
H           64.60057349202738       36.81193818963477       49.90615623070705
H           66.40608306158519       36.38099161622142       48.22058441034856
H           67.60957697610371       36.59027478332554       49.49253512162692
H           66.45844205974753       35.25537274443526       49.57410655327251
H           66.79643769256177       37.74387225511965       51.77304025982188
H           66.23206912716542       36.07885599252540       51.81717523595546
H           64.32660435843597       38.42214919692948       52.13467761028883
H           64.13567871255327       35.47007410472829       52.89029370757424
H           62.87699761384380       36.67445644874974       53.15935675207773
H           63.32140138698434       36.22553501640972       51.52158870762543
H           66.15299790423401       38.45839156192665       53.84452874145231
H           65.74925717355370       36.81015081898718       54.28402033633982
H           63.30908935221655       38.31202798459524       54.45964369996487
H           65.14151234935835       37.27965387932099       56.65799517512577
H           63.43252812340794       37.67560740558398       56.82999765989577
H           63.92230763913965       36.32889348884556       55.80506478436917
H           65.64021220073786       39.65639420562405       55.85722848985931
H           63.94341472158334       39.94073616439864       56.23763077966569
H           65.28785029923029       40.60612996391357       53.58734733756364
H           62.42256679917661       40.99816414794246       54.53770617746444
H           63.10532954427572       41.74510527525973       53.09517343032407
H           62.93593978258694       39.99827681956856       53.17626268033273
H           64.12316005687174       42.32028239106641       55.81108186799348
H           64.70283398104314       42.94283015109610       54.27039538041386
H           66.50400580921514       41.54809479357390       56.28687796887747
H           68.30702022933478       42.56766624961471       54.91489128053061
H           67.34174200953156       41.44128952392209       53.96805203956881
H           67.10002351097877       43.17906581809105       53.78314962409736
H           66.15701121289250       44.50481524968475       55.69251604749914
H           67.37143359812920       43.79818297457480       56.75812361030704
H           64.36837199480804       43.92948952049419       57.22190722284210
H           64.84272587137937       42.79545318796425       59.40203198009762
H           65.08857310328122       41.72858323354760       58.02694965001159
H           66.47844539889918       42.44511220977358       58.84612508967395
H           66.73888912329954       44.96273439857011       58.81177703382708
H           65.04253788938905       45.14837468764721       59.24918534395852
H           66.39150844406529       46.42848949794718       56.84169017048288
H           64.03840635549120       45.95192633004532       56.31195044885530
H           63.52483091984686       46.62027543199162       57.86368693329018
H           64.22539996713076       47.67272022528189       56.63697349937625
H           65.29989589519835       47.57349887603043       59.43584303190305
H           65.85387161051835       48.52987806917505       58.06798492762781
H           67.64719343052469       46.68619064077617       59.69474882940168
H           69.47655099581760       47.85593127228623       58.51738976776565
H           68.44162738325770       47.02872507518199       57.36427339502692
H           68.30327678560123       48.77508117492005       57.57359899088896
H           66.96572952549941       49.62311409709157       59.84804293387950
H           68.56797012367768       49.08321532424991       60.32531809402315
H           66.19039811479716       47.65035257820973       61.48072527142363
H           68.91390598815123       48.38991846176920       62.63077199217027
H           67.74342619220963       47.28634379615247       63.35119779365752
H           68.53727138269861       46.85808472667465       61.84119968290286
H           65.77898038074694       50.13182362065226       61.68836835197775
H           67.29408027317099       50.26503287344593       62.57395411918831
H           66.38390570459482       48.76395721243475       64.33243445315152
H           64.84273518785297       50.45419895920121       65.28456776769829
H           66.25322011113622       51.20757461040549       64.54123282758654
H           64.69960962607740       51.22177324527902       63.70380684790246
H           64.34721186319237       48.23051746748342       62.36799511227050
H           63.55807493140865       49.01512335555553       63.72121035877861
H           65.44939230758153       46.68968845769377       64.16156541288501
H           64.84124184182296       48.09730245344053       66.11069483126613
H           63.13069220346481       47.79930659580830       65.79326514638586
H           64.19018145211015       46.46840372708644       66.26447873378673
H           62.47743885233874       46.61839814027370       63.55156638706652
H           63.31975219997275       45.30624245657467       64.37012484594308
H           63.88741851263284       46.27280171657634       61.53793103650980
H           65.19937648802414       44.09173996882836       63.21504061559843
H           65.35736534141662       44.20934851093730       61.46431018267253
H           65.99184279348533       45.48854384713126       62.48281833221029
H           62.82453775420569       43.61097086095342       62.53333474130962
H           63.08387502098807       44.08313304234620       60.85915246992150
H           60.96149198514663       45.21401026776699       62.72283173183207
H           61.75057501262319       46.97444579653028       61.16592937162680
H           61.56946688831237       45.86618861444617       59.80320482401474
H           60.15011413597739       46.41489628021922       60.69902599784745
H           60.91707564504463       43.35341887110882       60.32658829760538
H           59.47651475698848       44.18099942179720       60.89603370217359
H           61.05630295578852       42.53108634132607       62.86608871064238
H           59.18818275548399       43.98738416870248       63.63280966063631
H           58.08208707276832       43.10757301781693       62.57799221874131
H           58.86680505022917       42.28004216299583       63.92195963355263
H           59.13169480082712       41.49779956623150       60.76123821437039
H           59.42490725246427       40.63887369486993       62.26820225005169
H           61.65840594809266       41.33711979713332       60.32764240903663
H           62.37238474826196       40.88287898210477       62.66983388656200
H           61.51328050583709       39.34362858207861       62.62722494926334
H           62.90217438173039       39.61577330715708       61.57335593839291
H           59.90804421767515       38.86967652806560       60.58574510015395
H           61.51407380687630       38.78523546945592       59.87540100972459
H           59.37920265676000       40.65079765144579       58.78619617941590
H           61.87058037697376       39.45759280547303       57.49465628175292
H           60.81337341059003       40.69637052684271       56.80876713433786
H           61.81149391445996       41.06682874202376       58.20805460984950
H           58.66426723305234       38.25379713203588       58.85831115843887
H           60.03949327377851       37.82718596417187       57.85499213295965
H           58.27822483175411       40.00449794649087       56.80504788608594
H           58.72044759822248       38.93336705089379       54.66403347888773
H           60.24119364278539       38.95103267993518       55.54452278533021
H           59.30061952828791       37.46699016224419       55.45596440808913
H           56.68913861522990       38.39506181125155       57.87815634675738
H           57.37324630453218       37.10520556770064       56.89357427559296
H           56.58667027067655       38.39179323798715       54.84019868595002
H           54.27762417107510       37.54445960400407       55.10751175623420
H           55.42029085936679       36.42479498082465       55.83441736724021
H           54.47828401559715       37.50745212053823       56.85981150625927
H           56.38678874193788       40.59994446843105       55.96269287282833
H           55.10411382567617       39.95838359658678       56.98492038851710
H           53.67855444206165       39.64584367535989       54.97463108798797
H           54.74237088283775       42.46617391934450       55.38971864689051
H           53.15417449834575       42.03388255543117       54.75134099333954
H           53.56632300489526       41.65698456580693       56.42348268158947
H           56.15639845878826       40.61220207356127       53.61252348854240
H           54.66913729854213       41.37572016477706       53.07399302629678
H           55.16464056938003       38.37705122770846       53.01773105805299
H           52.87901188905792       40.04340446789248       51.88632920890765
H           53.10039274630227       38.30845238271162       51.66614658279663
H           52.74366593506568       38.95030479616998       53.26241694131374
H           55.07574614544308       40.48338183703262       50.82543094466418
H           55.12999341949138       38.74707296740442       50.53505358804519
H           57.33927664204812       40.32961166766246       51.90453923239765
H           57.29854121329831       37.96041843984497       52.61789223358757
H           57.24246241160322       37.44232932782966       50.93453438790567
H           58.67080282725885       38.26713541239685       51.56135667841674
H           57.21575079876973       39.16327892910339       49.10107709698884
H           58.61327289698499       39.92766437828534       49.85122245167842
H           56.01568213747579       41.28137169209224       49.03477073005721
H           57.17048901795265       43.40608828589789       49.68722542931718
H           56.80712259270124       42.39451923654973       51.07969329582514
H           58.45484928151697       42.45779674543488       50.43905254776328
H           57.20026387913597       45.57202651230256       42.34646132840074
H           57.30191922901576       46.78333324667117       41.06904631647418
C           55.06608301391415       68.68076995958668       46.06470998662262
C           55.65515517254424       69.21335150210325       44.76143634124941
C           54.82846333466343       68.70806402689439       43.57871826536511
C           57.11800140090842       68.78986871534427       44.57889306383105
C           58.09889184104174       69.27765496674650       45.65209992803022
C           58.08002335392219       70.80132662298467       45.78084095016060
C           59.53335554776748       68.83106142541210       45.32817234457404
C           59.77292988138812       67.31659050412937       45.26325582747164
C           59.43081923181342       66.65188930661661       46.59262962967249
C           61.23604929808050       67.05173440403786       44.88265110731897
C           61.55061604325933       65.61555128049483       44.44136695292460
C           63.05940466362795       65.47197376763265       44.24011459307707
C           60.79193457669141       65.23461897005575       43.15687036400614
C           59.55891498676964       64.34754293776732       43.39619834403206
C           59.99260283151843       62.89889675851062       43.60443766039560
C           58.59008354359410       64.48666357784266       42.21476405412070
C           57.25121022453118       63.74395188853043       42.34126676591720
C           56.50920457301960       63.83404148150800       41.00772666120684
C           56.41027673302418       64.32669607086235       43.48299040475379
C           55.04353479544077       63.66996638106689       43.73573096513937
C           54.34268083438484       64.43170680122634       44.86010954737834
C           55.21113822565744       62.18590496686457       44.08164952639967
C           53.93476738794568       61.39528505570367       44.40181104645542
C           54.34011228177796       59.99380594855484       44.85713274371394
C           52.98505647970371       61.30082523052958       43.20220614187022
C           51.55617812022023       60.88210264677342       43.58413524266452
C           50.88906260228394       60.17334409269364       42.40664807168250
C           50.73681614648807       62.09962243951924       44.02725772726631
C           49.49670926323871       61.76276439927286       44.86853703808168
C           48.52478117729012       62.94221208297791       44.82614490346174
C           49.89397287547778       61.41876696452428       46.31556566144635
C           49.21616954820623       60.19159661654293       46.94502761480892
C           49.62929353330337       58.90969377596588       46.22290613505805
C           47.68767511220975       60.28646413592419       47.01049474628823
C           47.13239484101499       61.33997047656950       47.98112077164953
C           47.34027411528358       60.90585714767639       49.43063400862541
C           45.64044209846082       61.55462361336699       47.68888547141784
C           44.98707119745316       62.78941322953867       48.32993406738024
C           43.47273100640519       62.65843368852205       48.17885415493108
C           45.51888602524943       64.07891192815028       47.69096602301921
C           44.82950984053297       65.38611369725727       48.10570308779430
C           45.46209810511780       66.54820443038530       47.33793006370745
C           44.77588956202932       65.67260295566724       49.61745979795803
C           46.08640461000576       66.01471758424503       50.34215735111973
C           46.83090563426406       64.75685442478077       50.78791173202916
C           45.80031544968579       66.86997111454620       51.58824664334018
C           45.44093112739447       68.33772175717623       51.33515402771914
C           46.66513405123776       69.12244922735464       50.86315228405374
C           44.91188640027591       69.00955174586515       52.61182356883581
C           43.58115879428387       68.50016174368774       53.18525963884287
C           42.46143734601954       68.58829198314837       52.15136845452535
C           43.25095922167742       69.33568471012146       54.43163885108521
C           42.09402942407084       68.81951112601487       55.29746819742368
C           41.76040086281844       69.86138574985490       56.36670693863021
C           42.41525015899862       67.46065081346390       55.94749404727865
C           41.57751859164073       66.28808575176534       55.41681463806186
C           40.11911212826045       66.43130192585537       55.84702211557955
C           42.16765849209700       64.96882766992319       55.93056447162525
C           41.66192492465506       63.68926002251160       55.24850818330949
C           42.04433043629336       62.49593888446100       56.12369658464385
C           42.25094678431756       63.57018518240898       53.83893818483388
C           41.69872392691311       62.43276240321310       52.96916848103249
C           42.44556929060546       62.42472301574337       51.63711172268928
C           40.18177321776104       62.56259907986530       52.73792979912723
C           39.34762157326688       61.60865769208405       53.60617857519014
C           39.34193203786651       60.21154388424055       52.98837000154919
C           37.91736402244017       62.12946083806065       53.80340741133515
C           37.21238330162590       61.53079610889345       55.02891753748050
C           35.70408618619453       61.75591044814464       54.93060632138564
C           37.75673468280280       62.13151688336728       56.33403883960733
C           37.68862053841872       61.17137657376045       57.52962226261014
C           37.81999704126110       61.95484520052297       58.83406497794495
C           38.78934895174558       60.10727475863962       57.42773860151963
C           38.53073298141154       58.81655395348656       58.21899093045398
C           39.82798498898292       58.01477337020118       58.30050763160284
C           37.41593904578056       58.00460290439713       57.54942904537469
C           37.04053445518531       56.66458759303125       58.19975194144039
C           35.99038978889655       55.98917771512870       57.31669679375635
C           36.51935191871763       56.86652203058696       59.62571078260819
C           36.16934358740697       55.59183347248347       60.40728828687070
C           35.50778270486352       55.99808771131671       61.72660510185295
C           37.40005212188378       54.71340998427169       60.69383713465435
C           37.61264442413737       53.52761260765415       59.74429659167186
C           36.55358291764639       52.44997835149283       59.97838071687735
C           39.00309286967256       52.90882094935389       59.95055985558564
C           40.18478887609051       53.72460367775583       59.40979913932863
C           40.20825955116510       53.71155745162769       57.88423503432521
C           41.49442752459581       53.17004430299072       59.98460529458880
C           42.71115834056209       54.04411914848266       59.68825701570832
C           43.91869737228129       53.62823988093999       60.51816016734850
H           55.16779706398000       67.59848083691178       46.11018362445729
H           55.56501115905609       69.11526071140463       46.92734044640439
H           54.00808658671177       68.92712773950856       46.12571325753399
H           43.71668352426814       53.75547698936336       61.57997921006157
H           44.16154265966043       52.58362981111828       60.34482610409970
H           44.78900370245641       54.22743798794715       60.26159959499295
H           41.38886520111824       53.08204062161942       61.06861691257363
H           41.66501911702179       52.16323950474304       59.59385742368395
H           39.14185067682977       52.74692791547615       61.02382642413853
H           39.02262458716744       51.92767960964982       59.47187290060999
H           37.52363120793493       53.86962477904493       58.71088410617993
H           36.66439178077752       51.64435578563209       59.25493126530299
H           36.65514093048329       52.02828779127046       60.97712444264941
H           35.54760615687392       52.85215477241137       59.88210115596234
H           38.28561918255340       55.35003104856989       60.67775186639818
H           37.31699062352870       54.30790586492568       61.70590757679699
H           37.26496860087795       57.41573890538955       60.20423885873277
H           35.62441892825164       57.49404044606987       59.57291873058740
H           40.08841568734705       54.76235186173373       59.74697544253212
H           41.00604720298874       54.34436976316851       57.50562452558755
H           40.36658582022565       52.69960804770434       57.51893421441369