3795
 energy: -5103.737696679836 gnorm: 0.000949404899 xtb: 6.6.1 (8d0f1dd)
C          108.57750928326701      125.39242049477730      102.76918258156029
C          107.79263888955128      125.36751695002187      104.06188778047901
C          109.54817685477146      124.21957559415127      102.69098723278714
C          110.34732569224893      124.19307751273840      101.39169699125226
H          110.23490287361975      124.27422920084398      103.53734368442689
H          108.98097459438344      123.29179502511613      102.79693509684121
C          111.32047708990368      123.01418411354781      101.40830425406055
H          109.66530710002039      124.10151577824935      100.54510631914864
H          110.89768738791803      125.12693014905631      101.28459896692334
C          112.01426585773149      122.74039743507964      100.09080758169422
H          112.09049077903032      123.18975692946481      102.16149724574612
H          110.79252955876530      122.10222048146115      101.69599003964871
N          112.54008040678137      123.80160579826695       99.48088949034843
O          107.08889504966844      126.46639985221316      104.25225759097870
O          107.81112645139781      124.44291534049177      104.84530220024722
H          106.56397255728186      126.42969834033829      105.11945134771520
H          109.10174850534899      126.34706639685862      102.71058258645587
H          107.86192322798955      125.36280286487676      101.94421431697410
C          113.26564360294934      123.72288300064477       98.23305943033442
H          112.56604241672544      124.69471232504856       99.96188407749371
C          114.71167371237132      124.18141572432299       98.40268229646192
H          113.23173786556706      122.68289363316060       97.90013007215735
H          112.76169139916028      124.35054180866179       97.49040848643990
C          115.46021670844968      124.17068369262894       97.07295073292752
H          114.71013215897260      125.19122602424214       98.81529118390168
H          115.20645619494107      123.52490732613251       99.11940547876117
C          116.85985405865385      124.77520362425443       97.17398408899665
H          115.53876341433927      123.14369164051627       96.71091416065501
H          114.88595478054586      124.73788318053626       96.33750637355266
C          117.76156253746377      124.01760639227342       98.14504768746521
H          117.31692221458697      124.75918118210622       96.18262385026495
H          116.78724445383224      125.81799067353532       97.48808601319644
C          119.22007246273624      124.44028525179110       98.00103053170751
H          117.44470103608941      124.19047449958749       99.17440981807857
H          117.69377501176898      122.94459376563756       97.95759740207227
N          120.06144596941837      123.73197161844098       98.94140373336764
H          119.56787489875622      124.22380690633646       96.98471214781793
H          119.34359345660668      125.50992491772696       98.18714735527213
C          120.85097323487200      124.33759305285750       99.83022340856583
H          119.84081806791552      122.75089937112145       99.07804628521721
O          112.07178357416035      121.60182807996767       99.62162605497859
C          121.60527024423533      123.39444903014538      100.74240103201676
C          120.75784898926067      123.03014857716364      101.96405659764477
H          121.84736788117431      122.48316294107950      100.19501355185207
H          122.52866505738211      123.88328960526017      101.05494350782097
C          121.50458712896454      122.09765244845796      102.91471699949703
H          120.47161866110827      123.93789555514212      102.49752503378905
H          119.84679291855814      122.53657987294611      101.62033133739759
C          122.60982085370772      122.80195182989364      103.70199210018855
H          120.79815438970886      121.65462631948662      103.62082196623734
H          121.95957702332933      121.28331058723968      102.34803040021936
C          123.37137615841338      121.78154783135507      104.52114395080980
H          123.31799087158531      123.26452849408778      103.01164552619244
H          122.18352117529204      123.56476230311128      104.35273808294757
N          123.37165379803641      121.98188281376385      105.83652107052447
C          124.00458746205891      121.07359821838791      106.76306956779418
H          122.85193266840137      122.75197189635787      106.25263596668599
O          120.97976471265311      125.56140655533366       99.90058410762536
C          123.09723705957339      120.79243390847259      107.95547127597193
H          124.21648792862686      120.15195701004649      106.21473474397175
H          124.95791005330564      121.50433346631239      107.09270285619529
C          123.53845776808340      119.54545092351401      108.72058574169976
H          123.09916582841056      121.65974104074060      108.61605468639900
H          122.07747749510797      120.66471262929541      107.59218107782699
C          122.99644465512705      118.24320036414399      108.12571116508174
H          124.62952912348194      119.50460052486459      108.71889146484203
H          123.21724785354445      119.63810469419867      109.75685644984065
C          121.48470314099909      118.05204272244426      108.26424164868736
H          123.24221784645148      118.19793522123581      107.06595166124113
H          123.49314766840294      117.40241449281793      108.61167310705952
C          121.03777681477054      118.12992202747427      109.71753216805193
N          119.69511221514395      117.62685803121740      109.90976504617613
H          121.72981976393405      117.54213230228132      110.33052964998885
H          121.04527534463577      119.16124335673754      110.07769087036012
C          118.91716339279442      118.06589400696595      110.90277133553072
H          119.41778146024991      116.81618591590799      109.35757321269359
O          123.95084473933689      120.83047523044948      103.99119198544030
C          117.58372496124875      117.35784309573850      111.04638837143933
C          117.35712274046982      116.99536890540007      112.51485084703171
H          116.79749812593820      118.03994591142718      110.71417132088145
H          117.55806483769564      116.47332339086023      110.41206521331975
C          116.03541031214087      116.27419798810047      112.74013625322317
H          118.17616412348993      116.36280498303975      112.86310901869363
H          117.37689432495596      117.91532123747713      113.10045046860371
C          115.68845886393513      116.20190065240141      114.22439515411816
H          115.23717411762516      116.80595596345935      112.21778100435269
H          116.08348574299478      115.26646606220658      112.32434900140294
C          114.42986523903497      115.40294420995133      114.46766190398525
H          116.49427875195082      115.72289299587702      114.78731074266376
H          115.56081881309727      117.20996909680329      114.62408108012116
N          113.82384719100520      115.65520669566756      115.63545149333676
C          112.60954820381866      114.97583412138573      116.04401954568900
H          114.30815833410620      116.20527770419227      116.32786426523319
H          120.94835030638301      118.78970655917865      107.66568166453963
H          121.23039161801974      117.06986444471812      107.85853663832432
O          119.25266537507611      118.97120256230400      111.66455857850393
O          113.96797241221610      114.60614764982337      113.65256284294398
C          111.96886941926878      115.64706873741397      117.25238615703825
H          111.93100282229211      114.98480634084875      115.18621772930638
H          112.83525583283065      113.92768408308802      116.27283977608074
C          110.60246763590875      115.02792185369108      117.56429811538167
H          112.62366363708162      115.53335748291228      118.11783631160898
H          111.85234172741538      116.71322388086327      117.05386444444503
C          109.46656761017665      115.62461260365046      116.72826902437592
H          110.66165208718262      113.95263024327791      117.39068918800955
H          110.37759543328872      115.17157930942302      118.62116670801333
C          108.89397898963574      116.89113285955190      117.36259321914707
H          109.83033841166801      115.85354268000347      115.72558598254555
H          108.66306431182230      114.89608708811851      116.62815957573901
C          107.95273603826031      117.64270828728036      116.42949603976484
H          108.35864355480351      116.62050551260336      118.27373270042567
H          109.70280701310061      117.56793808357622      117.64052523592871
N          106.84744889338755      116.82185313907684      115.97968184474591
H          107.55474469444781      118.52631843363746      116.94606896070397
H          108.48865397364871      117.98833051047542      115.53953683059027
C          106.23217967957581      117.02581663341854      114.81511743585236
H          106.60286547514058      116.00065473962731      116.52421231912167
C          105.06269932931831      116.10095620981750      114.53648647327702
C          103.98426056279334      116.16861364884974      115.62584956144099
H          104.65092429799400      116.36780329569429      113.56199561795769
H          105.44069084239756      115.07853487388681      114.47788039253453
C          103.60392789623394      117.58893682591787      116.04274860363449
H          103.09608710968669      115.64872674022081      115.26639645522226
H          104.34192438458705      115.63302317274049      116.50552197077748
C          103.04297819405072      118.43412760544830      114.90089998068856
H          102.85946200267566      117.52958655525320      116.83962397633947
H          104.47856527205120      118.09867746519912      116.44911814942812
C          102.71618520745199      119.84667476050915      115.35271299546221
H          103.78226687198236      118.50747162923845      114.10159294203750
H          102.14126808090701      117.97853933459567      114.48683613527227
N          102.18818458069236      120.63372435770161      114.41226945248444
C          101.75793862264273      121.98865087901288      114.67799178847430
H          101.86428076160932      120.25106881373971      113.52997937902296
O          106.56423628983266      117.90896438885947      114.02367376555300
C          102.08682256041375      122.92696010464938      113.52471832962519
H          100.67484554299136      121.99901867297214      114.84766954358204
H          102.25425598799295      122.31308403162473      115.59570993117555
C          103.58977358884913      123.09926457766558      113.31005476339192
H          101.61799671991444      122.54656738600161      112.61597624142867
H          101.64297502667074      123.89688704149694      113.75887365747890
C          103.87233115175071      124.28928573188826      112.39812791203387
H          104.06891130912710      123.26410174813071      114.27772417794823
H          104.01959609871136      122.19255402063580      112.88241528152038
C          105.36126892702062      124.60947890602320      112.28434810308173
H          103.46361402517478      124.08604388910777      111.40798233577608
H          103.35072003116665      125.16176124681378      112.79851273419075
C          105.55275140709421      125.97792802315342      111.64175686982080
H          105.80721092730965      124.62225922260725      113.28027069312009
H          105.86661533498894      123.84296615228342      111.69370600025697
N          106.95111180643667      126.32491982019516      111.52286878396532
H          105.08544990780418      125.99628675217699      110.65117525933643
H          105.07621410477250      126.74590107713648      112.25545113929343
O          102.94767497908070      120.25041840651255      116.49151470091397
C          107.39094681591104      127.57943893214909      111.57709221373229
H          107.57524934402231      125.58115529001461      111.21974103053256
C          108.88517871857263      127.75118966810982      111.40801524167161
C          109.53570363917167      127.99310581080083      112.77378922364321
H          109.31033952501619      126.86411534250067      110.94119107912726
H          109.05375054623228      128.61875066292254      110.76986051497572
C          111.02247629220787      128.32235629523811      112.67053726296975
H          109.02085326530802      128.82073685159042      113.26763857074947
H          109.41049108186743      127.10020048646176      113.38932860572253
C          111.29635511458611      129.64891279688939      111.95735894511273
H          111.43468993681523      128.39419728073557      113.67974830496595
H          111.54488420815288      127.51837242553667      112.14811728037768
C          112.68528643396041      130.15957661547455      112.28138377408263
H          111.17506667158962      129.56832582370197      110.87995781080677
H          110.59464231887409      130.40194146973286      112.32672489133920
N          113.37602239703654      130.66166890955350      111.25521368299771
O          106.65476745527310      128.54528315650018      111.79607234642154
C          114.68521398959567      131.26584969284104      111.39958790823016
H          112.96771198413575      130.63363453056161      110.32411467439721
C          115.77531870331562      130.48455630590416      110.66232265500192
H          114.64554899838912      132.29393491241265      111.02795919217110
H          114.91295555711007      131.29201645546647      112.46763713079628
C          117.17329523561483      130.85176026124216      111.15577522599813
H          115.61638776091144      129.41805813625564      110.82515475452861
H          115.70192775755848      130.67921762525160      109.59170147221317
C          118.25830626257221      130.11204156183297      110.37128674547829
H          117.32312962144611      131.92929736445075      111.06643439700656
H          117.25443435066859      130.59457945566950      112.21412732753836
C          119.61478205374817      130.18294710943829      111.06940906639225
H          117.97952283192765      129.06177879002325      110.27537934456393
H          118.33397572430212      130.53381778901911      109.36693990020764
C          120.73421486269665      129.56059933595276      110.24250198435901
H          119.86702734098330      131.22098573967389      111.29629876559601
H          119.55178095940042      129.64099596590336      112.01381360272124
N          121.13498420282653      130.42342778093007      109.14711064289672
H          121.60545961808606      129.37419163082976      110.88249033180577
H          120.41581304588495      128.60230429626856      109.82773841829047
C          121.70136896779653      129.99269102429525      108.01406500510821
H          121.10396526234244      131.41478401097862      109.33135677951495
O          113.12167195000791      130.12061561828176      113.43254702331068
C          122.18578346796946      131.08656975262045      107.08204963614408
C          121.08243424929293      131.57168087483143      106.13336668933003
H          122.55663455377018      131.92780552835575      107.66769923493079
H          123.00842309520702      130.68004433793243      106.49144396253840
C          120.66517992250975      130.49788304854144      105.13105593434753
H          120.21215865883183      131.89904951461955      106.70474301967528
H          121.45597976570458      132.43881987794001      105.58498979821191
C          119.66312839015100      131.02696272335967      104.09634845570083
H          121.55149787131363      130.14011708448226      104.60314176129846
H          120.22830086687944      129.64915115615869      105.66145419557640
C          118.35956084479264      131.40759269806310      104.77227242190853
H          120.07697873778869      131.91314928440201      103.61351415907676
H          119.47275951423768      130.26119569513293      103.34475127402432
N          117.44914895427232      130.42540719441990      104.80074301110359
C          116.16142690271610      130.56372684050382      105.44389783423449
H          117.61806906518611      129.58098750499599      104.26763445979252
O          121.81983649201617      128.80255094062500      107.73693304896345
C          115.00241933359709      130.35138218446093      104.47316880977048
H          116.09193930396810      129.83551706158519      106.25827696616803
H          116.12579985318528      131.57010041480663      105.86860951069680
C          113.65762401983120      130.50287589526386      105.18500729982264
H          115.07627654428208      131.08065956516359      103.66405909439693
H          115.09813192533848      129.35449607530774      104.03837325810609
C          112.47566916661120      130.09182546925734      104.30659037135288
H          113.64980900769974      129.89606576914142      106.08938286868769
H          113.53716315788763      131.54408783819704      105.48910876641062
C          112.37206659903620      128.57027412087331      104.14306587334328
H          111.55384894099285      130.47265639130475      104.74894955997830
H          112.58349542179334      130.57607080835132      103.33401238431796
C          111.79108019377726      128.16666982404726      102.78899303884300
H          113.35970464709848      128.11677648150032      104.22999413124403
H          111.75752459881764      128.14566061788216      104.93588811747658
N          112.75552830359960      128.42510638803472      101.74060555934412
H          111.57300004998233      127.09717094979018      102.77127939869426
H          110.87050798777349      128.72304012076003      102.58636947464835
C          113.26391023455278      127.49402371702249      100.92643167059417
H          113.19150259161783      129.33466117219803      101.76392842682849
O          118.17969332060713      132.50533805106147      105.29349476065047
C          114.43587888649387      127.96593599237127      100.09228347726902
C          115.73683030189937      127.47979458515104      100.74621511760387
H          114.35644910021118      127.54958736117612       99.08716242052665
H          114.44172911421695      129.05321126006277      100.02079491931050
C          116.96246602518461      128.11466403714408      100.09254480596357
H          115.73696916709211      127.72488056839801      101.80965878428452
H          115.79229011069447      126.39249559019680      100.65765344568761
C          118.25774846448182      127.40032824540960      100.46562185195312
H          116.85228714852987      128.07817298482857       99.00674159998641
H          117.03077904613644      129.16208459818517      100.39129074113424
C          118.69247990687845      127.56706956485868      101.91368059935003
H          118.16090547865100      126.32999715337282      100.27379295582074
H          119.07656883584596      127.76786344080824       99.84332797653646
N          119.81219177895954      126.88467230598748      102.18168061042526
O          112.83272666840251      126.34610282925168      100.87949175803405
C          120.50174457686852      126.87752041538691      103.45186676954505
H          120.28247529941464      126.40962432839693      101.41431563216152
C          121.99205800359051      127.14745896719862      103.26196211626596
H          120.04455834362783      127.63927017814275      104.08786023892524
H          120.36734462616430      125.89931340407239      103.93284758109083
C          122.75545415254096      127.05707399636408      104.58106682005510
H          122.38615707489117      126.41956390574727      102.55038132689542
H          122.12217529150131      128.14040731811625      102.82727357559753
C          124.25475421742084      127.31675900705136      104.41145879725796
H          122.34677025391329      127.78976101757044      105.27996543179071
H          122.59824081689530      126.07217545950088      105.02236296853577
C          125.04491021127465      126.13571460149802      103.84249307796416
H          124.38535234265113      128.17680451065232      103.75200602402337
H          124.68198217413756      127.57827749827267      105.38161372591577
C          125.21811070085303      125.01595140852753      104.86244386341541
H          124.55354851480854      125.73924035720985      102.95338138078183
H          126.03526250029273      126.48637743176610      103.54567222516350
N          126.08181382672109      123.97302465457548      104.34827983104738
H          125.68833352855266      125.40146366181006      105.77268879040386
H          124.24670181039387      124.59403587675503      105.14002379328761
C          126.73146877107531      123.13909396941848      105.16908597108883
H          126.00173457844478      123.77956608346281      103.35152254083867
O          118.09164736827861      128.24268787387797      102.74359554016058
C          127.70137329806906      122.17216004838873      104.50684119032991
C          127.12832790194139      121.31382707843811      103.36886935850477
H          128.52805953387789      122.78299051242800      104.13657814557973
H          128.10367537047432      121.53784884851852      105.29794053849584
C          127.94047491175343      121.42080086966152      102.07743760820199
H          127.12562233604483      120.27097378161614      103.68596384142292
H          126.08936799855563      121.58077965100387      103.17607032915294
C          127.79088518998826      122.78334748608901      101.38463426750890
H          128.99458206539717      121.24988767864153      102.30292492269635
H          127.61265197803104      120.63883563141705      101.38912592561893
C          126.37010747576393      122.94723318798818      100.88143808423541
H          128.00861208223677      123.58460036757772      102.09130519641069
H          128.49396003787746      122.85074915784172      100.55452325825193
N          126.15632122216803      122.46622355808593       99.65332300211290
C          124.86074981057556      122.46334810358499       99.00360064138698
H          126.93639830377661      122.13806129724084       99.10453571592195
O          126.63769505372144      123.20697274344400      106.39316082409692
C          124.80239946352597      121.40305608162039       97.91034384242242
H          124.10690086078476      122.28608097159160       99.77168203824199
H          124.66399733249199      123.45127454362540       98.56927860662401
C          124.96430627972804      119.96494117655973       98.41091100161172
H          123.84603592160188      121.50010439767162       97.39521757503326
H          125.58926600763381      121.61380459877279       97.18254495416363
C          123.76145605937911      119.43746960640216       99.20664608472133
H          125.10652575380350      119.33127514945635       97.53460995658004
H          125.86645381138563      119.88758669738979       99.01585493970825
C          123.91732252419850      119.48400375596174      100.72762882305177
H          122.87143320267961      120.00579044455957       98.93025643185234
H          123.57552157100365      118.39825236700734       98.92851217374040
C          124.97972768643093      118.51934555621806      101.25012529819428
H          124.15906030479387      120.48994196718007      101.07254849307822
H          122.96355747806696      119.20080248580781      101.17912028844036
N          124.85592986502600      118.36611918075872      102.68558329468263
H          124.86123100710192      117.52792872586153      100.80328726911671
H          125.98483283325220      118.88492448725621      101.01300387070428
C          124.85662567414232      117.17199762377845      103.28824573727525
H          124.57273191687993      119.19634776046526      103.19514708839479
O          125.47658856260419      123.43863202303244      101.56857864494700
C          124.53055724477976      117.20170420282201      104.76461260048058
C          125.42152528192334      116.28833648111008      105.61453557458086
H          124.58000065663420      118.23416514311407      105.11035943565564
H          123.49833667810032      116.85859867751333      104.88311374166372
C          126.90833063942583      116.37421840611751      105.28022065951059
H          125.26422255365848      116.53086268665261      106.66495935646566
H          125.11038199667848      115.25394716726606      105.47512762395330
C          127.50239660186421      117.77416941631668      105.48619615772530
H          127.44128308545382      115.65753071362089      105.90815320350920
H          127.05081020546193      116.06693202887685      104.24209892753917
C          128.86804510635511      117.82207022605365      104.83647940379127
H          126.85652226747190      118.52495560406642      105.03069090997471
H          127.59658350701710      117.99011208107810      106.54964544965729
N          128.83412708310570      117.91004638168128      103.50148797900718
O          125.12750204573190      116.13661105708739      102.67669296220220
C          130.00605445852494      117.76031757358778      102.66049862485364
H          127.94006737309850      117.93722709279351      103.03679191273986
C          129.61951608690205      117.56474956675552      101.19848446417295
H          130.63564381767745      118.65152868460274      102.76188967867365
H          130.59030026990646      116.90887776408816      103.02238753421172
C          128.67787262835338      116.38634818523933      100.93646703399811
H          129.14559039963532      118.47881282601499      100.83477176170328
H          130.54066186424302      117.41759949920691      100.63326341065707
C          129.23098015181750      115.02808902849122      101.36467847781554
H          127.71884875627545      116.53927359899386      101.43790508866840
H          128.47363255490637      116.35596249231776       99.86385746698062
C          128.25383182393793      113.91921901868213      100.97918763638198
H          130.20505209658572      114.85555165656442      100.90192306338660
H          129.37871810793979      115.00699400462574      102.44610047573246
C          128.69450383458550      112.51448833464907      101.40273350734689
H          127.28678021303639      114.12855941925957      101.44192716251648
H          128.10739562081369      113.92623809066230       99.89501089557952
N          129.82238046892098      111.95448676146870      100.65883574806577
H          128.95378625590303      112.50477631757174      102.46276292001009
H          127.84790694252965      111.83669813650580      101.26049886753228
H          130.69327369782346      112.30754093316055      101.04560608767483
H          129.77771875562595      112.27179638704501       99.69438413693680
O          129.92109385928174      117.75317767979817      105.46352402986361
C           98.99303869335253      120.73916173611934      104.74221405462744
C           98.53044152696567      120.15293751255138      103.43799484741298
C          100.45200651673940      120.36891069967687      105.03963508790358
C          100.68467566588328      118.86021935202744      105.02450737159154
H          101.11469809527026      120.84999214421363      104.32016047163087
H          100.70259301038652      120.75622556620051      106.02664504232217
C          102.06254921851982      118.51898556461231      105.59792705047523
H           99.91133174484402      118.36763943122243      105.61695603647152
H          100.60555752404720      118.48133224514514      104.00244425926226
C          102.33630316126585      117.03264682977768      105.50775246963660
H          102.83395771726475      119.06663937758805      105.05581500444258
H          102.08659421332014      118.82086727178502      106.64344704363825
N          101.61813640535500      116.28262553877337      106.34454768246910
O           99.06687084631493      120.75843986000814      102.38348595331199
O           97.75328685713953      119.23136587520639      103.32491849568413
H           98.73757964877548      120.38616041098470      101.54654012677437
H           98.34393421977211      120.37068115990392      105.53672197008153
H           98.90850152639575      121.82395514605477      104.67674334329932
C          101.74055420834864      114.83962910164740      106.37218914419536
H          101.03926164293236      116.72436163605116      107.05465968240509
C          100.91405667631066      114.21296850529534      107.48536744396615
H          101.41198747958857      114.44183020198493      105.40395871039485
H          102.79847306140940      114.58226903623101      106.48919686755127
C          101.41997999864994      114.52763881742493      108.89339753932668
H           99.88252983634227      114.55845367223466      107.39335143532436
H          100.92136362671422      113.13189085841152      107.33318399757829
C          102.84153724702996      114.03106429062018      109.15783206321464
H          101.36854805578459      115.60223679892886      109.07131868971230
H          100.74154986351178      114.03963297490054      109.59749335742791
C          103.17239500769243      114.06953369296100      110.64856455402344
H          102.93687955124113      113.00397379936457      108.79784036020820
H          103.55883611122904      114.65022185947073      108.61982971245889
C          104.56328559804892      113.53071497064295      110.96011798033645
H          103.08936620736938      115.09470273267584      111.01047065293480
H          102.44711493505000      113.46014354212936      111.18810433653589
N          105.59973284828865      114.50266327967408      110.68113717968632
H          104.64340905917909      113.26593731098649      112.01966298606784
H          104.73967755290516      112.61911764861297      110.37732318688589