3795
 energy: -5103.123681773562 gnorm: 0.000942721770 xtb: 6.6.1 (8d0f1dd)
C          108.61083530608788      125.36042062267937      102.79712656238149
C          107.83877327739617      125.32612305119376      104.10095950232576
C          109.55552085088313      124.16967329157218      102.68501559142751
C          110.35910098507304      124.17242448019924      101.38825324984266
H          110.23987536233219      124.18368417891766      103.53398212256199
H          108.96876252189678      123.25142816808810      102.75675982133086
C          111.30930403998538      122.97434147540926      101.35883593764173
H          109.67896803754648      124.12847069512225      100.53453367058015
H          110.92698657846455      125.09940394390667      101.31472512593328
C          111.99629880840234      122.75402977293587      100.03024200273086
H          112.07864976945375      123.10151835781987      102.12198867917475
H          110.76161406634978      122.06187379783091      101.60301393859669
N          112.57404539476043      123.83030062288466       99.49230449161797
O          107.09817697156312      126.40191004948534      104.27734255559730
O          107.90345340557988      124.41632842035874      104.89322548112621
H          106.57947436775008      126.35623775470607      105.14423823541655
H          109.15895374495183      126.30337539610126      102.75491741204550
H          107.88821371885780      125.36839290773014      101.97739314060922
C          113.28419171878366      123.79401964125537       98.23687171067891
H          112.61660561332893      124.70017892289974      100.01274420334353
C          114.74534867525213      124.19776060649154       98.41428372309969
H          113.21500443614595      122.77301322937575       97.85278145214519
H          112.79540720562710      124.47152507488741       97.52608753205597
C          115.49496113910965      124.18047949846618       97.08572877878396
H          114.78015714862495      125.20066158922491       98.84221265527360
H          115.21485764839606      123.51142636368603       99.11953928095350
C          116.90783005527807      124.75173840704990       97.19363494276620
H          115.54980085275243      123.15452795933388       96.71457589794572
H          114.93388965127326      124.76522838151315       96.35218396591347
C          117.78576200034992      123.97881546608984       98.17340081555739
H          117.37032966091415      124.72326606545865       96.20411609293483
H          116.85598769484372      125.79834229275453       97.50156646107126
C          119.25377076796278      124.37123305671867       98.03764131418839
H          117.46531541958151      124.16470328038254       99.19918364141577
H          117.69710109483394      122.90666934207894       97.99035477180631
N          120.07351937773508      123.66269960924102       98.99242204384693
H          119.60413151140133      124.13774428920311       97.02445978775940
H          119.39461392234205      125.44130446768392       98.21175795931414
C          120.84116413374352      124.28389061584019       99.89546292080888
H          119.83929867877001      122.68439673727696       99.13898073301017
O          112.01020544397227      121.65312816464554       99.48254590998539
C          121.58954064315036      123.34916301691794      100.81875814930700
C          120.72872117059087      122.97788206178673      102.02945567582029
H          121.84693263073689      122.43937379935815      100.27419959903717
H          122.50419109151292      123.84603691174318      101.14302890173701
C          121.47055648262835      122.04454378021333      102.98234900585854
H          120.43639727683170      123.88476087899559      102.56090460802096
H          119.82232766184521      122.48474773991084      101.67331555789423
C          122.58493307911475      122.74564311011690      103.75872438991415
H          120.76393744321616      121.61038904042962      103.69266216333344
H          121.91867110395754      121.22659361250642      102.41625679575432
C          123.35341977570491      121.72012929205479      104.56364479001385
H          123.28639037826542      123.20725536130263      103.06191102630824
H          122.16605341704454      123.50705654346842      104.41550845997313
N          123.37959804477411      121.92669276998110      105.87658516359747
C          124.00985708189042      121.01113995198591      106.79533374160886
H          122.86777752099965      122.69906665690888      106.30160651463336
O          120.94971897020805      125.50479907029947       99.96334270755386
C          123.08333551749449      120.71188947073151      107.96928558254008
H          124.23577860128090      120.09864754189967      106.23759296592814
H          124.95335964113632      121.44422331309180      107.14571056667420
C          123.50608308563493      119.44699536230819      108.71430335990854
H          123.08154799104410      121.56401956860681      108.64847734785661
H          122.06899697066925      120.59550984590338      107.58881225639735
C          122.93880625410415      118.16361322649426      108.10265834074355
H          124.59737203749692      119.38496592488970      108.70958889428844
H          123.19355802440541      119.52764027818610      109.75462045923375
C          121.42436925536317      117.99945846415993      108.23927951515674
H          123.18193111287459      118.12899793148377      107.04314942544897
H          123.42146588294119      117.30738104693810      108.57740862793611
C          120.97891224391547      118.08986124158261      109.69167780070802
N          119.63384907953542      117.59509199276283      109.88581048275761
H          121.66783832499124      117.50322803223510      110.31179807246427
H          120.99375833437260      119.12229714143733      110.04853803212943
C          118.89546003978263      117.98955151858937      110.92691503342098
H          119.34463797062529      116.79371112956589      109.32250931355186
O          123.91666419475310      120.76596022399391      104.02455824336595
C          117.55762142912330      117.29158980024194      111.07447768431412
C          117.32018582949948      116.95766870969857      112.54695852662330
H          116.77734911839462      117.97100025884644      110.72367046307102
H          117.53140565810884      116.39552548462457      110.45703674091411
C          116.00150379793772      116.23321991957266      112.77559803998123
H          118.14064961040117      116.33713996197065      112.91490818329855
H          117.33164703282380      117.88771733911881      113.11606173154794
C          115.63814343124191      116.20279100507422      114.25709696214730
H          115.20518593557831      116.74334175873760      112.22949043556736
H          116.06137180731874      115.21419071487816      112.38996748213152
C          114.36370505393428      115.43305550621413      114.49885501121962
H          116.43064004038007      115.73053098252441      114.84442945321950
H          115.51705265032675      117.22301796984947      114.62921950114719
N          113.80384392552028      115.64232047484592      115.69947534061298
C          112.58283640573097      114.97637734803686      116.10305509124076
H          114.32966877927966      116.13428210993732      116.40550792702123
H          120.90358997011238      118.74668407346451      107.64129147500427
H          121.15660014257993      117.02056518101000      107.83658671130723
O          119.26340002416642      118.85290787480618      111.71963777223290
O          113.84587787358247      114.70115124286612      113.66034240360244
C          111.94532929286726      115.64595315978602      117.31366392648546
H          111.90752537915246      114.99895707840585      115.24290506934501
H          112.79304786530074      113.92355406790089      116.32733521482861
C          110.57316831200427      115.03551965281117      117.61488615511040
H          112.59339918015731      115.51875326949026      118.18234740110044
H          111.83829634721251      116.71485941778489      117.12206736041317
C          109.44624423271129      115.64492801421217      116.77695654790618
H          110.62604281515046      113.96040316709801      117.43502013999326
H          110.34273213427544      115.17067207263544      118.67248373770668
C          108.88843322667356      116.91847867286225      117.40981043747294
H          109.81358194578029      115.86925425045750      115.77441392088886
H          108.63350514238303      114.92711910310025      116.67806122713539
C          107.96202238813461      117.68170173017432      116.47099075091698
H          108.34414492676162      116.65321210311625      118.31801081761071
H          109.70364090300296      117.58468788496796      117.69590119231914
N          106.88601023598648      116.85687012404547      115.96732850507105
H          107.53953442484089      118.54850607503934      116.99901513492443
H          108.51844544275509      118.05844206316944      115.60618902318070
C          106.32544202361157      117.07438342624447      114.77455608876686
H          106.62540521351649      116.02701732563217      116.49156037205148
C          105.18585106101276      116.13646831653972      114.42597837922490
C          104.07207039284476      116.13600371233892      115.48188847825763
H          104.79747183208617      116.43203757102545      113.45028237564247
H          105.58895581106277      115.12576751468208      114.33905874788984
C          103.65108544783487      117.53013126050696      115.94670844430593
H          103.20483152158074      115.61854190586411      115.07016588802095
H          104.40779233089567      115.56703268412910      116.34956351057342
C          103.13801036905200      118.42240702014489      114.81848503578017
H          102.86952491703238      117.42428804164661      116.70293011348865
H          104.49702437798965      118.03023742378767      116.42032782041265
C          102.80725733854287      119.82029813022100      115.31247611147310
H          103.91314708128252      118.52343388501110      114.05692360152874
H          102.25323816095437      117.98906812866289      114.34826219002083
N          102.21773671999105      120.61187225047387      114.41453709366634
C          101.79198910920773      121.95848812826357      114.72395099870334
H          101.85989602497411      120.24292599932411      113.53668712955114
O          106.68627429708550      117.97196034372156      114.01900654919356
C          102.09139162359439      122.92295736358619      113.58402638315587
H          100.71440380278665      121.96145931302875      114.91676691006850
H          102.31204952469092      122.26348311986023      115.63520219758493
C          103.58942606741391      123.10048417473789      113.34577125530241
H          101.60960030939872      122.55812064379148      112.67520553935762
H          101.64965538363236      123.88794443802433      113.84249838028816
C          103.85690496454669      124.26742733238527      112.40091567358907
H          104.07956537834556      123.29296022831528      114.30333592738735
H          104.02004889975183      122.18621977935250      112.93582390728503
C          105.34337255172890      124.59001784420447      112.26775432188010
H          103.44207333614766      124.03725417663630      111.41851651487640
H          103.33218869127552      125.14862668484704      112.77972361653140
C          105.52848360828283      125.94598179687203      111.59803028685980
H          105.79754497307043      124.62555226255161      113.26050131766692
H          105.84558017172837      123.81129021119091      111.69067023517509
N          106.92356645239383      126.30045501971063      111.48163364172294
H          105.06516830567772      125.94180237247384      110.60494642380715
H          105.04284116544005      126.72291320361093      112.19403004931560
O          103.08915705520648      120.20574080105408      116.44439446535424
C          107.35621983908953      127.55702621501973      111.57490010784576
H          107.55869030137609      125.56365911102552      111.18587594865959
C          108.85022878463492      127.73972336253227      111.41495282225581
C          109.48367469838179      128.01743254609258      112.78139412311117
H          109.28869174355792      126.84670826688522      110.97193565527579
H          109.01755118153920      128.59541897122355      110.76083403113400
C          110.97810163130872      128.31156385251876      112.69247124160039
H          108.97722534532186      128.87119084368734      113.23723887796311
H          109.32931925514380      127.14846988764397      113.42610362077883
C          111.29571583776548      129.59588020359399      111.92459759317239
H          111.37489954968378      128.42006366683731      113.70464990280018
H          111.49175338862443      127.47138526076954      112.21863882295860
C          112.69737305887598      130.07647512291101      112.24256903883499
H          111.18130775859099      129.47159935644927      110.85063704521768
H          110.61397001858651      130.38493545072365      112.25379459090681
N          113.38056428792046      130.59330167439239      111.21599502267668
O          106.61424564315246      128.50816102920189      111.81630197058533
C          114.69101295196849      131.18935387587848      111.36674575881899
H          112.96779905619904      130.57458047348851      110.28613602472004
C          115.78083635163527      130.41369451598257      110.62230968170975
H          114.65698992834855      132.22258087434273      111.00737757761470
H          114.91807087330449      131.20015289555317      112.43525561263937
C          117.17824332705383      130.75716599813057      111.13408513727440
H          115.61050066339868      129.34541967584033      110.76341860801044
H          115.71779292079196      130.62777674480057      109.55401170181371
C          118.26359774169283      130.01879275716874      110.34883215452119
H          117.34024847909234      131.83470771805403      111.06360387197003
H          117.24588882792534      130.48146971742892      112.18834487081284
C          119.60944439777332      130.04953718806374      111.07041117719724
H          117.96925506761144      128.97561268775416      110.22571106249121
H          118.36139196529021      130.46157420395446      109.35498499191138
C          120.73206579172445      129.43150897793856      110.24550637560266
H          119.87403135311645      131.07817890488528      111.32858971843861
H          119.52145328908850      129.48391112832041      111.99843735250749
N          121.16213271980851      130.31327985904571      109.17677412596433
H          121.59080925123561      129.21448755330479      110.89332684564951
H          120.40413409770194      128.48976371178853      109.80189914326110
C          121.76792686122147      129.89226450563922      108.05688364782134
H          121.12591918572353      131.30179168045859      109.37129123666197
O          113.14742415258803      130.00624940084509      113.38228864936605
C          122.28627108328973      130.99218153481476      107.15251433166603
C          121.20808466067236      131.49811741791856      106.18657085918066
H          122.65412096191727      131.82196284469663      107.75821819699402
H          123.11880843715576      130.58268473430604      106.57710859671353
C          120.78431667509344      130.42785891942160      105.18352581979046
H          120.33530707217899      131.84208668540458      106.74306241498000
H          121.60713428195700      132.35638527406900      105.64155566806780
C          119.73087179842851      130.94818461453428      104.19782163744030
H          121.66080050281568      130.09683644511915      104.62167255888068
H          120.38493244470015      129.56326727078437      105.71789723495614
C          118.43814443730322      131.25455072554183      104.93336256012543
H          120.09382430941329      131.86787208921970      103.73626433393989
H          119.54879279611231      130.20449902678138      103.42227194587633
N          117.49514233382422      130.30263051415025      104.81478902654162
C          116.21854106857155      130.41399228210773      105.47918576895569
H          117.64700270459876      129.51024614284304      104.20219735231191
O          121.88747685802150      128.70785020012386      107.77559276313966
C          115.04403420096354      130.26407223970676      104.51536438248807
H          116.14445733923102      129.64722601881954      106.25820294769426
H          116.19870072594441      131.39776328339300      105.95588446822785
C          113.71385348727857      130.43602682126695      105.24976530734766
H          115.13030117612553      131.01183252230967      103.72388654932489
H          115.10495791859299      129.27702012233738      104.05082702400632
C          112.50722348760890      130.02854524679773      104.40409298444409
H          113.71679242498904      129.83752844194211      106.15945392656580
H          113.60932788128423      131.48054030638335      105.54719418444614
C          112.39677528113123      128.50675513305734      104.24118681435534
H          111.59958172196204      130.41131898121819      104.87336189912250
H          112.58547513159392      130.51479603758875      103.42812342365684
C          111.84607794165963      128.10250400949502      102.87642402877142
H          113.37987763536358      128.04837973291276      104.35117276094743
H          111.76303854890753      128.08576357572923      105.01999927101116
N          112.82449028428175      128.38232763822137      101.84709144858495
H          111.64442034912550      127.03018451898235      102.84636471081377
H          110.91927626430960      128.64591812658355      102.66022305410128
C          113.30010136098707      127.47749953404985      100.98279336758426
H          113.28157501579052      129.27907713659604      101.90918952954480
O          118.28717417922788      132.25499025304734      105.61435317387600
C          114.46801768982741      127.96458242472299      100.15206656615342
C          115.77433286684567      127.46137426858083      100.78028452696699
H          114.37587213313643      127.57340754103953       99.13716260379626
H          114.47423044659001      129.05435926652936      100.10454891291299
C          116.99510336603011      128.09576583279417      100.11780840600463
H          115.79271551169936      127.69390801081229      101.84590612923002
H          115.81983543835612      126.37504163421266      100.67641801810434
C          118.28960049799416      127.37811871388421      100.48477068259135
H          116.87582728656412      128.06475728092673       99.03156726318512
H          117.06559013446228      129.14228045599094      100.41973859261486
C          118.70075379637494      127.52163677100862      101.94410007391456
H          118.19841359194558      126.31217798198792      100.26858846400339
H          119.11179016727556      127.76274259762702       99.87766961813172
N          119.81781655044452      126.83911132575460      102.21714833217440
O          112.84421144359465      126.34578923213971      100.89407870140937
C          120.48576493823057      126.82050160324474      103.49835931933220
H          120.29792961205511      126.36875519496640      101.45077962942624
C          121.97950920783312      127.08738567296936      103.33089556406705
H          120.02000306223894      127.57909143427896      104.13195027453916
H          120.34202813935282      125.83905924901194      103.96927729796977
C          122.72704334367350      126.98490291084941      104.65822710211606
H          122.38052239389218      126.36400864162979      102.61865837091027
H          122.11758163719693      128.08311736594732      102.90399448915605
C          124.23093130945379      127.22709074186244      104.50385165548275
H          122.32139846575826      127.71998453162021      105.35558690562434
H          122.55575308232257      126.00025527758099      105.09275876949903
C          125.01135626658089      126.03057749083531      103.95380038164949
H          124.37936311924216      128.08141826161759      103.83939884526237
H          124.65037289083941      127.49323724636375      105.47625252185536
C          125.17006835967848      124.92391638640655      104.99083851053361
H          124.51628473821248      125.62805595952243      103.06941503704734
H          126.00557880992012      126.36741290704492      103.65094532421871
N          125.99036361079301      123.84722527904707      104.47660515633633
H          125.67189725632477      125.30978549742116      105.88311503332167
H          124.19093868200702      124.53941878905155      105.29074542962515
C          126.65014204609605      123.02349070066788      105.30288852258141
H          125.86831479079621      123.63152837178164      103.49211636668112
O          118.08001034362071      128.17876044000801      102.77013595995356
C          127.59117763301353      122.01809968367105      104.64798297944364
C          127.05991586091980      121.23471215482560      103.43837007274003
H          128.48110441597697      122.58663346311880      104.36311037185045
H          127.90062450489773      121.33026587590588      105.43647331945780
C          127.87461758544862      121.46874954949857      102.16457410350864
H          127.11023750706657      120.16988201093976      103.66668303184818
H          126.01014702505586      121.46480895187524      103.25927327414760
C          127.67450186963801      122.86417399844386      101.55469817815991
H          128.93503596689840      121.32890599571587      102.38754495291467
H          127.59420836288044      120.71933730858662      101.41875209797860
C          126.26581731851178      122.97752974676983      101.00778816669893
H          127.82295246487263      123.62582114478106      102.32050437865765
H          128.40152889939299      123.02543540737888      100.75659997789411
N          126.12494704437958      122.56424446458271       99.73852086644273
C          124.85027420069137      122.52328056908816       99.05302322535371
H          126.94114347119074      122.32963587585591       99.19607478632511
O          126.59438674390329      123.12460431187112      106.52058715264027
C          124.84060669430315      121.43586793618945       97.98475467067793
H          124.08426463126007      122.34467342534965       99.80802385678219
H          124.64442398403450      123.49606586840054       98.58864594657052
C          125.00783226438767      120.01683396763141       98.53503297973258
H          123.90067421090922      121.50304431384288       97.43468957848110
H          125.64844041338188      121.63858193815530       97.27558292899721
C          123.78004285330904      119.49338597075435       99.29625921122242
H          125.20768384280268      119.35814983103857       97.68787908924642
H          125.88475566369033      119.98303415439560       99.18156839771748
C          123.90676448704286      119.51533990549727      100.81976480593603
H          122.90471535750763      120.07900139427920       99.00778028428552
H          123.58578552898727      118.46198316855244       98.99421557925439
C          124.94504577521562      118.52844268875091      101.35023408912376
H          124.15343307598458      120.51388466626143      101.18141427190051
H          122.94113760171986      119.23586918173535      101.24549236040767
N          124.76946985476324      118.33512046348402      102.77309155784079
H          124.83656815835714      117.55101796790991      100.86915472019095
H          125.96126361402348      118.89223544573638      101.15174029719719
C          124.79787223027441      117.12225200519309      103.34177445806944
H          124.46245785529118      119.15153368417269      103.29593222209462
O          125.32173982865365      123.36015740442727      101.68150125651960
C          124.42001378128600      117.09827355398642      104.80364701993389
C          125.31349941271549      116.19723658504398      105.66572816396238
H          124.41984365415117      118.12294607230754      105.17460758316062
H          123.39949573806071      116.71222834813027      104.88412155796647
C          126.80589592824803      116.31929239053532      105.37065459202913
H          125.12467141190558      116.42664209553897      106.71370294139226
H          125.03207875637219      115.15759874369402      105.50992197326626
C          127.35706057376960      117.73736033158728      105.57610502797840
H          127.34110717547819      115.62388720410003      106.01929168671168
H          126.98146278475579      116.00587923532630      104.33962898874971
C          128.71710294056362      117.83794316110061      104.92114145406055
H          126.68677217623565      118.46878887877779      105.12324814489509
H          127.44830124004729      117.95844018865178      106.63921221057188
N          128.66762798595263      117.86632884167496      103.57888895582803
O          125.12779056775751      116.11941961896304      102.70864592827218
C          129.84716998283378      117.75332189911958      102.74496465392403
H          127.77361548559215      117.78211983935908      103.12181235317175
C          129.47720464381374      117.58131539221459      101.27606777475800
H          130.45762542790769      118.65524433741913      102.87120516134276
H          130.44818717391885      116.90528361084975      103.08682028734729
C          128.56747462617918      116.38496460368779      100.98193877794756
H          128.98393140947053      118.49228946689972      100.92514390975695
H          130.40589797092133      117.47027532249757      100.71358488106429
C          129.14175957598781      115.03593756344075      101.41045011207974
H          127.59368369207589      116.51392226953178      101.46128901491423
H          128.38559765615625      116.36370257986670       99.90385438635357
C          128.19616743429214      113.90984803733407      100.99827573591682
H          130.12722116780517      114.88738843259186      100.96557518278604
H          129.26606178670386      115.01018687476258      102.49332578610894
C          128.66374919574042      112.51397878741096      101.42381056130039
H          127.21484806122542      114.09548104380376      101.44092228740085
H          128.07149193314763      113.92008344970785       99.91027610076085
N          129.82739788022607      111.99261515399624      100.71114758099070
H          128.89500195147846      112.50526087983130      102.48924769104624
H          127.83841718022913      111.81580803025260      101.25521306227883
H          130.67405343405272      112.36317953418229      101.13787006307622
H          129.81266697496034      112.32213243710514       99.74928485469690
O          129.77274814660348      117.86651702909033      105.53598667559007
C           99.09305331258030      120.69587477128545      104.64367378096436
C           98.74397116965031      120.06225285017349      103.32594252906428
C          100.52888473306852      120.34341167271896      105.05373875338887
C          100.77208077807363      118.83669527663804      105.03476465415115
H          101.23968585934279      120.83690526098923      104.39135437727698
H          100.69901760325919      120.72047782532754      106.06176391436989
C          102.14174052160513      118.49637814839359      105.62792058329029
H           99.98964253986188      118.33469477224457      105.60751854099078
H          100.71640621807711      118.46575938752079      104.00884812894023
C          102.40823280683848      117.01075109679228      105.52642787421367
H          102.91912011946184      119.04932907279870      105.10052884870899
H          102.14764938022739      118.79012716386998      106.67589352214270
N          101.68575879440867      116.26221722337634      106.36395385056839
O           99.41379468357263      120.61004114716633      102.30344494061754
O           97.96751545233919      119.15632899154753      103.16528013321123
H           99.17932947382371      120.16884356768406      101.47241138355534
H           98.38736776831989      120.33911647852457      105.39444978211804
H           99.00147793537923      121.77783206747409      104.54465326792216
C          101.79655438155832      114.81967012860078      106.38111694350589
H          101.10039459478404      116.70522236283830      107.06792009303201
C          100.98298333288346      114.19292702263351      107.50367502563903
H          101.44777243750889      114.42496530099120      105.41882106946994
H          102.85361973280594      114.55327762144144      106.48304187586359
C          101.49827797127314      114.51593331697362      108.90660591048602
H           99.94806934414622      114.53231828453313      107.42069747293566
H          100.99223479097085      113.11023853868902      107.35612232355636
C          102.92853304807228      114.03800649510829      109.15986060205402
H          101.43373853878727      115.58962429545073      109.08377354301295
H          100.83222288005342      114.02024310138016      109.61831565594603
C          103.26149495995257      114.05956335990453      110.65062898950086
H          103.03871430487438      113.01665016157834      108.78533145227598
H          103.63535566636209      114.67674425126806      108.63191058181962
C          104.65520148446299      113.52410223323270      110.95691764185662
H          103.17399962400503      115.08038357881810      111.02373676005040
H          102.53745761883958      113.44183288463216      111.18424996317660
N          105.68721418612175      114.50561024544662      110.70341840375976
H          104.72928308079192      113.23582063321960      112.01101765607203
H          104.83795366340490      112.62424679011701      110.35650322962417