3258
 energy: -3427.611358278024 gnorm: 0.000711878071 xtb: 6.6.1 (8d0f1dd)
C          110.88740053815610       96.74294187631013      119.52012905479734
C          110.78290619798983       97.94870969809160      118.59464848409914
C          109.36669388466517       98.51943972083079      118.56019779097132
C          109.22818249475638       99.73441098134047      117.64104727944401
C          109.22345177809196       99.35852188883942      116.16204745318140
C          109.29457148995439      100.56269569042674      115.22594145781488
C          108.06697499638132      101.47028165613905      115.27181381789488
C          108.11648006421544      102.49722416178544      114.14458121946610
C          106.92846438926313      103.45419966252197      114.13144018973016
C          107.03410761145868      104.43842059199883      112.96994195618625
C          105.88851455524330      105.44455834545965      112.91953613056357
C          106.09753865483292      106.46914971045592      111.80788916584650
C          104.96491140887819      107.48741810836283      111.71309508074609
C          105.27345907525846      108.57284568042917      110.68633218418708
C          104.14042132024676      109.58234893786366      110.52676855967935
C          104.51672486192948      110.69725730606424      109.55610203769251
C          103.39423484112903      111.70888849821711      109.34484606340804
C          103.83981511720559      112.85617368495321      108.44380163226951
C          102.74148089741632      113.88666728861581      108.19693979091532
C          103.28219718745032      115.11193843735005      107.46650448915398
C          102.21356634545745      116.16255498275353      107.18183580681925
C          102.82553873181369      117.44502231649423      106.62346322672900
C          101.76777258363430      118.47652923924404      106.24234251546002
C          102.35812048260817      119.80668316565547      105.77112328272955
C          102.95425225654134      120.64060503039700      106.90403847820397
C          103.38605592779317      122.02731100362089      106.42871889200921
C          103.85223076046317      122.93233495898943      107.58157379945021
C          105.34414396307754      123.25346271564348      107.52705749217887
C          105.79959501020878      124.06141718647095      108.73877987089702
C          107.26357638061501      124.48183462945821      108.64506709547420
C          107.73234372335536      125.17705975641715      109.91924346601354
C          109.17316802284692      125.67284905579501      109.82736194434395
C          109.64334207033463      126.25999950932693      111.15413918756657
C          111.09501066652660      126.73085332209993      111.13567574891543
C          111.51424229199519      127.24212081024832      112.51179307952232
C          112.99078568852593      127.61303731295591      112.60493972670982
C          113.36305191531922      128.05078418624669      114.01966575347875
C          114.85413070927794      128.33277727906727      114.17614022106420
C          115.20644964670359      128.72671099301868      115.60909827343048
C          116.69873588153105      128.98292148093040      115.82505139110594
C          117.54725426361938      127.71546885856581      115.75374773077600
C          119.02719413833952      127.99597377173495      116.00221253154503
C          119.84708087277077      126.71000193936365      116.07324698943910
C          121.33116670100195      126.98544452209364      116.29848016659861
C          122.12662738130972      125.70821400408209      116.55614706077306
C          123.60698765998583      125.99624071827894      116.79008819710457
C          124.38610594492394      124.75715333840233      117.22622581546837
C          125.87356481931367      125.06577810239914      117.37833617069471
C          126.69178448112544      123.91028633070711      117.95515560996949
C          126.63367720507898      122.64321988210155      117.09999516995146
C          127.85246135167129      121.75149326988438      117.32972323475261
C          127.74052948059123      120.37619900026112      116.66969222628364
C          127.39594371747812      120.40225125901486      115.18073438121392
C          128.38680815412715      121.18685361725666      114.32520194462012
C          128.12928969779301      121.03043954710351      112.82360889905651
C          126.71923761093342      121.40614834215097      112.36193695046235
C          126.34853135969381      122.86401911737192      112.62504124836084
C          124.92072203006080      123.17474650717355      112.18166540747998
C          124.53868293042837      124.63340026468732      112.42345052184527
C          123.07092390925058      124.90572603002863      112.09947015448276
C          122.72552386175978      126.38992973230634      112.18785853002939
C          121.23816757556010      126.66401048593353      111.96876723408052
C          120.94821563009370      128.16219370193269      111.91477758626665
C          119.45778999962248      128.49021540747023      111.83497038815578
C          119.23819233245976      129.99677411879921      111.68988779953091
C          117.81536633648071      130.45522856495612      112.00988349945682
C          116.73006588403123      129.94999251779851      111.05951981640177
C          116.87761592670695      130.47316465788430      109.63003351294951
C          115.56759727568169      130.41876357972220      108.84069984665248
C          115.04968017227681      128.99879573373559      108.63006201822930
C          113.74322406087309      128.96392936196804      107.83879223157545
C          113.26008675681446      127.53134981371093      107.63260560659354
C          111.93249230934070      127.43494784840343      106.88399779159381
C          111.53028056055645      125.97570325350897      106.69004477345270
C          110.23751330721419      125.78142367036688      105.90138833581308
C          110.02439649972129      124.30042800345169      105.60036881426453
C          108.75032749716694      123.99097058946393      104.81957933869957
C          108.70938820896177      122.51344053640642      104.43691573999128
C          107.44632646468385      122.10498325367011      103.68540403017947
C          107.49608788920077      120.63591095757332      103.27115097337426
C          106.22409937283631      120.17178983762221      102.57112966908322
C          106.29760375839103      118.69938250856752      102.17158333139167
C          105.01528795298182      118.24393935376962      101.48140293230838
C          105.11044885602300      116.85638341982967      100.85054855939973
C          105.27406972369720      115.71937672313760      101.85701241777866
C          105.12010471422612      114.35883031230850      101.18068197130086
C          105.38380090429864      113.19324252788050      102.12900321019177
C          105.10761765281002      111.83786587552025      101.47984737471327
C          105.54645877478823      110.68600703276340      102.37970085641709
C          105.23445335718695      109.30882300204993      101.79869938926723
C          105.83638246827016      108.19729723319863      102.65547369332556
C          105.56687487089049      106.79866538655070      102.10726556885160
C          106.30622711018935      105.72527686111552      102.90194955521913
C          106.03902632848288      104.31415988267773      102.38266267807882
C          106.92190989361990      103.27981313471420      103.07784253923221
C          106.63180477612467      101.85600175960954      102.60834598759449
C          107.55088878947939      100.81324805864824      103.24861997804821
C          108.95867191240968      100.81058561429705      102.65492512036037
C          109.88104304951926       99.81821406365245      103.35821401294525
C          111.27040475620299       99.75680732571824      102.72638678254705
C          112.21368626067880       98.85757823365179      103.52127146509700
C          113.59121731338371       98.72023583454690      102.87752824016522
C          114.52876282390353       97.86867447937529      103.73093558028624
C          115.87502381604443       97.62662973619820      103.05345519867383
C          116.81943434624965       96.75370006442317      103.88345275231094
C          117.44494251702665       97.49434167023890      105.06305572794741
C          118.37989427149752       96.60053275728373      105.87546170447119
C          119.02722128059423       97.35887142237515      107.03168533565432
C          119.95573891494887       96.48337919315343      107.86993622866136
C          120.60302824504707       97.27253133669907      109.00635217708562
C          121.48993370717056       96.39744333447906      109.88820648473968
C          122.17674659953582       97.17192379090530      111.01509334195836
C          121.19786754755246       97.74312921448454      112.04052678448639
C          121.91213642822382       98.27738541422029      113.28075470885877
C          120.98567328975302       99.03910345571904      114.23026287040040
C          119.92613430236771       98.15714887850949      114.88691148658386
C          119.01883276447957       98.92706532172879      115.84881267134665
C          119.71011061871188       99.34746795567509      117.14438055214610
C          118.74237693899735      100.02664117027039      118.11113148660023
C          119.41357108858709      100.39827620860123      119.42769036400780
H          118.33739651783715      100.92615291574513      117.64182201062782
H          117.90610647879919       99.35425665083450      118.31383058323243
H          120.13859193290907       98.46443692934879      117.62621834373540
H          120.53048140437194      100.03362561224412      116.92427580680294
H          118.63070282753444       99.81439749098350      115.34317736219157
H          118.16709239092286       98.29090647756733      116.10457417464939
H          119.30263576078315       97.71355717714917      114.10847912349303
H          120.41433592698282       97.34075548222954      115.42558286363445
H          121.59794668040598       99.50163583672408      115.00758083491817
H          120.48475088659890       99.83708741665600      113.67674023269304
H          122.37948093669681       97.44755324962222      113.81759283625189
H          122.71341372249235       98.95035141193098      112.96297373116441
H          120.62357143151088       98.55406119280053      111.58891447020210
H          120.50089905959817       96.95715875168416      112.33588596767525
H          122.86823450080722       96.49699858342073      111.52742407817037
H          122.76878877169199       97.98377916505233      110.58479910673427
H          120.88842374663263       95.59351136120912      110.32138879965011
H          122.25734201593748       95.93056634804431      109.26471770835757
H          121.20120187627285       98.08608508951394      108.58966480973137
H          119.81509367702591       97.71914836128533      109.61447456854731
H          119.38682950307297       95.64923369405014      108.28923820864269
H          120.73445902791210       96.05862400310519      107.23039710151448
H          119.59480749713254       98.20265645242257      106.63298082416522
H          118.24259437928042       97.76130567260800      107.67605541733757
H          117.81584441294814       95.75002968383754      106.26780281841079
H          119.15922138571180       96.20012971174813      105.22093433544849
H          118.00474143429280       98.35446750717692      104.68861783784884
H          116.65870216514445       97.87161301847316      105.71986261154809
H          116.27504895534970       95.87985905686220      104.25041292210372
H          117.62271107736569       96.38694673010333      103.23789122493132
H          115.69389296314908       97.13415996222291      102.09376963976189
H          116.35721925922961       98.58425405570858      102.84605125659414
H          114.68097368436773       98.36554796146390      104.69082253114186
H          114.05470619282333       96.90456226988776      103.93161048761891
H          113.48432547930655       98.26284689589984      101.88991484055461
H          114.02933393278917       99.71065355174824      102.73592360711248
H          112.32858195539876       99.26599303947754      104.52760543679314
H          111.76620117449656       97.86453342068539      103.61911214769087
H          111.18873188757354       99.38406564227988      101.70157319874066
H          111.69066520782604      100.76348621512096      102.67870973128069
H          109.98408339869134      100.10909289722173      104.40558900979478
H          109.42933650114182       98.82220736607478      103.33466576270560
H          108.89759292456574      100.55857186505548      101.59269114142080
H          109.39296851651773      101.80823943056254      102.73138397965752
H          107.60699219261890      100.99921524408217      104.32364644298531
H          107.11522062332372       99.81900572691056      103.11731272412480
H          105.59386538145633      101.61439364108311      102.85199129389771
H          106.73358193750087      101.80510033663903      101.52088431505381
H          107.96825800306429      103.52500249338421      102.88294063436400
H          106.76547069502588      103.33895664332341      104.15778958877407
H          104.98676992454108      104.06006476379353      102.53806994488214
H          106.22758007223420      104.28210706561339      101.30627626177426
H          107.38008261463602      105.92426219586989      102.84890488201128
H          106.01563301545173      105.78480761369218      103.95353562255518
H          104.49265951885224      106.59726540458402      102.12976495822919
H          105.88889579266662      106.75134466302498      101.06498702194827
H          106.91694085577952      108.34852559994840      102.71526955516275
H          105.43822284588487      108.27081051867880      103.67011248981437
H          104.15136405524599      109.17531519482846      101.72780388483523
H          105.64123775397856      109.24248881917487      100.78607515713117
H          106.62343649927423      110.76249437431959      102.54423120109855
H          105.05600883751399      110.78295364928015      103.35023243669990
H          104.03975954645109      111.74963616468466      101.26043193626558
H          105.64120627650315      111.77551563008983      100.52742421927904
H          106.42522795378264      113.22987086302872      102.45599730258360
H          104.75539300070268      113.29890612079339      103.01520398011871
H          104.10923787977109      114.27387347707919      100.77108560627318
H          105.81920931451086      114.30127796457813      100.34180957081772
H          106.25795627328296      115.77933245895098      102.32645089465197
H          104.52240373228048      115.81749574839962      102.64290042472452
H          104.20097036208600      116.67874926453914      100.26862221350078
H          105.95192676922866      116.84125355716432      100.15305786767139
H          104.18989436994198      118.26047931454910      102.19705487462478
H          104.77720092934831      118.96279473627214      100.69263769497293
H          107.14331972599784      118.55377985941200      101.49427617874274
H          106.47536691613391      118.09271657269728      103.06198193622798
H          105.36917787216292      120.32485381119611      103.23558873524432
H          106.05676304761957      120.78090822055671      101.67925091190020
H          108.35022790311217      120.47838599636303      102.60802413970976
H          107.65002066210374      120.01805255500165      104.15790223418783
H          106.57313517038278      122.27748791256478      104.31963021825220
H          107.33378361415917      122.72934495543323      102.79442994574480
H          109.58108325498964      122.28380129996330      103.81906193379260
H          108.78569512265391      121.91782349197200      105.34948004300942
H          107.87658934288420      124.23626654983070      105.42773194825041
H          108.71038086217574      124.60937053309330      103.91813717955500
H          110.88102589216560      123.93778448685356      105.02678163357264
H          110.00252622118259      123.75032950083262      106.54441984853101
H          109.39140102995648      126.17376411470758      106.47018965222571
H          110.29014554301168      126.34296548647784      104.96444137891466
H          112.33667099043306      125.45836177376870      106.16490397632010
H          111.42464356024415      125.50535095530964      107.66991806953779
H          111.15529636233691      127.96250773537147      107.44277683428574
H          112.02551072714468      127.92356377819341      105.91015865051868
H          114.02125534919654      126.98105902226101      107.07382510844074
H          113.15499937830376      127.04842460723118      108.60660760542291
H          112.97980823434308      129.53340201452642      108.37546938951746
H          113.88856376338525      129.44489948835314      106.86779576998566
H          115.80765529232644      128.41640162831246      108.10046427417787
H          114.88469305681316      128.52479839887118      109.59840370073641
H          114.80910964110075      131.00370028337389      109.36809532649734
H          115.72269125578535      130.88948545943768      107.86587791966886
H          117.21181676033123      131.51364756905764      109.66737912137390
H          117.64071618524051      129.89999250521032      109.09985361758022
H          116.72422240631091      128.86015982927742      111.06261810658704
H          115.76511863908860      130.28550093492044      111.44983673344791
H          117.56820834755628      130.12315504277751      113.02147215486811
H          117.79686939032042      131.54899061827942      112.01146743364842
H          119.91374679472878      130.51090713977305      112.38019321794286
H          119.51022942152959      130.31037019217055      110.68020070644100
H          119.01424496486648      127.96495194492806      110.98696676975135
H          118.96313393491580      128.13554014683569      112.74193559742984
H          121.36646490939603      128.63692958333891      112.80689890005289
H          121.45760729684933      128.59403238523046      111.04875111232271
H          120.91605624565493      126.19872326420979      111.03346888070301
H          120.66386504306175      126.21139616728041      112.77998036593989
H          123.01734826675934      126.76942008536895      113.17060002419342
H          123.30613537148282      126.93814493050895      111.44065645237261
H          122.85121255899273      124.54376337725907      111.09179683624062
H          122.44277878482715      124.34931930420409      112.79808757783073
H          124.72786868180840      124.88902711527315      113.46948149596894
H          125.17276327838253      125.27771964306707      111.80841379370224
H          124.81277802427225      122.94602832454868      111.11830015847556
H          124.23024554569113      122.52838406180872      112.72994762651716
H          126.43668809063259      123.08123324234583      113.69108655983455
H          127.04679594408623      123.51766000060100      112.09591442339912
H          126.65056574249310      121.21502375224938      111.28753799649682
H          125.99075378489704      120.75662757797278      112.85069629378211
H          128.85374741866553      121.64425620941203      112.28120163902220
H          128.31103896769483      119.98919988437247      112.54613060631286
H          128.35362717770855      122.24405477547661      114.59018622957237
H          129.39980385830745      120.83235747674566      114.53619069506490
H          127.36522865364162      119.36997241400125      114.82151965799250
H          126.39737564684569      120.82075352105525      115.06319373520087
H          128.68619196676926      119.84631672552037      116.81289855739541
H          126.96428631349308      119.80596974231854      117.18578866654801
H          128.74427462345278      122.26425230987924      116.96183828662009
H          127.98711813413712      121.60288296946551      118.40502902862043
H          125.72506441486966      122.08238362967033      117.32623757979508
H          126.59343774986928      122.93274651786355      116.04905797741449
H          127.73213784040480      124.23863829764227      118.03165163511704
H          126.34662132119304      123.68808428812100      118.96799209130317
H          126.28247828174914      125.33851188423925      116.40136904665466
H          125.98853728188233      125.93465190353473      118.03243303946897
H          123.99072589179377      124.40073275119080      118.18068818093072
H          124.24739002558553      123.96367027110099      116.48934455071937
H          124.04664088152055      126.39545852736033      115.87193089153756
H          123.70553409012147      126.76723718116794      117.55926198638011
H          121.71519810644065      125.20414754088750      117.43448959710001
H          122.02081541897803      125.03332157998649      115.70343780010707
H          121.74132499599581      127.50210067550761      115.42713658686300
H          121.44410643020205      127.65284754607178      117.15731414089962
H          119.46870251531884      126.09200835231991      116.89113477517873
H          119.71989290327372      126.14509336642693      115.14625000807114
H          119.41748027487498      128.63539716753715      115.20623435067566
H          119.13778548116618      128.54189026176223      116.94315396888121
H          117.18815033546944      127.00698417162867      116.50325530004558
H          117.43655636326059      127.24866238026301      114.77281648151545
H          117.05382244984801      129.70329387122760      115.08355064221929
H          116.83699201289056      129.43785434702056      116.80985325172163
H          114.65398505021093      129.63497139653484      115.86506346272265
H          114.87749032655583      127.94035850353939      116.29235020374691
H          115.41116585241977      127.43932866272525      113.88894292340487
H          115.14876097001182      129.13573781339451      113.49719121798950
H          112.79337144492884      128.94487616699860      114.28464576544219
H          113.07930928603660      127.26011076032005      114.71874602247675
H          113.59663951541152      126.74668816797153      112.32902436497349
H          113.21790260793072      128.41521297266667      111.89791722418974
H          110.91196791528111      128.11712622080773      112.76768002058490
H          111.30265536419400      126.46491088529093      113.25133134344745
H          111.74033498673371      125.89758815496656      110.84642751246371
H          111.22073880429991      127.52127239114881      110.39155125703269
H          108.99929415826914      127.10226762203028      111.42069673566932
H          109.53046277959156      125.50362871141019      111.93458591132485
H          109.82217045117493      124.83872532770157      109.55182733360884
H          109.25249316852116      126.42867866798328      109.04195737245023
H          107.07099356432501      126.02114289758738      110.13423796771319
H          107.64865297778690      124.47951560427850      110.75649299001059
H          107.88586298541334      123.60287786268091      108.46341819970594
H          107.39485069011386      125.15395137301878      107.79332605429792
H          105.17659788192823      124.95456667047264      108.83577710691081
H          105.65690421360817      123.46383820458468      109.64282929351037
H          105.91406543927502      122.32256864658649      107.48195412834905
H          105.56022185530713      123.81594461725467      106.61547440997401
H          103.29177724254080      123.87116077460797      107.56465637922372
H          103.63166481860885      122.44659596380900      108.53525567981725
H          104.19038664278450      121.91977248123159      105.69650618815592
H          102.54477545672647      122.49466932659996      105.91100757307227
H          102.20136279350798      120.75352391737538      107.68859650099103
H          103.81403349221829      120.12772740316964      107.33902106863407
H          103.12316969275865      119.61670038694878      105.01292220663210
H          101.56410514148708      120.39047358296219      105.29765324479487
H          101.14442317282607      118.06337289969622      105.44516451518798
H          101.11667479981578      118.65986079556897      107.10143398199254
H          103.49895083224170      117.86707566553547      107.37187184317160
H          103.42479756231918      117.20376989782542      105.74119523616982
H          101.48494117580809      115.76355679586251      106.47294892770219
H          101.67700068831155      116.39379889332098      108.10650686076866
H          104.06744721463193      115.56802426946311      108.07443208357316
H          103.74021631741375      114.79800849988838      106.52565184515589
H          101.93821642524186      113.43388525800398      107.61267237040916
H          102.31358998923379      114.19917899335644      109.15291750794108
H          104.69524053028763      113.35391536057784      108.90822407470330
H          104.17707712871430      112.45299692562494      107.48632562570094
H          102.52933769794480      111.20965437664361      108.90331529281426
H          103.08185332171233      112.11110562879087      110.31236838430802
H          105.39659413956777      111.21757142259430      109.94351467120013
H          104.78913694306134      110.25875919133632      108.59285644628825
H          103.24375135915739      109.07230116277245      110.16821746981279
H          103.90022801306388      110.01778505021564      111.50068948255846
H          106.18126431959324      109.09881486947515      110.99169931919600
H          105.47155888046713      108.10451924566971      109.71897257609068
H          104.03735950742066      106.97877051897278      111.44199233738230
H          104.80690927981374      107.94931975438560      112.69157463306291
H          107.03856026662744      106.99657113058913      111.98224505419722
H          106.19007649860305      105.94780701067978      110.85253662579733
H          104.94545093370085      104.91787223681013      112.75923061962175
H          105.81430896017591      105.96026398289321      113.88041564404159
H          107.97970690059596      104.98000206511568      113.05154111007157
H          107.06296174625537      103.88191417511449      112.03065278377196
H          106.00037605441379      102.88491128525438      114.04503649421861
H          106.89090959762919      104.00338420141578      115.07551023157735
H          109.03839302804735      103.07610931328007      114.23932805395732
H          108.15948518560528      101.97256291456928      113.18676155451828
H          107.16230652755785      100.86583022207877      115.17440154250025
H          108.02084002808520      101.98701553543930      116.23275562063799
H          110.18470730431659      101.14975210741920      115.46461217993848
H          109.41247151871220      100.19405012187244      114.20250707586764
H          110.08120416718687       98.71531256164660      115.95281700126823
H          108.32156923739798       98.78398575253478      115.94289957511647
H          108.29665385841106      100.25249843042019      117.87986989253109
H          110.04917246859634      100.42571983283352      117.83917382871924
H          108.66917240656916       97.74177094207533      118.23831751057328
H          109.08726562236259       98.80918474859534      119.57773252968536
H          111.47201128672310       98.72371305140763      118.93590058515494
H          111.08818091185856       97.65150767729446      117.58937742539970
H          110.23112787264814       95.94224487780124      119.18312265361793
H          111.90629514609827       96.36084028737478      119.54200460301112
H          110.60112636181742       97.01054619502546      120.53582951680900
H          118.70898431318895      100.89653142180688      120.09033939370319
H          119.78523197840801       99.50817595800932      119.93174247404825
H          120.25482714161463      101.06641789489967      119.25626893317575
C          112.45187314877498      128.88008388864540      118.75740458140177
C          111.49606324596861      128.23684089430861      117.76130673030875
C          110.71864174903337      129.27326676223495      116.95441867130128
C          109.76340506546690      128.61667513227874      115.96193896617531
C          109.01467005750439      129.63385735282148      115.10400277526712
C          108.11600301308705      128.94640030626300      114.07996793532668
C          107.36195593149984      129.93003152891794      113.18910626403505
C          106.56191267157702      129.21001647928449      112.10522290333778
C          105.74213133045058      130.17663441793002      111.25355273657459
C          104.86511591474300      129.47117876488363      110.21744695798458
C          105.64613178546327      128.90738937532365      109.03122355819281
C          104.72148055633092      128.19420917341515      108.04843689907317
C          105.44794354858605      127.65426759302903      106.81743668003837
C          104.49185619181928      126.84916242761393      105.94230823006703
C          105.11770204695445      126.29796315185526      104.66295718608748
C          104.17795109637723      125.30281998643109      103.98198078397363
C          104.69005290293845      124.82644496989303      102.62506639183204
C          103.82737860806519      123.69882113608824      102.06125545769258
C          104.28896396959296      123.24254818775619      100.67915485382363
C          103.47886853004816      122.05218844147674      100.16996063953592
C          103.93832496059552      121.58117271190191       98.79118855561296