3864
 energy: -5104.224096464094 gnorm: 0.000783876808 xtb: 6.6.1 (8d0f1dd)
C           59.52463679344205       63.90068867987044       44.92498690537870
C           59.86053429855127       62.97077986060071       43.94741563885094
C           58.85033594784213       62.50185050704406       43.11333960559335
C           57.53866717004523       62.90828514800150       43.28045823386197
C           57.21355302808301       63.80435597764326       44.28380177938492
C           58.21495600700031       64.31209149678972       45.09334109149768
C           61.28546360442663       62.51089464257625       43.75125529968443
C           62.11828995373128       63.68161607865807       43.21974489922982
C           61.93285421584421       61.94207506680546       45.02367247765880
C           61.57131211893735       60.47635996451007       45.31675417316200
C           62.53595982989882       59.88922113372653       46.31852165366370
C           63.20939803626486       58.70456079139727       46.05190131238194
C           64.08284210932374       58.15599468014121       46.97513270746659
C           64.30286727903753       58.79064533650595       48.18459954059342
C           63.63987097813741       59.97391509211266       48.46432796414933
C           62.76189669477432       60.51171103774379       47.54126700481470
C           60.13184898876567       60.34102815774056       45.83075179974932
C           59.63510709170315       58.88855802791524       45.87152165856226
C           59.66622537497598       58.24933797006706       44.50957841994968
C           59.00486558224572       58.81715102187873       43.42656799613436
C           59.06075374986366       58.22543457851783       42.17755537070121
C           59.75906752160400       57.04250626022620       41.99716915227137
C           60.39878565599999       56.45539294705873       43.07403268646569
C           60.35608121842780       57.05883075392702       44.31797778876747
C           58.21689906452993       58.85881224702828       46.45758066652821
C           57.58602575075405       57.46609534088469       46.54169313353568
C           58.45382925438752       56.45183588061413       47.24098507687341
C           58.49392589011349       55.14575333730966       46.76697191117147
C           59.20941808150899       54.16756006090343       47.43157868972575
C           59.91836130749607       54.48372978439807       48.57783100499812
C           59.90503591543152       55.78589551298666       49.04573793334278
C           59.16760311905372       56.75636040957372       48.39320730784514
C           56.22344343938834       57.55032047737078       47.27125215442444
C           55.02180344475329       57.36128532206229       46.33836397399396
C           55.00398068258237       58.39898581350550       45.24600363318434
C           54.77688273904020       59.74352555998006       45.52293950717044
C           54.72407835091273       60.67470438059591       44.50200871734417
C           54.90908352891917       60.28175526922119       43.18690598856060
C           55.15479293846393       58.95077196761093       42.90172842456348
C           55.19450663891892       58.02045116095001       43.92441682818164
C           53.70289928977926       57.39871538917451       47.12812940305427
C           53.38200987377792       56.07080867541891       47.83405559440541
C           52.47582119118164       56.32620214345476       49.01268392497275
C           52.88594670157489       56.01957237328714       50.30430666970433
C           52.06141133285492       56.26562678232176       51.38871471507832
C           50.81009349234326       56.82480728501146       51.19746163202847
C           50.39568908456642       57.14914413358189       49.91692591421642
C           51.22278487681349       56.90283646437844       48.83655328679130
C           52.75012404051943       55.07479987046139       46.85304670469040
C           52.65534669677505       53.65691990548483       47.43559501581231
C           54.03073552034813       53.08180989559165       47.65643761573990
C           54.87239147627120       52.79105301352551       46.58931147558279
C           56.12940073389578       52.25796062586851       46.80057000244414
C           56.57714419854560       52.01770577571984       48.08835814351652
C           55.75995685397118       52.32406840050182       49.16135211687699
C           54.49718815320461       52.84679707148102       48.94374706454191
C           51.78716525804340       52.77984624191989       46.52320285764998
C           51.55774016113448       51.35963562544354       47.07861572478847
C           52.65840940627213       50.43204065326106       46.63088446626590
C           53.57468479798194       49.92627308844611       47.54135438412950
C           54.60891029153475       49.10215692347794       47.13685055781308
C           54.74058983476208       48.76528157514623       45.80231655477061
C           53.83069483840877       49.25589559983362       44.88265975007687
C           52.80501345727548       50.08578671582362       45.29335545365402
C           50.16597981259996       50.85348456588313       46.67156014185275
C           49.66984090437234       49.65509089639005       47.48815781058571
C           50.43048222651926       48.38897037864290       47.18212575596259
C           50.40701665415934       47.82094620907613       45.91403839059259
C           51.07433979914659       46.63724762020607       45.65897156123074
C           51.77697457593184       45.99392181891005       46.66267926389796
C           51.80648958868724       46.54847283749294       47.92917526083748
C           51.13409725834319       47.73078878342439       48.18163940702009
C           48.17491286440919       49.39599226132180       47.23329033683343
C           47.21611047865731       50.47818587569277       47.75177913626368
C           45.81175230766020       50.12516951965893       47.32493545674004
C           45.06586249969066       50.98858083739626       46.53197318908526
C           43.77068129370490       50.66695817428950       46.15986103797854
C           43.20309605698042       49.47322642242334       46.56990217553645
C           43.93979345931852       48.60302657747548       47.35433734359670
C           45.22900263823526       48.92923086181278       47.73107768220191
C           47.28660468368059       50.65678216416217       49.28365091923473
C           47.98176682188735       51.95515010283273       49.71836645935616
C           47.47348666145786       53.17535596806930       48.98601375199163
C           48.36362006926516       54.15852667304874       48.57004548314418
C           47.91189146992074       55.31421537639755       47.95775352691308
C           46.55705353441013       55.50362851603604       47.74703285819189
C           45.65930749195967       54.53340281945986       48.15901064897350
C           46.11437920953877       53.38338676679884       48.77740528082780
C           47.77070976322310       52.23926720243876       51.21600800677162
C           48.33765653410001       51.20205635700695       52.19980470144854
C           47.67207687815661       51.43991802992187       53.53221584471406
C           47.92673741682582       52.58814206950934       54.27394629899518
C           47.26356373117797       52.81982700415706       55.46478770022762
C           46.33458626628695       51.90904589658120       55.93701163840751
C           46.08140664640446       50.75750553137648       55.21303001284778
C           46.74001106888532       50.53185956729335       54.01718134204256
C           49.86798804443007       51.26739693917898       52.28461565050846
C           50.44106769900839       50.36517582519931       53.38908795457788
C           50.00585267103219       48.93550138736172       53.18317146818813
C           49.16322337041215       48.31495842653965       54.09643561730990
C           48.71798913099758       47.02196090285767       53.88636577219987
C           49.12269667902387       46.31944071227983       52.76511416010549
C           49.98708706592802       46.91541536788386       51.86258312048495
C           50.42048622316465       48.21254725619320       52.07100481459654
C           51.97520015166676       50.45906447217524       53.44914826620379
C           52.49178299474838       51.73723825880801       54.13436209370936
C           53.90037987174111       52.03228690411678       53.68629499793732
C           54.92078515915811       51.11031121782183       53.88297346529156
C           56.21800475596540       51.39629143718815       53.49839679023933
C           56.51349284404513       52.60078623920231       52.88264639035928
C           55.50128656004133       53.51950435749671       52.66186458003079
C           54.20803945021957       53.23568956919647       53.06472520573511
C           52.41268296526793       51.61567933771670       55.66416292530644
C           52.90406679484953       52.86758418093874       56.40468497190087
C           52.23530143010143       54.12972710859538       55.91684844857271
C           53.01324893766269       55.22283677357352       55.55173407187413
C           52.42936797371486       56.39981959579997       55.11646384247470
C           51.05124616746791       56.50362750087257       55.03722211828779
C           50.26703479654145       55.42338178872487       55.40360239009413
C           50.85206540711644       54.24950210293812       55.84581450224792
C           52.68658911355339       52.72605702463311       57.92627362267523
C           53.82957553803001       52.00416475088741       58.65499196738054
C           53.42231386116051       51.55762414890805       60.04069462619369
C           53.91371257835044       50.35838343263617       60.54689963249243
C           53.61432801087307       49.94859626880731       61.83344840348369
C           52.79780659008984       50.72442677717633       62.63833003651463
C           52.28434322759639       51.90834543404584       62.14026597315026
C           52.60092492837205       52.32519756103127       60.85817947621870
C           55.09471202256540       52.89465822250243       58.73831857901018
C           56.24727993108617       52.38628600795356       57.85023717840854
C           57.07076708705031       53.54545371942030       57.34650595087594
C           56.98154196824187       53.92227473804045       56.01275427866768
C           57.72455911693854       54.97780196769044       55.51509705048749
C           58.58140385125640       55.67370343657466       56.34877278779611
C           58.66723827090378       55.32496309231721       57.68618451128714
C           57.91090486177535       54.27567109679434       58.18045492432889
C           57.10332894560707       51.34205836523712       58.58215190068530
C           57.81925444976027       50.37537959791251       57.61094654753503
C           57.11059711181914       49.04384418386879       57.64212999077425
C           56.16491935190821       48.74548106834536       56.67053435966529
C           55.46356938223121       47.55242544175734       56.69514689049258
C           55.71111106851158       46.62717792156477       57.69313692552876
C           56.64664342510528       46.91431550804635       58.67253743141317
C           57.33395381540711       48.11481063612415       58.65266777363832
C           59.31456660503578       50.22782998536291       57.92229027536392
C           60.13776165384707       51.47043428572305       57.53892660440288
H           61.29235188708583       61.72480499892077       42.98819874273996
H           63.01816157563275       62.00592439946524       44.90723722686014
H           61.65984797351732       62.56550107015154       45.87526534651406
H           61.65975403648812       59.91005316667252       44.38220137923992
H           60.08109040009647       60.75952566874970       46.83832583557527
H           59.47117832286971       60.93013089634653       45.19498203244549
H           60.29831811460195       58.31675035462678       46.53080400413489
H           58.25304303422958       59.28831043314536       47.45826180176943
H           57.56329644310956       59.48774027264038       45.84755933299529
H           57.41781957347740       57.11038994843405       45.51936877570747
H           56.14020942805920       58.51458144023116       47.77577075254256
H           55.11719230425009       56.37630783991691       45.86829940418237
H           53.75372175931064       58.19696171230413       47.87211045134131
H           52.88440913970198       57.64088804028216       46.44710139315612
H           54.31549779331748       55.63499964740807       48.20659967052156
H           51.74784271695727       55.41563291780258       46.58410788222231
H           53.34172463609370       55.04642571174723       45.93639576781642
H           52.15530605908834       53.73184266286940       48.40946957454181
H           50.82304329117711       53.28085158947965       46.40721905561737
H           52.23350580376322       52.71878333462764       45.53023639075217
H           51.58429581422480       51.41989968500829       48.17370485027200
H           49.80710912236603       49.88123458415239       48.55063380702897
H           48.01657531256043       49.29407228479279       46.15784399733037
H           47.91071685396450       48.44299888106504       47.69781256827051
H           47.47178155518078       51.43085241872834       47.27880308210737
H           46.27738787672394       50.63826990595552       49.69971110316094
H           47.81437564319840       49.80636412891849       49.71637809659799
H           49.05500042988110       51.87040272081212       49.52192859549903
H           48.20689981660190       53.21590619283648       51.44525760904325
H           46.69494100011781       52.31650851636599       51.39393400496371
H           48.05237591493888       50.20061370350517       51.86472275161286
H           50.28640592701033       50.96483192808301       51.32284850564527
H           50.17860235956192       52.29781223317013       52.46697538851567
H           50.03141598050281       50.70380776281043       54.34622773579473
H           52.35925481155954       49.58604279433205       53.98289785388814
H           52.37905288370678       50.41675100680569       52.43475752460935
H           51.86121065429479       52.57868243994964       53.83039735185852
H           51.37782646984318       51.41344681550626       55.94615799726114
H           53.01164880850201       50.76241153314904       55.99057837974464
H           53.97509231950927       52.98007144351980       56.21615941565820
H           52.56905602690004       53.72521387927677       58.35372702652274
H           51.75750160013497       52.17889630840507       58.10418236147415
H           54.08065936364719       51.09962297271828       58.09132414686662
H           54.83501530148862       53.91118550640372       58.43532081233616
H           55.44175520982566       52.94741275375955       59.77210523569192
H           55.80209469831425       51.90020373450493       56.97596884912792
H           57.83750877908621       51.84356697094090       59.21386459225038
H           56.45436212717136       50.76423583395528       59.24251810929501
H           60.28860099361005       64.32032536587147       45.56319812571224
H           57.98350339485048       65.04509647435857       45.85256486565110
H           56.18414306855794       64.10667757531337       44.42170947480820
H           56.76494060987704       62.53040973096609       42.62861629442607
H           59.09506770720180       61.80181090120455       42.32585456838848
H           63.04315728334775       58.20067928991160       45.11058703342486
H           64.58730853254747       57.22719779636147       46.75122244518516
H           64.98499755243526       58.36791336374529       48.90834386985868
H           63.80493378968806       60.47357435954646       49.40865401708162
H           62.24695767939180       61.43166103443500       47.77523107182400
H           58.43819302821289       59.72743292177736       43.55796028445108
H           58.55119978857219       58.68586837558220       41.34147757056445
H           59.79528348219436       56.57011197544544       41.02745563543431
H           60.92477333152126       55.52065165914392       42.93907169162743
H           60.85685521281746       56.59980183351929       45.15912689388242
H           57.95083345028596       54.89000386268459       45.86784222848490
H           59.21346887622995       53.15606096994495       47.05224079058135
H           60.47580683659059       53.72163458174391       49.10317222751912
H           60.46104608623647       56.05319921699144       49.93217543226064
H           59.14589079283560       57.75583265673483       48.80023408968514
H           56.18432357413827       56.77852943772314       48.04212521203823
H           54.63128362492628       60.06814005071961       46.54341821556194
H           54.53171587975826       61.71398404776772       44.72740842733954
H           54.85119137094845       61.01373542565196       42.39371847215072
H           55.31109503110507       58.62489919401512       41.88257078264288
H           55.36949321819812       56.98153284884823       43.68542362186908
H           53.86319868401146       55.58489995977583       50.46410614614307
H           52.39384218227149       56.02807329914854       52.38981412206070
H           50.16422125938889       57.01060609102245       52.04354579476890
H           49.42762445781325       57.60154469940972       49.75699876180983
H           50.89022299700727       57.17625634692410       47.84604150459307
H           54.53662199691289       52.96900175523005       45.57769999471271
H           56.76445480044151       52.02933438629686       45.95550623754225
H           57.55775449848151       51.59523102036459       48.25658749040525
H           56.10155337977252       52.15725725531527       50.17382367427727
H           53.86415258613314       53.07097206731988       49.79224880166660
H           53.48980871194902       50.20521610762958       48.58172640357400
H           55.31546926703564       48.72273979446604       47.86161376680864
H           55.55312186311988       48.12916576222180       45.47882138751464
H           53.92307003010018       48.98818149355455       43.83975773610326
H           52.11235234219658       50.47366053479831       44.56031287126450
H           49.46418181772925       51.67525337096925       46.81807482005641
H           50.15586343155709       50.60270435805869       45.61208738831118
H           49.85725803369107       48.30147129580850       45.11717972169541
H           51.04704413442999       46.21227010835022       44.66567480009179
H           52.29595104179653       45.06684226364475       46.46419808072985
H           52.35628289095421       46.05477550917934       48.71836752694090
H           51.15134607450818       48.15099944369035       49.17687633019298
H           45.49057315295187       51.93265298837022       46.21446396215404
H           43.20794874633506       51.35792986038322       45.54890676727970
H           42.18987640132005       49.21955865937512       46.29456074300021
H           43.51005189869810       47.66733360233816       47.68223270838139
H           45.77939719729562       48.25004292844974       48.36198985164366
H           49.42501259034052       54.02512871287515       48.72868763349194
H           48.61868494830472       56.06787388264425       47.64200221512084
H           46.20245005414342       56.40066817651016       47.26040886565862
H           44.59986141550944       54.67206705519410       47.99520377723608
H           45.40023715063825       52.63640271796798       49.08857033903053
H           48.64631588417804       53.31106631259814       53.91795429022867
H           47.46929331615202       53.71309661018750       56.03624779531079
H           45.81056317501081       52.10740102677109       56.86144128163328
H           45.37396182887730       50.02670185959335       55.57776909817686
H           46.52554004079290       49.63440350048167       53.45331103503045
H           48.83565970937045       48.85180204275680       54.97599032709681
H           48.04146009055495       46.56380759802988       54.59320739092191
H           48.75299858336323       45.31719357269841       52.59832552698128
H           50.31112971747863       46.36887184425154       50.98690797066747
H           51.09382209544757       48.67222871493242       51.36294428676555
H           54.69374711743683       50.15505267477372       54.33236606979933
H           57.00655829729499       50.68281941299922       53.68549704582504
H           57.52861611324053       52.82156698603578       52.58487801663003
H           55.72463507834808       54.46333427677404       52.18612996411758
H           53.42432877259922       53.96050467721832       52.89612620038238
H           54.09166096883642       55.15063660315614       55.60229725964810
H           53.05191914445813       57.23676482056727       54.83208605903978
H           50.59155128536406       57.41774322212873       54.68599912367484
H           49.19042964890447       55.49940975046852       55.33232112497073
H           50.22335644872651       53.41889643877685       56.13171402928260
H           54.53954313058578       49.73036240439443       59.92653779359755
H           54.02438420439939       49.02304544634211       62.21266604290752
H           52.56182795313384       50.40539695501539       63.64406035528199
H           51.64313738729159       52.51854697768603       62.76148400170453
H           52.19609771566438       53.25923837809398       60.49794029756459
H           56.32600916543164       53.37925134273867       55.34807884434009
H           57.63475769951627       55.25361560326883       54.47454559251740
H           59.18049868539459       56.48326480304284       55.95862891667338
H           59.32918805274438       55.87680491273914       58.34187119348741
H           57.97813319105850       54.01863582390595       59.22865262781881
H           58.05456561014421       48.32427683175043       59.43069302782396
H           56.84185630023025       46.19018988415629       59.45154060413331
H           55.18064891532909       45.68719270681687       57.71991536759332
H           54.73154700436364       47.34255230279354       55.92823514084423
H           55.98605854346912       49.45688202665947       55.87846348839229
H           63.12743012059369       63.35419045129677       42.97771686972698
H           61.66370696226433       64.09225946614397       42.32024567206618
H           62.18485580612481       64.47316551175022       43.96216494634901
H           57.72788139870919       50.77945995100253       56.60083820225762
H           59.43681238145285       50.04723229297880       58.99235534243695
H           59.70197610350413       49.35390327786136       57.39243595785697
C           60.73527681909616       51.39750843982031       56.12791620793455
C           61.27421182314258       51.67952004060664       58.51108877742681
C           61.38168441466971       52.86256739893061       59.23021655643474
C           62.42826431983828       53.06587789287402       60.11250252088874
C           63.38764763276195       52.08501429756151       60.28852681250940
C           63.29563717143095       50.90360182874145       59.57327661437859
C           62.24934129019558       50.70524593798320       58.69266054484882
H           60.64012429719899       53.63753625272986       59.09481795369135
H           62.49711362572111       53.99412677899229       60.66317895184083
H           64.20636925170372       52.24027967777423       60.97721943514654
H           64.04846443081388       50.13977247089538       59.70301539769420
H           62.19239908531889       49.78208027870659       58.13543063401341
C           59.71226777315574       51.42734719032912       54.98637450617613
H           61.40306743137392       52.25511786120389       56.01392302586778
H           61.34353416759244       50.49559283852298       56.03884567938664
C           60.42196494758451       51.75520510678110       53.70471497691993
C           61.13193400541300       50.77754485378679       53.01851863913070
C           61.85262385740470       51.09597520809447       51.88166902376297
C           61.87448968512359       52.40008966035292       51.41402410708368
C           61.16358451277165       53.37986420966897       52.08613536738312
C           60.44443764033329       53.05854932997639       53.22462297090123
H           61.11747074676976       49.76103389133311       53.38408011797154
H           62.40115980313622       50.32866192520711       51.35411862171041
H           62.44422372022594       52.64351614921636       50.52797368736825
H           61.17408865734359       54.39996880478147       51.72970204080682
H           59.89863328409934       53.82584171194743       53.75585624393050
H           59.48905279900806       52.35044436992730       57.58239706324190
H           59.22806278579090       50.45204231143121       54.90948206760602
H           58.95999217788891       52.19159447740651       55.19199746865411
C           42.46389778307399       53.18637350555664       34.83196522759822
C           42.82649430234556       52.01780707909222       35.49093917517921
C           44.17037244681409       51.65873316889391       35.50933371995993
C           45.12299435306618       52.43141647325337       34.86909304924650
C           44.74700676247264       53.57707549581527       34.18959196051406
C           43.41434308926424       53.95500317832560       34.18250493313685
C           41.81186582641477       51.14184693315072       36.18659670875049
C           41.21102930407131       51.87129446806185       37.38714222020401
C           40.72930995539168       50.66970941207568       35.20530319484725
C           39.73634381039370       49.64984721795533       35.79109902646649
C           38.72123119325281       49.28850163272433       34.73683734711899
C           37.38976446826160       49.65268753640832       34.89410998965506
C           36.44301488175096       49.32589782858226       33.93951393287627
C           36.81630570552043       48.62862955221710       32.80367870230945
C           38.14232696263345       48.26973582300484       32.62958415403146
C           39.08534504277971       48.59791951608194       33.58610097349024
C           40.45682610355667       48.40598617270703       36.32082917603475
C           39.51541571196335       47.34737281877309       36.91113074703874
C           38.68768848846580       47.93490204975932       38.02395280150670
C           37.30530133918822       48.00740740848867       37.90714894012797
C           36.53442848684321       48.55402190977377       38.91928145889942
C           37.13742278293559       49.04014426136913       40.06611754329681
C           38.51476965063735       48.97302744349033       40.19319129427161
C           39.28219214019162       48.42695139215073       39.18063579290884
C           40.35620579929429       46.15758411942940       37.39756909722479
C           39.52760117568668       45.03454379465960       38.03151558639912
C           38.51291675957442       44.51242752411964       37.04836316597029
C           37.15354589237546       44.68227151391515       37.27479525802123
C           36.21692873358175       44.22182594177195       36.36607293561143
C           36.62875297417154       43.57465447128741       35.21442033522551
C           37.98142784923215       43.38821985345038       34.98389220543518
C           38.91432856710517       43.85312825396444       35.89211727284948
C           40.44157656913809       43.89809479435547       38.53063172380398
C           40.77384603871564       43.99264905207156       40.02660961948949
C           41.63677438345364       45.18400930661000       40.35725970440433
C           41.13010216073546       46.23903274240939       41.10498542528192
C           41.92901682827648       47.31889418808385       41.44473385847252
C           43.25282436901345       47.35628927892505       41.04376692222753
C           43.76889301731303       46.31030802194903       40.29657912447605
C           42.96839617761708       45.23487310122910       39.95890570993490
C           41.46068408627142       42.69971247256917       40.50260287492579
C           40.46976194747378       41.55653227290050       40.76660195522422
C           41.17350835852145       40.22516872037491       40.82945744167323
C           40.80828797957739       39.19733204658509       39.96869217294274
C           41.41971306511029       37.95756767379542       40.04067995755990
C           42.40986312960058       37.72576913807696       40.97977696033109
C           42.79150740371044       38.74678295947601       41.83383234948615
C           42.18101354810084       39.98499831690062       41.75682972434208
C           39.69703401256364       41.79218185442687       42.06956558608149
C           38.54256818459367       40.80425108247232       42.26888217573458
C           37.66636571064392       40.71045569557083       41.04440307404824
C           37.37259133792332       39.47400511644389       40.48425396037807
C           36.57234073157963       39.37336066960907       39.35906168085786
C           36.05327286513834       40.51440160473656       38.77226942543417
C           36.32991929507438       41.75255657153651       39.32671108855053
C           37.12355413573457       41.84782533777867       40.45450270228460
C           37.66627978962884       41.21063250141604       43.46329516586768
C           38.43114573298333       41.36332691394767       44.78334626981837
C           39.13618071909840       40.09602617859612       45.19298174941214
C           40.46676465597827       40.15505701758072       45.59094695080421
C           41.15300921706234       39.01434708825195       45.96532330864424