3536
 energy: -3716.271944361528 gnorm: 0.000795717744 xtb: 6.6.1 (8d0f1dd)
C           67.11835159993390       51.69977533276064       39.80386001624856
C           67.93126940254059       50.74582541535565       40.67680795796098
C           68.10808210294165       49.41230224915841       39.95089100823392
C           67.25841514656217       50.51189082108515       42.03477184088005
C           67.32742726823571       51.69487951771443       43.01225146518709
C           68.72640825533966       51.82607027119978       43.61001545952426
C           66.26961859398033       51.49012190917600       44.10434582830074
C           66.16773226027951       52.57158313868918       45.19008649003175
C           65.14341552883049       52.11645571253774       46.22876694354932
C           65.77636355786707       53.92686276899244       44.59158780075926
C           65.84288759107018       55.13385746156024       45.54000189589460
C           65.13633062487676       56.31144143389789       44.87059155484847
C           67.29570898677207       55.49152044820376       45.86960037374492
C           67.48632331599970       56.57073468783669       46.94529389327722
C           68.89870139797115       57.14191413530511       46.82162472985620
C           67.26414119512850       56.01164225506464       48.35534410382125
C           66.99832359078812       57.08931239660390       49.41897705453831
C           67.51010266289506       56.61277840655531       50.77693347997722
C           65.50693852921383       57.43925329680114       49.50641481226459
C           65.23696487391651       58.82002757605370       50.13282919070728
C           63.91030552540543       58.82058296921257       50.88745033513671
C           65.26001305147011       59.88243533457844       49.02839681122286
C           65.17591295861948       61.35201479350250       49.46813728431162
C           64.90286083859550       62.21017801524424       48.23246386972668
C           66.46763913763752       61.77739480147575       50.17339031816965
C           66.53134481597233       63.21794177385571       50.69991657145071
C           67.95072490752526       63.47908523495614       51.21012277920521
C           65.51969039481362       63.49820252102104       51.82591412043568
C           64.19195248161125       64.12206297634489       51.37927469744750
C           64.38757347677756       65.55065189768823       50.86975218417665
C           63.11758503990994       64.05693483876129       52.47998754586141
C           63.32423486231696       64.93612548108523       53.72388694297397
C           64.05695015371724       64.17944981303745       54.83274494697101
C           61.97683091818283       65.41016258490323       54.29096797107299
C           61.18979434119851       66.41761024160658       53.44627201716403
C           61.94158988473573       67.74222840687281       53.30979676190061
C           59.81192239358001       66.70019186700705       54.06531274232974
C           58.88137307201571       65.49377836228901       54.24189361765028
C           58.66556841493689       64.75008443774794       52.92616446553687
C           57.53230812202062       65.95795805012472       54.81314389305303
C           56.79894434053582       64.86218170962751       55.60056541219406
C           55.29550769307043       65.12240106227755       55.59898859129898
C           57.33566029305506       64.77987496845392       57.03440345561734
C           57.02752383320314       63.45772501819211       57.74847506535411
C           57.35335224090168       63.59405388236886       59.23430501484119
C           57.78407571404145       62.27758088063629       57.10654485748417
C           56.85371143642350       61.18817473791325       56.55751947514725
C           56.31829779553220       60.32918266281557       57.70121037476017
C           57.55771294558767       60.28237783111167       55.54000690173085
C           57.88247855360824       60.91759509192538       54.18364230824730
C           56.61271036900450       61.36259161370335       53.45834361375764
C           58.63183129057476       59.91915662228637       53.28966706576244
C           60.05719906601691       59.56218627972965       53.72169021238732
C           60.96946786060733       60.78761836688788       53.65903483417118
C           60.64852918503959       58.46961623055703       52.81930999647467
C           59.95673804044371       57.10109498825250       52.83598042396773
C           60.04304670026824       56.45547556204625       54.21774270439586
C           60.60542882647797       56.17844199089460       51.79245404219551
C           60.21529500380549       56.48512979934719       50.33780480398352
C           58.84732637009903       55.89188138566890       50.01329319041921
C           61.29052938643301       55.93780182557205       49.39198927165835
C           61.17288348552310       56.32475050971927       47.90913179131702
C           62.32516131865199       55.65451270423162       47.16292647770891
C           61.19228912839820       57.85172742931312       47.74378953184230
C           61.44286133212142       58.39851631330333       46.33037265641963
C           61.58143653316557       59.91881640497872       46.41254936947732
C           60.31839093228567       58.00035390136661       45.36915051502589
C           60.54189023846085       58.33460222465717       43.88448707047537
C           59.27330674982277       57.98257556964934       43.10878121931592
C           61.76289200303593       57.57865684077275       43.34505586146077
C           62.06125798175385       57.69468262668725       41.84272358784283
C           63.20215323541179       56.73418735776117       41.50210641799896
C           62.42087247027234       59.13474292203811       41.46136775758696
C           62.61974458509132       59.40032380935582       39.96225991007032
C           63.30785143755758       60.75366272511324       39.78250854376088
C           61.28495129573336       59.37562470157405       39.20706377038043
C           61.43231033403643       59.29238084341732       37.67514273615664
C           60.66945625833084       60.43168122611405       36.99705195446687
C           60.92999329105609       57.95390018207810       37.11559854639675
C           61.69256060669056       56.71256757818569       37.59134623904481
C           63.08484520317091       56.65032536587745       36.96341173301310
C           60.92207576231790       55.43075076663844       37.23727263167346
C           59.67992567033171       55.15077425712327       38.09164045355043
C           60.07435985103859       54.76886279369232       39.51744659493777
C           58.84662054141074       54.00034910855513       37.50876254653821
C           58.20931114727370       54.22185304871900       36.13072744817756
C           57.25846112557277       55.41594298764718       36.14133037451260
C           57.47897749403612       52.93577030498752       35.71917314085725
C           57.12176512644114       52.86074167390878       34.23678626401363
C           56.51703421868464       51.50702004258404       33.88203893967421
H           66.13249441301176       51.28341189332226       39.60726168638755
H           66.99285980674554       52.66628736703267       40.28486853491352
H           67.61768119369749       51.86064549906743       38.85060117919361
H           55.62265357229234       51.32340240741152       34.47349973456534
H           56.24600066537040       51.46904510627434       32.82941202928030
H           57.22637806016802       50.70665717183152       34.08302495923587
H           58.11939524955454       52.08038325306561       35.95245604628827
H           56.56770023678815       52.83725467096867       36.31317126796237
H           59.48887004059652       53.11664825167795       37.45339753378668
H           58.04221484756539       53.77310458704407       38.21368998948365
H           59.05915743987990       56.04872321418226       38.13955985893581
H           60.66378721068234       55.54781272095231       39.99102340100004
H           59.18684110901316       54.60333123891165       40.12432256249055
H           60.66285689638065       53.85326703060051       39.50814428013287
H           60.63371842100614       55.49651805595511       36.18632938132694
H           61.59766296697499       54.57678611334466       37.33587951749939
H           59.87900627679674       57.85221478460567       37.39060063161320
H           60.97826925709827       57.99040791329174       36.02317511149819
H           58.99761294712702       54.40840728564225       35.39311672326370
H           57.80002030519081       56.33917269950989       36.32862928750625
H           56.75656576141495       55.51802580296033       35.18206651929077
H           56.50539463903251       55.29222365931905       36.91663867020354
H           61.81270421341272       56.76503768369142       38.67496560746041
H           63.66147994141694       57.54244516455773       37.19550681521562
H           63.63395376126243       55.78813164519292       37.33717956724079
H           63.01149213429649       56.56484198285654       35.88054419348115
H           62.48890323942757       59.40086249405761       37.41136557263715
H           59.60497255321547       60.35248760996060       37.20901943868622
H           61.02152021067364       61.39722674405705       37.35402494786855
H           60.80361532516002       60.39905560561089       35.91723775431020
H           60.69306010019862       58.52690988920563       39.54995139271038
H           60.73063794483265       60.27909722809037       39.47264918487295
H           63.27586088665093       58.63141470354945       39.54456252975719
H           63.44232735605044       60.98981876307654       38.72928413837806
H           62.70995047052234       61.54171606413249       40.23581538913336
H           64.28766828882263       60.75190158898447       40.25663915824830
H           61.63660691738644       59.80597366914380       41.81469714270166
H           63.34233240188465       59.40208726584432       41.98614768956106
H           61.17531779423986       57.38028394679529       41.28450192524125
H           64.11703205400454       57.03887576975504       42.00538760879981
H           62.95762940818791       55.72314125236237       41.82074319473301
H           63.39565921837616       56.70410794012393       40.43312704919776
H           62.65136432737904       57.91870914109223       43.88028633367404
H           61.62056594175895       56.51951840471666       43.57606893910557
H           60.70915037051059       59.41177900721408       43.78856601266174
H           58.40975573310815       58.46541961387269       43.56154661894849
H           59.33642565414046       58.31634243662813       42.07650473023054
H           59.10982204172694       56.90648386518056       43.11328217054557
H           60.15386880497238       56.92376587094609       45.44609770627449
H           59.40145601505078       58.49627369979741       45.70029018153041
H           62.39129070455827       57.99459343631684       45.96974647236408
H           61.82883025038796       60.34454819546723       45.44285806489515
H           60.65481200254876       60.36989786769287       46.76209733548623
H           62.37185262753292       60.19141717088057       47.10963988963260
H           60.24296053622710       58.25787155377838       48.10041585591526
H           61.98210112281220       58.24616372362906       48.38881491015886
H           60.23247539255839       55.93071714024285       47.51217132630893
H           63.27211139450279       56.11042361693801       47.44238745181042
H           62.36832319859232       54.59800785547405       47.41539128359631
H           62.20266769478923       55.73671866710231       46.08724503159347
H           62.26745052826714       56.28074466541544       49.74247369742601
H           61.28524350045362       54.84661513202345       49.46421904333538
H           60.15923101197869       57.56968512425997       50.21486792068485
H           58.87672746076881       54.80665918245110       50.09352752508853
H           58.08961892326156       56.26521704666494       50.69853385267172
H           58.54425592049705       56.15360964927466       49.00262062068597
H           61.69010413748032       56.25830107343963       51.90105326172033
H           60.33476584100422       55.14234852287149       52.01166829133503
H           58.90049876328732       57.22172212994789       52.57823217305361
H           59.57168224513419       55.47487464936402       54.20871609560861
H           61.08325174109697       56.33263127910489       54.51438236285922
H           59.54000805922323       57.06166610401742       54.96657107542282
H           60.65770468587640       58.85048708116446       51.79592943860970
H           61.69065848710436       58.31583576862843       53.11214329404097
H           60.05015766677210       59.19903576676175       54.75285803579605
H           60.66927720663808       61.54305182254183       54.38086356501825
H           61.99708788386144       60.50522178620249       53.87922780406787
H           60.94297707575008       61.23147662839709       52.66537382407589
H           58.03375596468192       59.00745848424219       53.24299518243222
H           58.68253988889150       60.32843192788192       52.27680455983965
H           58.51317676142371       61.79880977706816       54.33248713816525
H           55.91273979705481       60.53681361274876       53.36735371593010
H           56.11526306665652       62.17191058171489       53.98720284043650
H           56.85603434362847       61.71478917853076       52.45840522130848
H           58.48117999475107       59.92014306902018       55.99730586222958
H           56.91990492127888       59.41382918621217       55.35674600949036
H           56.00141374047583       61.67030805398745       56.06856867204518
H           55.86800933144318       60.94761240709217       58.47383532993127
H           55.56651124418752       59.63054671378378       57.33982348492252
H           57.12622668806387       59.75707668847289       58.15200450162122
H           58.41256288773523       62.65285699865674       56.29824414745364
H           58.45448097492535       61.82510153292268       57.84103803286605
H           55.95152108787017       63.27036487802610       57.66807553851859
H           58.39356332698498       63.87426149245103       59.37955282665072
H           56.72935239469391       64.35826574646714       59.69267629635640
H           57.18077425980706       62.65355740419631       59.75205139489843
H           58.41951237874916       64.92037848148209       57.02340445211692
H           56.91183371749289       65.60562948290335       57.61229872810902
H           56.97740401621897       63.90500869475773       55.10432423650210
H           54.77261085324061       64.38361677935147       56.20155374752495
H           55.08152522618145       66.10963364904336       56.00524759778438
H           54.89717261342724       65.07633605500943       54.58767180167168
H           57.68441657070962       66.81561550487686       55.47318434321125
H           56.90591261299004       66.29342902808877       53.98265359691899
H           59.33453723490362       64.80629812660860       54.96333238802502
H           57.88957168903702       63.99783213201924       53.03772113081672
H           58.35871078878422       65.44514254114547       52.14727345229034
H           59.57281936120653       64.24687275133545       52.60232672726830
H           59.96635393455658       67.16240212947342       55.04474876019913
H           59.29973861144094       67.43526355717206       53.43711853455050
H           61.03895317382653       66.01466145652834       52.44052341724295
H           62.87830238266827       67.61218515748592       52.77470959656913
H           61.34090598328159       68.46579469614491       52.76103581484679
H           62.16189399687641       68.16024417323345       54.29053281431165
H           61.36342104657734       64.52143292100361       54.44819684008910
H           62.15559607822285       65.86136959029834       55.26914786777014
H           63.92220220927111       65.81040798578098       53.45951145909452
H           63.45064877242405       63.34671893807771       55.18358187099971
H           65.00741938050835       63.78597212130963       54.48765866707293
H           64.25073250911873       64.83882199985918       55.67690520605321
H           62.17346381030543       64.34098699560910       52.01040864228786
H           63.01055039285699       63.01762664404686       52.80073914341912
H           63.79732653761666       63.53264952330925       50.54568304742439
H           64.94410727221619       66.15440896263145       51.58350070079305
H           64.94011092258685       65.55929738949507       49.93295200028416
H           63.42538292712835       66.02597512331917       50.69104278920889
H           65.31375627222127       62.56255352609344       52.35131073760428
H           65.98396754687400       64.18024802996463       52.54138898970553
H           66.35186032481072       63.90814556321361       49.87184927105373
H           68.68227736961197       63.31315802015539       50.42180900436894
H           68.05724280266303       64.50616077355357       51.55347696715177
H           68.18390453684545       62.81362921731367       52.03915234359722
H           66.64694464748553       61.10782748587302       51.01766298480717
H           67.29572576961959       61.63700979942090       49.47150921087561
H           64.33665266369557       61.46421525174065       50.15904442226481
H           64.77761859924252       63.25779940596138       48.49118258327206
H           65.72221240766932       62.12843756905284       47.52205224356553
H           63.99155823934749       61.88171515485242       47.73724742402422
H           66.17798121181927       59.75305021369289       48.44781497186516
H           64.41963418548177       59.67853843772158       48.35796938818707
H           66.03386537258817       59.03418286248127       50.85182369652119
H           63.75271481166575       59.76273357795461       51.40632234884223
H           63.07871907300936       58.66422661597731       50.20462180899580
H           63.89974248994477       58.02462965043880       51.62795673632161
H           65.06853660102085       57.41673478123793       48.50624376027304
H           65.00766703337503       56.66541644024873       50.09372321893259
H           67.55061067642278       57.99506615335765       49.14949365751951
H           68.59046443464862       56.48365023730674       50.75365191751831
H           67.27051216074388       57.33323685027145       51.55612356774815
H           67.05352224514968       55.65968752701774       51.03967948134783
H           66.42542720905260       55.31362561697271       48.35019042311348
H           68.15499733139549       55.44473502077143       48.63460367213350
H           66.77493171387141       57.38203383332215       46.77238323690074
H           69.63954242067405       56.35202205673283       46.93496340573104
H           69.04574029899707       57.60637104150566       45.84807917989368
H           69.08564814431276       57.89197832172376       47.58493172845694
H           67.82913543080528       54.59651047157124       46.19697126121687
H           67.77441100653125       55.82985767784373       44.94538961786260
H           65.30932879015981       54.89586862081216       46.46341551894116
H           65.67829041571500       56.61916120743678       43.97767648418191
H           64.12939634020185       56.02805252375101       44.57725580690304
H           65.06578652442050       57.16710561759149       45.53627664524200
H           66.42171259560210       54.14515231556022       43.73818671434023
H           64.75494980307927       53.84261373147246       44.21151538181046
H           67.13909024154522       52.65893376232050       45.68439456232080
H           65.05215234559826       52.84217467798067       47.03175592078733
H           64.16830214578530       51.98583780065477       45.76668265098447
H           65.44323648891594       51.16709816354512       46.66555025622533
H           65.29427523350478       51.40007561744756       43.62179038973935
H           66.47887733188627       50.53493406141871       44.59350083844638
H           67.09770112895848       52.61064522121627       42.46003929710424
H           68.93734860192657       50.98294291810979       44.26484574211844
H           69.48248224692773       51.84738057229016       42.82864079138857
H           68.81818943214249       52.74467740790141       44.18394747762259
H           66.21121678215840       50.26004248645167       41.85087584663389
H           67.72177134514803       49.64558565649918       42.51397666586186
H           68.92377166410216       51.18157979376535       40.83506203866299
H           68.57505081301544       49.56218438141958       38.97969113984459
H           68.73412634337571       48.73657449122970       40.52972807628480
H           67.14177314541192       48.93623770597925       39.79614649788950
H           56.40948907332678       53.64645130037112       33.97956828617887
H           58.02250912406883       53.02131247334641       33.63862696314668
C           37.97169981655903       39.61040193049546       46.72514501334355
C           38.91766177780724       40.74705218342027       46.34009268664073
C           38.70003048543797       41.12680111107230       44.87775073330251
C           40.37126865114080       40.33189173198340       46.59637853014133
C           41.37159700802225       41.49448651796779       46.62820162870681
C           42.79495798621930       40.93755521268472       46.61269524248491
C           41.15102923701364       42.39968232336572       47.85594405237345
C           40.70562483356608       43.82689162318557       47.51411547438576
C           41.88067386518816       44.62538330231450       46.95242860605830
C           40.14830567448649       44.54515720559614       48.75115894094802
C           38.73604117776227       44.11849574311827       49.16720983099380
C           37.69205647774889       44.71961162974248       48.22486750826852
C           38.41605384935072       44.56042116377461       50.60261147134142
C           39.19337687185714       43.86721418328658       51.73151930764100
C           39.00788074815896       42.35158204987103       51.69090394574236
C           38.70525803031627       44.43044846544026       53.07528572290713
C           39.63083722472224       44.19203093851547       54.27980985658765
C           38.84120044410760       44.44048422350006       55.56388545467529
C           40.85820932387994       45.10530525547802       54.18974497607876
C           41.88485249754676       45.02656181457135       55.33031326677505
C           43.05036771541185       45.95212866134769       54.97921569979385
C           42.35315284148371       43.58552399455498       55.56118042576490
C           43.53047351869051       43.40309234703633       56.53114798319754
C           43.86265055810669       41.91368841607957       56.62101249961908
C           43.19672530460148       43.99094120994091       57.90669147122647
C           44.24830428969882       43.79540169426499       59.00786954927414
C           43.71570501791962       44.40307861964670       60.30578033805993
C           45.58771697290102       44.42458317271534       58.60707209560037
C           46.71698632524524       44.32781269671051       59.64321847386793
C           47.95046730815678       45.04697946775262       59.09850263330434
C           47.02299520781605       42.86177380669867       59.97035486401690
C           48.11712299877793       42.60722348918186       61.01570063935418
C           48.38974469708867       41.10377178917521       61.07786221016803
C           47.69083569014480       43.14478008421720       62.38499106554787
C           48.77722515194912       43.16657013545366       63.46851091626464
C           48.09966096931396       43.37651476217783       64.82240098910549
C           49.81105818593267       44.26340943820480       63.18388399411839
C           51.07338729795802       44.20361169411825       64.05338510505828
C           51.83939360071712       45.52045900774137       63.94451444673457
C           51.98247058795623       43.02800218588847       63.66657915896484
C           52.78807705919347       42.47318275644174       64.84777839656195
C           53.84022395647943       41.48842291343294       64.33969287775651
C           51.86130714011211       41.80932909430067       65.88616745908118
C           51.93008913989689       42.43992281670128       67.28547830425170
C           53.23682053409604       42.04174452836413       67.96531518964902
C           50.70678142828483       41.99814225290920       68.10159540554683
C           50.53190348771476       42.64226423092802       69.48890003550683
C           49.96970790973369       41.60338937643439       70.46322861612873
C           49.59636804730036       43.86145374316985       69.48142174852184
C           50.14804396872558       45.15416988631482       68.86799338928719
C           51.31459257195902       45.70338639009135       69.68741326614702
C           49.03144879977046       46.21025573725338       68.77497540352785
C           48.19027532759652       46.11665962461870       67.49699083368198
C           48.98399109464419       46.66623658762422       66.31259500830146
C           46.88367543569933       46.91467830108031       67.59826803992607
C           45.80970071761767       46.41039973437456       68.56980479923838
C           45.48201771194547       44.93609144452351       68.33238336162181
C           44.52016413798923       47.23339515258100       68.40329153766629
C           44.62986996538006       48.72301533726356       68.75679992839332
C           44.79691962614271       48.90983352993972       70.26319853268556
C           43.39791649850049       49.47990303056201       68.24118715335787
C           43.53125006592881       51.01050008149032       68.18962391001781
C           42.20197291812246       51.60620933425297       67.72238259418957
C           44.67230835596344       51.45711595403417       67.25931315029244
C           45.99897165554813       51.74466488379181       67.98442526096980
C           46.02850962641737       53.18908448382791       68.47251188913079
C           47.17928319867291       51.43364088059346       67.05911314146982
C           48.58258556001594       51.54929721500709       67.67504572311640
C           49.59466353203398       51.10335098780287       66.61985984644571
C           48.68359434962034       50.72063688871874       68.96270143133682
C           50.08878421074884       50.49387254745060       69.53758349728577
C           49.95885832584828       49.63725160785666       70.79810055038425
C           50.80506347114613       51.81243524353768       69.84138584946822
C           52.27014815388603       51.68208300021714       70.28274665086731
C           52.79184459390486       53.07132120683460       70.65904875977473
C           53.17251007375641       51.06938338493999       69.19451783717643
C           53.47599509541664       49.57001835963806       69.32073864869434
C           54.26159191355385       49.26916089747220       70.59765301738386
C           54.31309399001657       49.07138490715681       68.13092183456212
C           53.67699798958575       49.15051726473179       66.73810186871528
C           52.39391931561168       48.32583221276032       66.65766779038127
C           54.64442915312515       48.63268699945182       65.66153648249210
C           55.97815298138179       49.37453612058126       65.51605535001325
C           55.76910818041566       50.85075992156664       65.18723385574432
C           56.82398354970850       48.71363076907458       64.41654418452482
C           58.33688387547028       48.90267408801500       64.61133080711869
C           59.04244395495827       48.88167700326890       63.25931871687924
C           58.89376247322944       47.81203073285928       65.53378452351858
C           60.28946012496654       48.11216432875059       66.07526868741857
C           60.82610765190835       46.95248441091552       66.90481917857605
H           38.19469061895676       38.71759201178727       46.14380698052209
H           38.07143034571580       39.36446790480286       47.78042888446056
H           36.93792157040272       39.89194343711179       46.53632520030483
H           61.80344168426151       47.19158628516271       67.31966055058703
H           60.14880151707548       46.72486720296434       67.72532086626545
H           60.92649611422405       46.05908462127454       66.29215839155074
H           58.21804236095491       47.67794540500591       66.38216035778294
H           58.91845495226222       46.86635053333786       64.98576065176346
H           56.61336534907691       47.64248381835336       64.38177983277346
H           56.52467272164282       49.13093934243783       63.45300642455513
H           56.52765630389207       49.29814945186697       66.46023370609231
H           55.29159121006949       51.37881030893030       66.00909041074121
H           56.72268942512231       51.33381997914256       64.98388012888422
H           55.14200434981961       50.95199645853178       64.30338462666265
H           54.85958971835137       47.58238872494218       65.87694272246171
H           54.12995674407052       48.66896183402115       64.69713171248297
H           55.24083251862252       49.64683722263423       68.12695128314454
H           54.57801263336520       48.02782441031852       68.31995917915614
H           58.51675309365292       49.87648292212191       65.08000492096886
H           58.71513706705077       49.71910419797924       62.64922720401879
H           60.12094759959412       48.94841310433821       63.37598612057707