3258
 energy: -3427.560955198370 gnorm: 0.000813705422 xtb: 6.6.1 (8d0f1dd)
C          114.09309100494970      111.70900088673235       94.75577143559282
C          112.79671960613429      111.12794828783791       95.30441864733935
C          111.60871048084820      112.04847958183700       95.03885712148849
C          110.29218999760592      111.43582710381990       95.50877648688954
C          109.08098655734844      112.32818335178665       95.23555020373379
C          109.01948971337791      113.55767722147459       96.13885358872302
C          107.79778174892829      114.42296018102014       95.84189565711333
C          107.69270577875893      115.61360951755258       96.79112615655754
C          106.45924011909750      116.46605169011569       96.50179662660337
C          106.19528409307379      117.52610860025577       97.57016964645118
C          107.19593588907158      118.67802296357286       97.55108758546922
C          106.91686492924170      119.67717408526181       98.67079930121706
C          107.80131078134602      120.91802678315889       98.58130731010323
C          107.56778746892491      121.84634464724925       99.76988202834663
C          108.23812547328015      123.21275414047412       99.63151126580772
C          109.76485472931353      123.17744083315469       99.55631033977785
C          110.42569325605571      122.63870972435291      100.82277304936214
C          111.94427798823662      122.77733341086829      100.76817175936048
C          112.62351360323535      122.27389799379422      102.03893452693495
C          114.12830747965508      122.51843716357840      102.00504004636046
C          114.84193598875352      122.02540555370861      103.26078369865370
C          116.29134150187448      122.50254784301355      103.30831481881404
C          117.02741139189332      121.96521612523070      104.53233373282002
C          118.41137049522834      122.58330146775940      104.74029649779415
C          119.36466801195759      122.44166273363136      103.55370606120555
C          119.66550905443385      120.99436686266456      103.17370940878222
C          120.61280652265295      120.91967785948965      101.98084234832540
C          120.86594049704789      119.49368350823094      101.50665148352313
C          121.79315187168687      119.46533791003486      100.29426585532379
C          122.04092311742833      118.05443877661983       99.76416401151313
C          120.86863538166095      117.50409893678881       98.95434460866254
C          121.00600264331405      116.00587433392266       98.68335329311283
C          120.60334970113870      115.15020617077225       99.88102288067354
C          120.89704140775108      113.67023876943296       99.65764609014337
C          120.54585950128340      112.83362914381971      100.88322590438032
C          120.92193914386282      111.36326237311309      100.72194773757461
C          120.63931455444634      110.58090733037218      102.00061902100683
C          121.11485381778172      109.13214396430449      101.93163952481439
C          120.78764181610867      108.34154239606963      103.20017697041975
C          121.54416328867467      108.85299665411141      104.42176781598937
C          121.18452183810399      108.13599312605065      105.72016676006959
C          122.01018992824464      108.69797458367285      106.87718993890086
C          121.45247189674967      108.38257434958346      108.26193383016390
C          121.40278354950117      106.89076792344957      108.58240730570208
C          121.22182416710376      106.62543328276860      110.07600269475563
C          119.91113386466337      107.17964714245630      110.62485547143517
C          119.76492096979858      106.91338905593885      112.11843825366954
C          118.47988673536858      107.48207654708735      112.71474728199208
C          118.41914413139514      109.00763650190787      112.73169450455381
C          117.23460057697937      109.49869899159225      113.55879063695765
C          117.11856417893775      111.01929813723892      113.59645708084730
C          115.96706146182660      111.48194108535424      114.48661061164434
C          115.73790776556319      112.98845953234279      114.40140584664417
C          114.53435112957411      113.44080609011905      115.22587260581794
C          114.22244088178530      114.91997051489486      115.01451540222938
C          113.06223833955960      115.40999529273138      115.87789454092355
C          112.75695270357102      116.88070707244445      115.60556337091323
C          111.49036215489501      117.39638374999919      116.28509459066915
C          111.56985789154380      117.44533576688940      117.80891023128515
C          110.37922894613422      118.20383795636262      118.39197151344844
C          110.38406271731698      118.21163762201259      119.91857145795420
C          109.41523280858384      119.23050759896049      120.51954248778054
C          107.94291193521887      118.92085278774019      120.25777729234801
C          107.03990424242537      120.00904054355102      120.83440487629019
C          105.55695535962489      119.75795843867768      120.57180903442737
C          104.69543913627307      120.91252646568293      121.07881386324735
C          103.20962641223568      120.70901977424812      120.79542276365406
C          102.36692336284192      121.89053178887397      121.26921000889578
C          100.87934568333498      121.68617487570663      120.99179515089477
C          100.04220102102745      122.86730962084830      121.47953252798406
C           98.53847447408833      122.66203094054750      121.28710703589702
C           98.11269496756630      122.73455113964735      119.82245425110348
C           96.60687750790611      122.56669430142735      119.61449985229876
C           96.11922484856653      121.15747030921132      119.94351183130931
C           94.68087897567686      120.91957585645574      119.48997244924530
C           94.12815752779971      119.56668552703513      119.93997753475205
C           94.91479062491452      118.37932510496807      119.39076568785202
C           94.25331926146156      117.04647519211979      119.73157440494396
C           95.08025980368353      115.85539191969860      119.25408923313441
C           94.39026910652990      114.52119648870233      119.52260830697730
C           95.11837168949268      113.32746656588598      118.90549176011207
C           96.46994287401883      113.01432257720711      119.54262802217248
C           97.16698290914204      111.85145520644176      118.83671692541584
C           98.37381354118203      111.34549275895053      119.62088176607141
C           99.17803573556520      110.29131655563165      118.86333141223362
C          100.26675988431813      109.68109578274652      119.74322464374380
C          101.21847351110780      108.76750175928082      118.97518835244028
C          102.23047483483721      108.10444483714846      119.90771496025152
C          103.26031379545923      107.25756559480884      119.16349041094227
C          104.17705427635539      106.50673295285131      120.12766829015688
C          105.31136550300440      105.77775649349000      119.41209887157621
C          106.13826687975565      104.92614866461764      120.37157117771459
C          107.34502377339824      104.27946230588984      119.69474472483074
C          108.04625551825630      103.28103339277493      120.61279943871642
C          109.32313132184964      102.71526214329045      119.99858023449623
C          109.97179471990097      101.65545618447175      120.88769982855447
C          111.27995079652230      101.14136145710840      120.29305691985992
C          111.91257451298762      100.01792544915246      121.11068823082618
C          113.21527025333947       99.53185968887837      120.47824273204692
C          113.82266458268427       98.33778712775576      121.20912875820733
C          115.10962314932431       97.85175028525320      120.54345786675988
C          115.69049951252330       96.63305495654558      121.25508656386592
C          117.01837110006714       96.14864708016988      120.67023988614257
C          116.90287061510642       95.54902805537907      119.26773894546636
C          118.16850873238828       94.77727509552554      118.89559520662127
C          118.12612133720849       94.15838355535482      117.49538465754185
C          118.51767939088708       95.13248867769448      116.38588360258332
C          118.48614605636170       94.46257220941241      115.01280739067690
C          119.08539109551774       95.33776639892189      113.91327857543389
C          118.95619515876825       94.69743123879793      112.53162145909296
C          119.74073214066959       95.45992200917063      111.46641095388657
C          119.49675455861143       94.91018109209485      110.06236582807854
C          120.45295720657413       95.51192396190021      109.03377104562634
C          120.10501507422602       95.12991012673135      107.59199910868313
C          118.98628160664120       95.99816802857487      107.02153806114943
C          118.60103060423235       95.61740467584640      105.59418828744647
C          117.57033850232644       96.58203823794646      105.00909522199215
C          117.08076288168745       96.14547526312568      103.63020292475660
C          115.98849426437749       97.06389803056540      103.08742523853941
C          115.48745070819609       96.61521958144114      101.72077946176431
H          115.15288168585474       97.07746188847624      103.79073752945817
H          116.37592778516704       98.08234745643021      103.01262010482222
H          117.92318999036758       96.13038956282352      102.93347007822656
H          116.68984187489775       95.12647849928324      103.69324334016912
H          116.71436059203324       96.64953535165395      105.68588954774602
H          118.01018648259237       97.57997605359148      104.93965527339321
H          119.49334785420538       95.61572102152778      104.96260491712104
H          118.19490609659623       94.60207664815843      105.58633365102737
H          118.10447581923221       95.92033900113124      107.66046456630386
H          119.31640735201985       97.03946880319897      107.03321143718028
H          120.99204388623494       95.24632171077550      106.96379936156289
H          119.81471350104658       94.07700067132618      107.55394653465970
H          120.44188264621680       96.60122108437149      109.12052810038557
H          121.46684620595832       95.17524964392977      109.26551230525642
H          119.62778243603756       93.82528122258034      110.07429977701325
H          118.46389022285693       95.11398608583474      109.77417778661395
H          119.45553782583036       96.51327699924418      111.49701577825333
H          120.80735740349743       95.40260411046812      111.69770943193298
H          119.31892731099639       93.66706353175380      112.57534981097814
H          117.90222514934227       94.66191990828958      112.24571558412978
H          118.58868684838880       96.31093290699988      113.90501560229485
H          120.14218531198334       95.51106599876725      114.13252540255014
H          119.04531133661246       93.52404142360223      115.05936909953097
H          117.45308020876273       94.21267799043281      114.76004359958365
H          117.84170444345457       95.98895188388940      116.38966879373226
H          119.52696542988551       95.50355634495544      116.58050337637505
H          118.81630856034276       93.31106599192421      117.46438470291993
H          117.12394901861985       93.76843383087741      117.30217409804843
H          119.03253152453206       95.44195672705477      118.96897010079506
H          118.30838836654215       93.97918525826427      119.62965804734404
H          116.04932755528294       94.86713903428313      119.23744857442848
H          116.72442033556210       96.33661766287021      118.53528277560957
H          117.73095840478851       96.97691226743305      120.65392872623497
H          117.42309071614557       95.38351158884490      121.33870490982686
H          115.84703753274306       96.88524287138947      122.30757176782727
H          114.96514052235089       95.81598788437157      121.21975799700732
H          114.89919538612338       97.59586765675745      119.50316871672069
H          115.84547700977926       98.65942288610766      120.54848854002584
H          114.03266955710568       98.61365043913361      122.24575501260638
H          113.09771163352835       97.51935103797992      121.22881734275222
H          113.02027718537556       99.24754607085364      119.44144885103970
H          113.93709010357691      100.35108584073693      120.46406841487580
H          112.10845597461555      100.36911765399242      122.12677312193921
H          111.21067351205437       99.18219205145009      121.18238043396977
H          111.08990663070807      100.77954406714116      119.28062568553658
H          111.98861697445584      101.96852954783206      120.21617299539494
H          110.16154181980241      102.07558237474947      121.87862128954482
H          109.27822485950348      100.81975162217209      121.01677029840830
H          109.09204261277009      102.27542346354045      119.02624345383509
H          110.03247469403966      103.52934081352974      119.83053856350406
H          108.29305066120044      103.76930186903043      121.55840933517958
H          107.35923566875465      102.46154713746641      120.84073063782181
H          107.01873790600438      103.76027766183643      118.79034241379772
H          108.05161915245816      105.05765001167472      119.39538509434848
H          106.48510545202993      105.55143737620561      121.19820290129037
H          105.50127851838276      104.14416444241013      120.79468262205364
H          104.89439984185282      105.13845485320100      118.63044904458792
H          105.96084310405236      106.50897322983295      118.92786834193015
H          104.60311502568521      107.21355932067387      120.84430175147227
H          103.58376087626638      105.78390089145202      120.69542243728134
H          102.74420621973955      106.54154323773480      118.51899439716472
H          103.86143672884155      107.90114712799688      118.51640110203731
H          102.74941622575561      108.87634751106114      120.48288585081629
H          101.69712231834308      107.47198457126017      120.62373847921120
H          100.64433330281553      107.99793514090911      118.45377686537027
H          101.74867549318436      109.35181989505590      118.21960324357335
H          100.84240662854785      110.48511094577492      120.20851689086889
H           99.79662246504171      109.11064313272108      120.54996819990568
H           98.50847769277891      109.50260078346712      118.51293210369404
H           99.63681171478214      110.75128201880439      117.98487804349068
H           99.02848034703410      112.18583636325029      119.86315924582458
H           98.02319524177342      110.91962326561971      120.56470452832811
H           96.45908821490731      111.03006493856884      118.70297738973446
H           97.48754187192077      112.17450732140705      117.84336632024930
H           97.11615672003941      113.89272508899701      119.50157344198907
H           96.32151366165174      112.76157012369852      120.59545735915307
H           94.47723042619306      112.44663727496429      118.99752866091683
H           95.26220925459798      113.51183540201585      117.83859659841829
H           94.28699443627025      114.37296157680649      120.60053081516855
H           93.38091484886382      114.56031289064640      119.10351804482220
H           95.26378142548060      115.95521261602235      118.18166013621169
H           96.04654429650488      115.86903535073756      119.76019845680118
H           94.11523305464003      116.97776633605294      120.81409767093817
H           93.26410146761108      117.01050824804500      119.26822120987843
H           94.99595782067468      118.47308052554830      118.30554201722116
H           95.92264065698232      118.38998735564992      119.80569880854105
H           94.12601992340316      119.52527592077938      121.03283935187390
H           93.09022638900475      119.48705318372555      119.60905923114971
H           94.04484628764918      121.71154989795890      119.89539780122190
H           94.63008434478552      120.98564135728843      118.40032139812229
H           96.77599834342917      120.44077603316529      119.44815648120036
H           96.18234761233576      120.98786792242582      121.02023723706093
H           96.06722961379354      123.29621834937697      120.22372488460302
H           96.37575776412210      122.78033994567603      118.56719672220069
H           98.41890352087165      123.70296060374439      119.41732644641972
H           98.62900589020509      121.95948267398437      119.25528453167217
H           98.26304713103836      121.69304122007981      121.70614819809549
H           98.00092932435923      123.43152356081349      121.84771027270828
H          100.24217998546924      123.01862127897118      122.54383312647424
H          100.35415350298919      123.77526900488888      120.95655330707328
H          100.73626109510488      121.54582789664343      119.91940438752729
H          100.53966925455353      120.77658264561036      121.49289907587946
H          102.51933636180968      122.03505482460787      122.34226323188958
H          102.70590125601964      122.80092503807734      120.76717127408376
H          103.06187252684300      120.56779667616630      119.72281792204454
H          102.86656983236230      119.80209688477717      121.29911010396260
H          104.84537667620135      121.02907655536005      122.15541505762357
H          105.02546477300123      121.83944993874401      120.60197977453166
H          105.39511395305558      119.63586532186129      119.49848478416945
H          105.25005306682606      118.83050019542515      121.06028061019754
H          107.20694495597421      120.08398769138012      121.91225066831687
H          107.32008921750536      120.96936714515749      120.39277362194207
H          107.77147520696454      118.84927627105805      119.18237118239787
H          107.68648370918132      117.95567083516514      120.70182678049704
H          109.57659788322093      119.27896518895488      121.60058971409333
H          109.64647814377291      120.21926922954674      120.11357848044888
H          110.14589997046464      117.21297911277891      120.29064077908262
H          111.39275304689372      118.45739344993211      120.26224772204884
H          110.40618922914534      119.23581976770534      118.03075732880185
H          109.45694732533644      117.74822753335660      118.02713288362709
H          111.59079176209285      116.43311051817352      118.21591468803933
H          112.49613745551322      117.94242830308265      118.11010226791660
H          111.29255996917030      118.40705833100185      115.91617982825352
H          110.64399375252106      116.77215472451110      115.99178548920523
H          113.60868379586431      117.48752204668891      115.92450315982673
H          112.64256693820654      117.01860390398687      114.52743790776383
H          112.17382416158354      114.80964820197482      115.66452453504836
H          113.31431184729041      115.27334632402130      116.93145919019848
H          115.11177273182113      115.51393818452891      115.23813137803427
H          113.97772062017152      115.08549345060584      113.96112813720076
H          113.66086513948717      112.84537084075080      114.94859655438454
H          114.72892173213343      113.25676274802727      116.28622230462101
H          116.63155917023283      113.51638882310844      114.74564023754918
H          115.57957174060640      113.26313704849085      113.35544507996134
H          115.05352553530629      110.96414131172662      114.18705355521470
H          116.17362021601787      111.20256550388922      115.52349625681629
H          118.05456759434880      111.44497135571442      113.96597054653587
H          116.96414356154588      111.39517877039751      112.58117996476950
H          116.31426784102263      109.08096771746230      113.14455833490314
H          117.33590346747339      109.12438728138602      114.58109170316915
H          119.34621735484995      109.40168953603666      113.15378335176848
H          118.32895907610749      109.39418890605332      111.71520485837981
H          117.62215076953933      107.09008416187839      112.16430293379247
H          118.39618301312561      107.12778803044010      113.74604544261808
H          119.78111111100939      105.83257387656055      112.28718985797842
H          120.62017046668409      107.34542176140309      112.64207046859418
H          119.87784873502332      108.25510886931644      110.45162030244838
H          119.07625042199986      106.72086981917728      110.08933810217080
H          121.25501654730422      105.54733724843432      110.25440159691304
H          122.05579637224076      107.07592316617864      110.62126150483489
H          120.58816827911254      106.42035305633304      108.02757683585624
H          122.33588504552441      106.42620656882336      108.25599701036396
H          122.08240055142528      108.87950661596932      109.00625870448961
H          120.45088855966652      108.81017984619847      108.34093662333152
H          123.03429313920390      108.32383665361169      106.80109764749233
H          122.05283963268995      109.78493925287503      106.77317868821160
H          120.12044817068782      108.28005518901585      105.92501113816321
H          121.36225912270277      107.06396651890041      105.61874290630243
H          122.61670162337921      108.75299417308645      104.24105901974292
H          121.32577234251323      109.91296327533993      104.55935484924093
H          119.71258332607157      108.39822133659013      103.38786580500214
H          121.04287035474712      107.29101369654011      103.03623028649777
H          120.64151717532761      108.64228456218149      101.07652123471222
H          122.19468651375679      109.11384582457045      101.76378242287592
H          121.14196932844412      111.09085943561344      102.82455883211556
H          119.56684650422766      110.59767452401867      102.20527795801634
H          120.36698526744284      110.92901936346367       99.88687764880095
H          121.98619718400369      111.28885885097742      100.48352498111379
H          121.07293523811039      113.23932290333697      101.75161283540197
H          119.47391299024025      112.91414138312618      101.08208068695791
H          120.33053794717065      113.31199639199491       98.79530268980486
H          121.95821825458478      113.54412950230005       99.42893453365998
H          121.14294600558689      115.48708449316537      100.76917121573614
H          119.53674840682504      115.28006316107225      100.07584830676831
H          120.37905325706848      115.73257022356765       97.83059501941781
H          122.04145248160928      115.78793929123896       98.41665287311375
H          119.93137481398016      117.68240747069186       99.48406605535338
H          120.81161205698835      118.04425048218279       98.00491839192344
H          122.92873777133244      118.05838982391778       99.12583027068582
H          122.24747643383105      117.39483495552302      100.60743301174780
H          121.37173758602420      120.08296517999722       99.49719338690019
H          122.74935297964740      119.91341021171129      100.57863392793493
H          121.31085235491669      118.91130697310274      102.31586927234113
H          119.91038482336157      119.03200648398382      101.25199719447662
H          120.18469581963970      121.48769242411257      101.15207996547043
H          121.56297661083552      121.39373344112695      102.24066217610559
H          120.10397463022873      120.47452607370919      104.02790733971572
H          118.73659979085917      120.48160567328298      102.91781810521812
H          118.94833448363381      122.96404413893276      102.68924767778662
H          120.30378014345574      122.94436675300736      103.80346406753372
H          118.29066273876880      123.64848661297712      104.95352865100175
H          118.86841335892905      122.12112794974024      105.61959197213484
H          116.42496236708163      122.17340628161757      105.42054084034702
H          117.11393555176325      120.87964147336508      104.45092533829298
H          116.79727622759380      122.18146640286120      102.39607686673553
H          116.30826864807048      123.59591336358523      103.32932537155487
H          114.31343036457885      122.38840723683855      104.14584353475823
H          114.81569248390562      120.93315835388367      103.29074828340832
H          114.55336976421503      122.02209804183654      101.12871336636202
H          114.30883201999423      123.59035427070198      101.88857826432140
H          112.19434853667067      122.78823999791958      102.90288521718533
H          112.42856823321269      121.20694171127694      102.16190314634059
H          112.32829575966224      122.22308999663684       99.90703695994382
H          112.20266645003406      123.82919895452576      100.61866764613541
H          110.04679439488326      123.18908777285797      101.68794112019097
H          110.16729214001843      121.58661282848676      100.95514959004166
H          110.07691560775898      122.57837530967478       98.69853801015937
H          110.11968959894456      124.19789001384598       99.38257150985721
H          107.85725789345886      123.70095296730257       98.72986801196136
H          107.94402121345443      123.83163325488607      100.48466920915261
H          106.49184042949479      122.00744086398366       99.87506381618168
H          107.91296248599947      121.35545545325154      100.68038839892914
H          108.84730760539669      120.60933617513174       98.54822442816834
H          107.58168578537141      121.45063869851266       97.65205127316345
H          105.86709436056042      119.98109870042830       98.63073253785146
H          107.07882561204900      119.18903955773732       99.63567764764737
H          108.21037987128769      118.29122259251122       97.66175059758481
H          107.13925130593246      119.18902866661963       96.58627736812804
H          105.19220605342502      117.93452307198143       97.42105656995180
H          106.21370121005981      117.05188275229440       98.55386799110113
H          106.56627256351575      116.94836566154709       95.52685273938279
H          105.58853287578172      115.80808658786526       96.44693504236243
H          107.63813146468434      115.24496392390390       97.81718690402300
H          108.59532487882609      116.22126052459694       96.70426118688125
H          107.84949219749150      114.78134857951380       94.81038452186766
H          106.89395796235371      113.81355012948531       95.92914845221101
H          108.98473933890881      113.23284805206799       97.18152361396282
H          109.91966088065125      114.16118114269918       96.00942871538285
H          109.09730781685008      112.64523904689699       94.18964640499749
H          108.16910854777981      111.74176338311815       95.38126936509855
H          110.14949584369920      110.48179977076286       94.99370870338763
H          110.35297035629020      111.22541435459844       96.57972457672422
H          111.77958258395498      112.99920004834183       95.54785654441271
H          111.54461181633535      112.25438803699865       93.96707374393907
H          112.61164147298771      110.15411517704338       94.84321810598286
H          112.89588559560939      110.97061144426911       96.38058808085867
H          114.28886387906340      112.68508610876475       95.19440444036665
H          114.93247520984102      111.05625570923213       94.98235173793664
H          114.03231804494889      111.82831769920654       93.67573475997078
H          115.07359773630961       95.61051735104959      101.77587173001956
H          114.71072564264927       97.28562674533936      101.35950052976908
H          116.30088881576091       96.60880675820313      100.99786520720801
C           87.44781222620097      110.66353729002793      114.07459416547651
C           88.65798254869743      110.49044425126833      113.16543145535032
C           89.58889304169494      109.38781466502483      113.66185913352101
C           90.81931517106656      109.21869108017148      112.77463791086227
C           91.71440150901059      108.08127721096365      113.25840041032120
C           92.96445073934855      107.90894074345428      112.40009397077367
C           93.81681807147720      106.73458580976396      112.87317725553424
C           95.10446404699263      106.58016423789124      112.06942391632313
C           95.92268971488727      105.37897262423463      112.53460388146003
C           97.25027024650869      105.25313453738072      111.79412544232133
C           98.04200602326803      104.02998947279781      112.24675478692795
C           99.40381023427328      103.93515748231097      111.56726884554048
C          100.17588359788074      102.69115706918159      111.99654707582937
C          101.55638252359968      102.62378375147865      111.35286920153622
C          102.34351539690617      101.38598404244020      111.77375039655746
C          103.68986079370215      101.31311524055566      111.05907169295445
C          104.55741938043607      100.13434381649813      111.50317291165864
C          105.30615124880678      100.36613692943645      112.81750662548686
C          106.48856216943716      101.32123489002909      112.67161789696321
C          107.33401333802166      101.40012011282394      113.94030920127614
C          108.46428265701326      102.41714125845945      113.80588526150193