3258
 energy: -3427.557969610706 gnorm: 0.000957102215 xtb: 6.6.1 (8d0f1dd)
C          114.09280425745921      111.70967177839694       94.75592688294103
C          112.79649719411273      111.12838929797881       95.30475799525702
C          111.60880150935996      112.04948198192402       95.03892632379188
C          110.29222739481355      111.43636475862354       95.50863187637157
C          109.08100750690620      112.32883437643127       95.23521170700455
C          109.01952453457153      113.55821960487202       96.13893978694421
C          107.79738160359676      114.42317040711647       95.84182683973609
C          107.69301494802561      115.61399430061654       96.79122612657473
C          106.45950660191102      116.46663898365533       96.50176766951058
C          106.19541447110073      117.52667875040130       97.57030160260123
C          107.19672264846092      118.67826677745384       97.55102118591248
C          106.91748874227119      119.67741806792083       98.67090073504755
C          107.80215576530227      120.91829626088445       98.58092366441367
C          107.56830023981871      121.84620638650445       99.76999760824663
C          108.23881922651636      123.21267685892367       99.63170081710039
C          109.76542262213766      123.17742428992494       99.55617392960116
C          110.42624290084336      122.63879481617046      100.82288377632000
C          111.94500317031746      122.77764374107406      100.76765701307156
C          112.62373670296518      122.27432877965717      102.03903068640503
C          114.12878695140429      122.51875900333796      102.00451093735600
C          114.84219247492972      122.02541709656633      103.26059579616390
C          116.29184737405951      122.50294528304518      103.30761980170824
C          117.02776163822431      121.96527085455286      104.53193712995687
C          118.41190297228707      122.58372841885604      104.73996275106585
C          119.36492967702169      122.44220036199673      103.55292643044717
C          119.66576376141468      120.99445091509997      103.17341785933924
C          120.61330871466458      120.92010713759740      101.98030945021098
C          120.86603463487870      119.49365341819957      101.50630649099138
C          121.79347660737750      119.46552388689162      100.29370219909653
C          122.04097151081915      118.05417291695518       99.76400876512049
C          120.86819195906332      117.50409265605300       98.95415718811783
C          121.00605670684148      116.00582402452991       98.68274273711454
C          120.60344912889597      115.15024535256113       99.88095800071555
C          120.89721033783714      113.67001028481268       99.65722447174629
C          120.54578751826266      112.83380003876015      100.88342760709516
C          120.92191182046720      111.36316811642386      100.72171650786112
C          120.63911854156629      110.58145321982629      102.00112541665463
C          121.11444217327572      109.13231919115842      101.93158118249859
C          120.78670575477426      108.34179901293449      103.20029886486286
C          121.54325894963166      108.85392358148762      104.42204551963148
C          121.18331780222753      108.13609754012886      105.72038313454662
C          122.00935285406425      108.69848556260804      106.87739555167248
C          121.45150912309789      108.38301372085482      108.26244124097555
C          121.40193293264120      106.89072463876944      108.58228091302144
C          121.22160611001735      106.62559675331561      110.07625429538223
C          119.91063784673591      107.18042680556874      110.62470152804553
C          119.76518988705321      106.91368951422464      112.11860728415864
C          118.47969486563169      107.48218562393629      112.71491989293801
C          118.41936046763190      109.00814960542797      112.73162425713194
C          117.23458808722414      109.49897809032717      113.55926403011631
C          117.11906612107400      111.02001882770149      113.59658223039327
C          115.96700497642533      111.48207464787879      114.48693869331292
C          115.73799458708284      112.98893738898713      114.40121239614068
C          114.53409176845152      113.44069151878260      115.22619904321584
C          114.22263792235798      114.92028182904271      115.01461301496008
C          113.06226160043295      115.41020936749472      115.87841458437028
C          112.75737825952149      116.88133526796331      115.60585335113637
C          111.49043527670068      117.39673135714770      116.28561946480583
C          111.57024612791113      117.44519593809382      117.80963957231326
C          110.37909868096212      118.20390411243456      118.39204233141908
C          110.38382888492259      118.21121721203562      119.91888820530389
C          109.41468884280272      119.23025017682372      120.51910512061704
C          107.94231826861522      118.92023454760769      120.25700164128097
C          107.03956000447094      120.00881342948560      120.83373459997988
C          105.55653176863441      119.75707071260521      120.57119509858617
C          104.69526008683546      120.91209001415641      121.07802575726718
C          103.20932619740655      120.70807967687188      120.79489741118891
C          102.36701745619943      121.89021578511240      121.26827252356318
C          100.87938083585689      121.68499596432342      120.99126794708529
C          100.04220667467730      122.86644969855132      121.47852855569214
C           98.53855021543851      122.66077814953927      121.28667832555918
C           98.11287285381431      122.73320661598753      119.82187840253732
C           96.60694423029018      122.56582038652816      119.61395217211971
C           96.11940061487023      121.15645620134289      119.94302214540620
C           94.68063600104013      120.91924968574946      119.48994749406287
C           94.12785385941964      119.56655414508822      119.94056214712352
C           94.91499126157078      118.37924547042084      119.39110034487445
C           94.25335844048239      117.04618286959216      119.73180574949177
C           95.08098281903996      115.85518614641968      119.25430355625441
C           94.39064357472805      114.52089911457361      119.52289009390147
C           95.11867938779677      113.32695578445886      118.90561591332002
C           96.47060428456423      113.01431400679940      119.54299241226802
C           97.16754586436149      111.85125730076795      118.83667658451446
C           98.37458584336484      111.34572492247926      119.62131582152139
C           99.17867517152742      110.29120998613796      118.86343862474187
C          100.26729855646042      109.68102197749643      119.74402734122552
C          101.21884581416215      108.76712565415501      118.97549259979833
C          102.23084360656242      108.10443283595876      119.90883198891245
C          103.26068096807177      107.25734794875719      119.16419628614513
C          104.17714110271869      106.50646442208094      120.12914996731394
C          105.31164103979867      105.77746165940690      119.41319797661515
C          106.13829870784824      104.92569272638160      120.37325717866790
C          107.34519115679328      104.27907515853197      119.69591130744756
C          108.04626955423898      103.28048788196726      120.61437878694599
C          109.32328132414875      102.71490834633195      119.99957147246589
C          109.97194875261221      101.65502012015496      120.88898995276124
C          111.28016734027861      101.14108470581725      120.29373709673143
C          111.91279009349758      100.01750751748425      121.11156144437624
C          113.21553279694912       99.53176103147719      120.47851881378523
C          113.82293637928684       98.33751735669706      121.20946027303332
C          115.11005951162876       97.85204636527907      120.54345821162427
C          115.69051694140148       96.63290344348967      121.25485835233290
C          117.01819781454182       96.14885007378929      120.66973135749980
C          116.90218683680445       95.54945997520329      119.26713181515295
C          118.16788372058906       94.77762804811981      118.89520440258137
C          118.12534430747787       94.15872211815136      117.49517923736002
C          118.51696764601155       95.13303033948057      116.38578452537858
C          118.48505120393159       94.46276947625938      115.01278992900210
C          119.08424206282218       95.33807451327216      113.91315667333433
C          118.95471180879430       94.69739706308090      112.53153459815258
C          119.73967412625417       95.46008375680853      111.46655326574084
C          119.49549206016755       94.91016938309596      110.06241745789004
C          120.45207157903070       95.51205294061475      109.03395722726356
C          120.10437672655239       95.12986995760988      107.59216239846481
C          118.98538809673634       95.99808419242973      107.02169367951562
C          118.60025908133332       95.61669519452204      105.59428916043596
C          117.56995471945731       96.58195862532205      105.00905622252192
C          117.08032612774166       96.14518486535279      103.63000636654532
C          115.98790713161233       97.06397879652367      103.08755430918613
C          115.48668388941734       96.61504086943121      101.72078995567625
H          115.15247158899366       97.07813611772569      103.79125299801180
H          116.37504544880649       98.08261636809999      103.01266267318653
H          117.92240005979765       96.13088616140125      102.93364131313906
H          116.68873256967738       95.12698733286530      103.69353810971104
H          116.71378535240270       96.65046461090174      105.68571779221020
H          118.01019365300854       97.57978935116645      104.93967302003252
H          119.49227568282917       95.61561787441964      104.96322440105625
H          118.19343747924232       94.60223977477297      105.58702705835904
H          118.10355934623688       95.92074815510215      107.66072751936301
H          119.31549171569107       97.03953405810530      107.03303469810362
H          120.99108612479762       95.24764768517673      106.96442848837522
H          119.81380889648531       94.07754500610297      107.55425487260847
H          120.44153737305697       96.60149351096612      109.12052789363747
H          121.46520522953927       95.17473753942110      109.26591415925236
H          119.62736717036590       93.82588164931369      110.07484667174616
H          118.46249389056300       95.11364565534635      109.77443445024328
H          119.45465500093536       96.51365746294360      111.49735911127408
H          120.80590613484738       95.40226441205343      111.69766833450002
H          119.31782994784739       93.66776759059567      112.57546716426550
H          117.90085931273897       94.66216096391602      112.24540661607458
H          118.58811424519844       96.31179082703513      113.90460509865073
H          120.14090692032171       95.51088217520537      114.13198174717405
H          119.04505412029411       93.52538038041061      115.05941791918418
H          117.45214291539105       94.21251045863048      114.76023661725554
H          117.84154620456697       95.99011190534453      116.38953698068383
H          119.52636377271683       95.50351468926439      116.57990909119403
H          118.81593080865250       93.31228235611292      117.46373703101145
H          117.12327904031005       93.76895846286222      117.30188926219176
H          119.03194416671847       95.44203736551589      118.96874206834946
H          118.30672739983335       93.97958285403180      119.62890893562827
H          116.04879480045045       94.86769215689409      119.23717475233498
H          116.72331685089861       96.33692674337929      118.53446262318040
H          117.73105006415813       96.97683725438210      120.65359021849478
H          117.42236135528856       95.38323837583393      121.33733230212620
H          115.84695392937934       96.88522083829284      122.30693923215206
H          114.96510601979317       95.81637633465786      121.21860873269578
H          114.89971336834959       97.59674181118608      119.50294811359180
H          115.84595386170248       98.65974470507928      120.54900436545982
H          114.03310181568240       98.61403884524887      122.24534347078188
H          113.09817256670480       97.51950818527447      121.22816900062426
H          113.02032715526774       99.24792364763022      119.44152272541524
H          113.93715125781547      100.35120405568789      120.46403459504398
H          112.10909237391202      100.36950419477198      122.12667724170926
H          111.21102767130104       99.18237474680956      121.18227113380895
H          111.08990772161135      100.77969495099254      119.28107962760510
H          111.98867656972826      101.96847092078895      120.21630291815977
H          110.16218902306569      102.07582192651873      121.87893405141395
H          109.27864627799511      100.81983415695440      121.01697970476577
H          109.09201559656974      102.27548693997794      119.02703988575206
H          110.03244843633063      103.52918889262160      119.83089831550969
H          108.29343407931330      103.76902448603542      121.55919353840598
H          107.35951451683511      102.46133109757957      120.84085293942874
H          107.01878225095734      103.76005473979920      118.79155482078558
H          108.05169538679625      105.05723773867062      119.39593467250383
H          106.48526253070199      105.55124975803895      121.19900850605946
H          105.50137887430238      104.14382051053532      120.79478546740599
H          104.89453653600268      105.13842053841439      118.63165834265706
H          105.96106833823957      106.50856573510448      118.92853118262332
H          104.60307508636038      107.21334712373016      120.84516820406513
H          103.58368579331967      105.78348793090254      120.69515423593531
H          102.74420316968434      106.54150901226080      118.52019124440538
H          103.86151948212481      107.90048724638862      118.51621169850952
H          102.74949029734204      108.87643197734548      120.48339855353376
H          101.69720360584714      107.47168923065931      120.62334064139225
H          100.64429454568560      107.99750472353278      118.45513954877708
H          101.74836598189107      109.35067058978096      118.21865528649373
H          100.84268744957549      110.48496485921682      120.20897348344984
H           99.79680887306421      109.11009215851652      120.54933659441323
H           98.50889466754202      109.50274040355582      118.51372318593509
H           99.63729894467531      110.75081951492112      117.98464844656529
H           99.02884154108904      112.18631317132883      119.86287603371328
H           98.02370235598245      110.91958184323572      120.56428607859280
H           96.45983216902424      111.03004201877333      118.70332116033525
H           97.48820186643732      112.17433580682274      117.84335133296949
H           97.11696871651444      113.89250662155297      119.50157832138092
H           96.32198063983381      112.76106080353060      120.59521733391725
H           94.47797245305016      112.44624438862974      118.99845935941852
H           95.26281138849488      113.51088223765289      117.83867774665143
H           94.28833835236107      114.37264520725168      120.60041268790151
H           93.38190537067230      114.55987962762882      119.10334108148477
H           95.26536917605951      115.95470719248505      118.18194897164251
H           96.04697630567378      115.86835495673900      119.76089053628337
H           94.11616139974832      116.97684259156672      120.81394687102633
H           93.26479926717147      117.00956638586284      119.26798198758914
H           94.99704081319614      118.47252299656603      118.30585692475793
H           95.92273972604727      118.38923504795839      119.80617979650849
H           94.12706780187712      119.52467523524417      121.03295804058125
H           93.09042057966553      119.48595297895208      119.60947384635658
H           94.04540680138696      121.71034595352234      119.89672916671493
H           94.62901618443387      120.98540428978473      118.40044589965130
H           96.77590305924301      120.43931581310770      119.44740594741202
H           96.18243078505081      120.98687428894432      121.01945673890125
H           96.06795617672900      123.29416096258382      120.22410792316333
H           96.37543369191856      122.77953731891957      118.56683495310848
H           98.41879720218621      123.70151709208290      119.41720668647744
H           98.62925841099693      121.95826481631285      119.25430583731971
H           98.26314196251610      121.69203837001497      121.70618319257871
H           98.00124847506254      123.43062329296824      121.84610863347316
H          100.24234444579966      123.01726249839410      122.54242094398661
H          100.35381575271356      123.77373506913693      120.95491391848428
H          100.73600818068060      121.54286469202340      119.91898549100134
H          100.54040217456915      120.77573693042243      121.49341044850406
H          102.51927057195857      122.03394567401526      122.34088121961048
H          102.70558868513714      122.80000893488003      120.76574810459499
H          103.06082010545910      120.56474506612335      119.72244847978503
H          102.86649521410759      119.80182827053393      121.29975144933010
H          104.84476758368453      121.02759776521138      122.15420770144604
H          105.02518815046638      121.83841376145647      120.60091109456563
H          105.39409966380245      119.63358714854562      119.49793127678505
H          105.25010940010401      118.82981947186616      121.06027188143833
H          107.20615410051744      120.08248441493828      121.91115095924549
H          107.31967160824608      120.96862717570905      120.39194193199641
H          107.77093829679545      118.84836803222667      119.18149331481992
H          107.68559003278079      117.95514495905509      120.70091597303382
H          109.57551938660617      119.27810906606771      121.59966039155661
H          109.64575621262701      120.21821553636256      120.11234512357943
H          110.14601412207763      117.21237633967868      120.29038704800773
H          111.39221342597068      118.45752553358453      120.26132808104236
H          110.40710000182465      119.23549841807154      118.03111195456201
H          109.45704132573188      117.74862860561814      118.02593774536990
H          111.59115309960517      116.43276184243791      118.21569909385413
H          112.49588806485329      117.94255148325912      118.10958351829922
H          111.29351831294682      118.40719615621981      115.91685432980854
H          110.64395255966900      116.77285994081801      115.99146675113478
H          113.60863653152796      117.48691266767113      115.92585593712313
H          112.64327294020849      117.01914156869263      114.52770332473402
H          112.17405307468987      114.80953576022482      115.66524553118667
H          113.31519874724125      115.27395691630454      116.93124485920301
H          115.11189375725307      115.51292824217974      115.23914044963955
H          113.97830026132731      115.08592212391062      113.96127092241191
H          113.66084323661705      112.84468740355778      114.94962237188751
H          114.72987293423832      113.25737393420468      116.28575992578067
H          116.63113295235117      113.51616132985635      114.74588868509328
H          115.58004387153288      113.26317095527298      113.35522582390854
H          115.05389709565283      110.96387744943458      114.18712601320337
H          116.17410333067282      111.20318673663616      115.52319870284894
H          118.05463872380689      111.44475025201731      113.96681964411989
H          116.96502845263619      111.39578373431860      112.58145443544146
H          116.31444329812706      109.08117897155509      113.14514246951668
H          117.33678384516691      109.12523148848462      114.58116691428893
H          119.34605104165222      109.40148013172825      113.15402553372812
H          118.32889712630131      109.39451500915904      111.71540298536989
H          117.62233144224243      107.09019742110361      112.16439221611245
H          118.39653497544347      107.12861379342421      113.74607041916266
H          119.78092958379386      105.83311840037864      112.28672823214430
H          120.61996921344230      107.34629197397771      112.64179927572177
H          119.87790507668925      108.25577950007990      110.45199972227904
H          119.07593877371066      106.72136258559323      110.08964773444200
H          121.25357047321307      105.54784137175929      110.25452926524636
H          122.05504777274039      107.07642563827359      110.62117230923057
H          120.58708274043943      106.42053458776834      108.02830479605403
H          122.33506833133393      106.42696444707873      108.25614311253561
H          122.08188873179071      108.87896181599004      109.00641732417868
H          120.45014309507243      108.81046634402503      108.34147490638841
H          123.03287702442054      108.32412288901497      106.80139696231261
H          122.05114249676946      109.78527109369415      106.77361630767555
H          120.11961389249781      108.28050985413365      105.92530379736496
H          121.36163690525805      107.06459065517275      105.61900887711487
H          122.61542252829776      108.75387206953427      104.24166897088514
H          121.32368191032522      109.91343194891292      104.56022102306740
H          119.71191006267719      108.39901086900016      103.38812733182506
H          121.04251316527640      107.29183779678193      103.03696815697786
H          120.63979678303149      108.64294246383845      101.07753801678169
H          122.19383953034236      109.11380784111543      101.76417125063904
H          121.14214242403405      111.09130943640380      102.82468369649368
H          119.56687498798634      110.59825439917356      102.20621332176972
H          120.36649241746299      110.92887638017540       99.88770944289712
H          121.98590201297638      111.28882108206085      100.48440131373509
H          121.07284277126138      113.23899964239006      101.75181623934226
H          119.47403550969204      112.91423054050463      101.08225801288648
H          120.32988113409849      113.31190335342892       98.79607456558014
H          121.95804548325961      113.54364442569685       99.42906023910810
H          121.14270514345523      115.48677934186436      100.76937089815493
H          119.53696345880226      115.27953533595080      100.07570040575494
H          120.37835851871340      115.73259611976331       97.83133727136932
H          122.04136110839589      115.78791566648734       98.41662286051165
H          119.93131640079962      117.68182742919460       99.48433427621376
H          120.81199264855755      118.04380518521471       98.00534807301902
H          122.92818343162156      118.05833508554677       99.12564348663072
H          122.24770272925558      117.39486475551151      100.60755650605272
H          121.37162294770481      120.08251510664049       99.49725755313182
H          122.74931799848594      119.91300436978946      100.57883211795784
H          121.31046511855301      118.91121624501281      102.31573019762358
H          119.91040090959666      119.03249805089604      101.25181203844004
H          120.18479093363304      121.48742348007114      101.15193983753402
H          121.56316807363517      121.39356774331294      102.24060273194996
H          120.10398272775889      120.47468914218905      104.02768874726665
H          118.73704944298777      120.48160661985186      102.91754540981273
H          118.94796177580692      122.96350417557031      102.68876455995846
H          120.30382079172888      122.94424633703892      103.80271779064448
H          118.29068227228680      123.64855145743894      104.95263732637157
H          118.86862529269446      122.12130245288218      105.61909058662543
H          116.42537710929800      122.17367237491970      105.41988144418518
H          117.11433581930309      120.87971671056759      104.45069819856765
H          116.79754842753424      122.18140534711856      102.39582076750631
H          116.30878399531289      123.59578176914147      103.32963884315197
H          114.31398476142527      122.38806891971389      104.14580804875720
H          114.81637149530793      120.93321731622451      103.29086906999868
H          114.55347926096914      122.02171561365856      101.12898468558514
H          114.30932278173765      123.59027554313310      101.88904016110455
H          112.19520446086891      122.78905269418681      102.90285333837903
H          112.42897867829775      121.20745172800885      102.16337402806354
H          112.32939969275965      122.22303549182948       99.90749470031179
H          112.20308610322029      123.82915845184357      100.61940179746351
H          110.04810478153745      123.18929646649055      101.68817165055965
H          110.16799127032726      121.58668833395647      100.95617001468315
H          110.07752960316202      122.57792983977878       98.69921690807027
H          110.12013135563150      124.19748859413899       99.38360134597910
H          107.85852418948708      123.69933764232690       98.72977379754167
H          107.94436736158033      123.83156726404980      100.48449982952511
H          106.49252543199307      122.00731274279242       99.87444698074712
H          107.91273391654222      121.35459165727065      100.68068412160497
H          108.84804481049302      120.60977776654627       98.54768202315779
H          107.58133563793720      121.45095270959442       97.65282497182922
H          105.86806102664967      119.98125044613811       98.63035509101533
H          107.07911238597003      119.18959290499508       99.63626660893379
H          108.21098226759496      118.29127739632831       97.66139046099897
H          107.13885631573383      119.18935248093921       96.58712273651896
H          105.19299592310701      117.93560193032664       97.42052876510279
H          106.21300536844663      117.05268972443766       98.55432919620961
H          106.56797498592697      116.94936488669430       95.52797101615553
H          105.58892549259667      115.80899101172379       96.44672553432363
H          107.63924863676947      115.24579229854120       97.81768886728619
H          108.59555719736768      116.22124466791890       96.70358644269679
H          107.85019560114371      114.78199398010628       94.81130831768573
H          106.89380424718054      113.81389337786976       95.92911240141900
H          108.98557142830010      113.23358516603464       97.18191405203679
H          109.91925191593755      114.16187932980019       96.00909168476149
H          109.09885015795001      112.64679241455043       94.19031003392917
H          108.16926295818601      111.74244487740170       95.38026295799283
H          110.14977048812062      110.48300196158208       94.99291846115889
H          110.35284462304520      111.22503588668037       96.57960344261109
H          111.77975534110965      113.00018916069362       95.54769165453158
H          111.54467356386752      112.25399951216282       93.96755905561490
H          112.61123718261190      110.15516598999645       94.84314606431784
H          112.89530631471553      110.97046760630275       96.38103630830140
H          114.28865197216520      112.68581991550901       95.19430072476094
H          114.93202285304912      111.05660387252945       94.98204408630986
H          114.03071018289636      111.82850253274594       93.67628608032166
H          115.07284781872073       95.61063378638690      101.77659647991337
H          114.70995122876887       97.28575106622854      101.35986846464111
H          116.30036274187647       96.60875045949200      100.99849803469235
C           87.44895605906470      110.66306639972471      114.07527222837454
C           88.65850378674735      110.49058609801440      113.16549315200631
C           89.58895245710762      109.38763560899541      113.66223991547523
C           90.81922572631740      109.21841026511332      112.77460032421837
C           91.71404559045955      108.08073881331066      113.25881769984414
C           92.96413703668625      107.90856942042414      112.40010825754656
C           93.81635779380295      106.73395159136517      112.87360319229342
C           95.10419717711490      106.57986022353255      112.06954538739654
C           95.92224018752016      105.37831887358367      112.53512108936638
C           97.25008671888276      105.25295327841091      111.79438807914661
C           98.04158497676684      104.02938027771417      112.24739398768924
C           99.40372275168974      103.93519611312355      111.56772086184894
C          100.17552284639808      102.69067417890373      111.99722766219769
C          101.55645437243125      102.62414953822235      111.35355094330664
C          102.34337083555327      101.38582592928880      111.77458368347942
C          103.69012105620743      101.31374513098254      111.05982668220786
C          104.55751287511346      100.13437112677752      111.50395049869518
C          105.30602372915072      100.36629246515385      112.81851766161465
C          106.48876796663104      101.32138169136299      112.67183780833518
C          107.33395136505521      101.39980541548950      113.94117803391610
C          108.46426757782744      102.41720592686130      113.80610018389119