3864
 energy: -5104.222266608100 gnorm: 0.000778678346 xtb: 6.6.1 (8d0f1dd)
C           44.26002902433199       42.54872939773517       52.71477315262773
C           44.27282191036067       41.19963204087571       52.38481168280217
C           43.14567428205642       40.43870650245493       52.66907179894415
C           42.03952591337150       41.01389689099518       53.26670825606200
C           42.03449181180449       42.36093778996448       53.58429384612162
C           43.15180541292509       43.12819881539128       53.30560250207088
C           45.48008092074991       40.59777514027102       51.70879871435601
C           45.97261365688551       39.35504875635991       52.44789944235049
C           45.12770297160124       40.28651284504564       50.24522796592555
C           46.30571652288210       39.84966885548165       49.35601701220878
C           45.75316072094878       39.40286233786968       48.02489973584292
C           45.74817216718579       38.05857146950849       47.67528540937605
C           45.23855650471436       37.63969990403158       46.45809382665006
C           44.72551313134689       38.56452739221188       45.56584609571543
C           44.72157347868049       39.90707271176422       45.90374132958771
C           45.22452335970141       40.31897612323367       47.12248951494620
C           47.33609881894220       40.97130298665245       49.18724071788397
C           48.49382691366714       40.59819962258691       48.25115735672627
C           49.37105105654653       39.54104011662469       48.86830277253809
C           49.46375853244848       38.28294812165767       48.28950744417458
C           50.29412216634116       37.31835981405184       48.82944036425762
C           51.03759976459814       37.59048362675659       49.96392917104254
C           50.94791006453858       38.83791809765368       50.55535646113719
C           50.12627599548138       39.80382711502156       50.00533277863327
C           49.32006084018106       41.84856051108998       47.90704063158549
C           48.73749815733517       42.64541887942389       46.72343814124666
C           48.93095590064581       44.12027124230860       46.96455495160154
C           47.83966371638519       44.93847088416914       47.22422169189723
C           48.00517405430093       46.29244028464283       47.45810251118164
C           49.26941769332346       46.85156876473102       47.40554342927146
C           50.36772695407017       46.04443804912437       47.15962321272040
C           50.20037604612437       44.68742001643891       46.95883753412684
C           49.37821216521531       42.19795179923447       45.40135335008492
C           48.95341219702640       43.07311861434166       44.21712220368624
C           47.52675501152467       42.85003258020805       43.78697895414489
C           47.05921452010238       41.59650182974330       43.41123389998484
C           45.76656110329960       41.43284636790332       42.94625495899320
C           44.92143546207299       42.52581719267008       42.84238956347323
C           45.36855702259982       43.77828827417608       43.22522362588736
C           46.66018047576299       43.93260726299190       43.69301631589455
C           49.89025395442629       42.88024160239561       43.00940549784277
C           51.23703921230900       43.61630872194635       43.18030103848722
C           52.33302336731288       42.62679125423062       43.50714782722601
C           53.00467643026403       42.66489909695801       44.72171032093584
C           53.95616651404527       41.71018477313756       45.04188093344155
C           54.26267189853314       40.70171598601998       44.14517078301358
C           53.61880195751049       40.66544679790847       42.91874436141243
C           52.66801598532231       41.61946375366557       42.60744382140023
C           51.66413744777704       44.44534109681094       41.95320059057288
C           50.62081087568851       45.39341914454349       41.33159273356288
C           51.32237133220668       46.25923423251042       40.31185174516460
C           51.11240743990758       46.05196267830816       38.95429244243574
C           51.72464674259350       46.85006493917487       38.00408453347752
C           52.56231397874510       47.87755155916121       38.40075126473690
C           52.79612402495784       48.08497965557065       39.75001311937179
C           52.18772287642985       47.27899053152030       40.69496349406673
C           49.89439535381683       46.24844038180386       42.37496332992440
C           48.94982485841632       47.27990349358530       41.73772867968161
C           48.58990047583617       48.35218174064884       42.73434330809604
C           48.15711324182622       48.04804160403500       44.01948782405373
C           47.87362082633327       49.05115813401901       44.92841554736268
C           48.02353631647710       50.37804654825681       44.56863384092193
C           48.42148045562197       50.69191743162808       43.28210122876656
C           48.69858979843647       49.68840833215877       42.37449514593904
C           47.68124493428044       46.63185944097837       41.13747248435693
C           47.48499515199092       47.02630231933519       39.66765465571758
C           47.32387642605179       48.51850369937139       39.50628161352095
C           48.19546648993276       49.23890921841608       38.69930468275775
C           48.01908409251460       50.59719263128958       38.49548817018688
C           46.96784237273576       51.25794619170542       39.10666993646381
C           46.09775368257211       50.55441841175485       39.92190042920291
C           46.27577642451187       49.19795436071976       40.11506122501375
C           46.25615009492748       46.36582964353998       39.02182180410518
C           46.33069534330892       44.84467014153158       38.82202846295005
C           44.94831295363235       44.32923056963241       38.50277167585695
C           44.31525299481056       43.44440285675154       39.36624629498605
C           43.03200515668482       42.99360435706757       39.11075719469898
C           42.35917611174282       43.42293663957013       37.98064627376953
C           42.98154912550341       44.29973394821550       37.10773351124547
C           44.26341922711961       44.75001602982717       37.36734319117478
C           47.32612157164065       44.47065910668962       37.71820428543488
C           47.59618845774424       42.95930379935071       37.62693567777965
C           48.28820086549414       42.65288105579839       36.32321190777571
C           47.62322732066688       41.94484050372030       35.33023296445725
C           48.23510074657109       41.67058170884184       34.11965979875912
C           49.52754788421918       42.10479666072742       33.87968775418113
C           50.19964811706199       42.81696958348611       34.85828257429823
C           49.58323937948426       43.08865353622572       36.06611673818536
C           48.40994529069498       42.47080977326165       38.82910758545560
C           48.67519097923144       40.95777007781559       38.83159167202266
C           47.40172226668309       40.17911945946103       38.63586152432679
C           47.26428339342897       39.32680710653721       37.54801624608678
C           46.09956706985049       38.60524532730430       37.35364480533212
C           45.04934164211546       38.72897131018482       38.24665384255470
C           45.17498705226190       39.57768809355757       39.33280351203653
C           46.34076245092282       40.29462927498466       39.52646964895661
C           49.35204888013607       40.60372276776812       40.16216938402550
C           49.57251109768307       39.10534897163335       40.39629271632283
C           50.49298085496156       38.49197727511582       39.37504319031613
C           51.81872473936302       38.89264244734919       39.25287817457211
C           52.65630763923151       38.29614621454203       38.32833692755632
C           52.18272667860867       37.28961989685142       37.50464772550863
C           50.86370353180211       36.88455500018586       37.61385688054025
C           50.02970720449410       37.48076224522149       38.54281777400835
C           50.11386524151990       38.90713790380381       41.81824228870950
C           50.35537495467953       37.43993585166005       42.18594886907206
C           49.12143588261932       36.60311915964787       41.97194995698854
C           47.90577426809229       36.95768267541890       42.54704986562528
C           46.77151795826146       36.19677484323367       42.33650491391088
C           46.83302614306644       35.05535902983485       41.55572620511118
C           48.04025049619957       34.68211485297928       40.99075397881136
C           49.17185223482711       35.45282512150050       41.19579994966321
C           50.81788033549407       37.35525470214665       43.64756308432835
C           51.54788968659130       36.04368142245925       43.95929584255868
C           52.87434877523738       35.97665095019675       43.24725645355907
C           53.15309930138343       34.93087386927895       42.37714176338829
C           54.37293766124956       34.85338933919208       41.72745443784309
C           55.33549539568821       35.82509813146442       41.93909334790320
C           55.06872770343741       36.87462856324323       42.80121752699020
C           53.84878059001674       36.94796214476142       43.44689485166440
C           51.72024059312400       35.92074093096583       45.47791266786587
C           52.53106217147090       34.70075482154602       45.93295155450905
C           52.05903551456737       33.41120409927998       45.31354029224631
C           52.97360174284761       32.53576978771442       44.74115927793177
C           52.56813306252611       31.31713564602251       44.22704362456464
C           51.23276240495189       30.95555320174484       44.27025324094394
C           50.30975151572406       31.82197907489433       44.83012318892093
C           50.72153290478965       33.03466715092159       45.35117463520578
C           52.42894517238031       34.59492416602493       47.46167085123707
C           53.32737915659364       33.50857333044414       48.06453475350531
C           54.74577694980523       33.98032038476451       48.26177162009779
C           55.80401511112942       33.25991543799726       47.72306502778712
C           57.11368689622800       33.65671757062244       47.92850204181765
C           57.38672806233095       34.79321045181247       48.66878050885882
C           56.34194856035580       35.52584525799306       49.20277885453795
C           55.03560562827884       35.11779468408056       49.00692411492108
C           52.72808399536047       33.03003576224938       49.39333079327300
C           53.42031975918685       31.78490775021075       49.96068685009528
C           53.43978758182871       30.66225503226326       48.95612639175731
C           52.27012307395280       30.20872976961086       48.35615293636263
C           52.30224115640858       29.19292260957764       47.41890691048031
C           53.50558964928044       28.60371796947769       47.07086656147885
C           54.67558269372724       29.03770228745503       47.67005658618559
C           54.64040090912273       30.05985209438825       48.60241754704623
C           52.69281886894294       31.36368768239932       51.24297115634593
C           53.36293057595872       30.21506514436469       52.00842767426492
H           46.27420619679067       41.35061252330486       51.73284003642744
H           44.37750035515676       39.49104138675223       50.23175633770989
H           44.66770834563228       41.17607196945004       49.80562893758268
H           46.80055139681406       38.99048280948915       49.81983367558589
H           46.83981652461831       41.86174222178576       48.79845797324700
H           47.74780526502711       41.22004176747628       50.16646456566075
H           48.07375769017587       40.19325617245710       47.32408710654999
H           49.36976133164229       42.49513570256552       48.78635141120539
H           50.34389117277594       41.55107277920750       47.67188783279629
H           47.66055890211481       42.45337115852138       46.65919877069404
H           49.11663502672639       41.15449343601558       45.21686327244331
H           49.03322520940765       44.11599359255153       44.54191731994848
H           50.06559153893465       41.81396403763855       42.86603489306755
H           49.38054843167066       43.24663373367029       42.11870630050007
H           51.14615266372017       44.30814900664280       44.02301574050031
H           52.52285983187740       45.04495262054525       42.26218014948044
H           52.00633810121570       43.77332856832086       41.16312743313356
H           49.87511094873823       44.79709002101539       40.79526315933830
H           49.32284787115352       45.59594614947839       43.03086732611432
H           50.63049885113750       46.77376183212798       42.98540555753126
H           49.49628016992140       47.77062142404314       40.92563888590475
H           48.38104649115690       46.72477784759918       39.11607743339909
H           45.38303328797794       46.58843923826930       39.63778279667815
H           46.09936231957377       46.83320725232044       38.04655774959586
H           46.64617469133554       44.39003510076535       39.76459643297777
H           46.93250190228237       44.81215562131852       36.75888156779508
H           48.26914722459660       44.99112218424545       37.88600012647029
H           46.62992664593408       42.44215902581902       37.62955484177172
H           49.37081248362375       42.98788423015377       38.85917684931358
H           47.86716064201513       42.72317243879996       39.74099306065554
H           49.35424659197180       40.71144931426356       38.00720677837892
H           50.31050969666392       41.12325540802314       40.20788496643366
H           48.72856304818699       40.97835811679509       40.97587252592533
H           48.60267995297058       38.60090518495767       40.32234000033499
H           51.05786121014704       39.44177798158840       41.92896488400142
H           49.40272546823672       39.34072338192430       42.52316944841088
H           51.15538766180632       37.05148230359035       41.54526114935196
H           51.48297464572915       38.19369592361903       43.86053289168579
H           49.95029075890678       37.44452956130178       44.30455943446419
H           50.92891017373911       35.20812690772344       43.61253423409672
H           52.21049686866638       36.81972077695671       45.85776140041547
H           50.72528415535982       35.88065520729042       45.92520210129327
H           53.58048138055935       34.84896517047752       45.65612078904392
H           52.66976050388107       35.56244027030881       47.90353160652413
H           51.39172068971401       34.35891584277590       47.70984647926546
H           53.33686792715675       32.65291659621883       47.38023421276418
H           52.78726912201661       33.83629150472218       50.12683514235315
H           51.67197997119692       32.80086674012617       49.23552611439718
H           45.12595427494975       43.15992299250217       52.49978088676568
H           43.16525561865127       44.18343529675470       53.54367945974373
H           41.16362225708986       42.80835726098795       54.04288183666213
H           41.17091205503728       40.40674771478851       53.48415014628289
H           43.12813917647962       39.38776375879526       52.41705433323668
H           46.14914158273604       37.32501886278614       48.36152192536148
H           45.25672565009963       36.58730879012253       46.20828127559195
H           44.32068078628508       38.25094431992270       44.61308783025304
H           44.32865091972598       40.63435726094767       45.21066963998089
H           45.20405020213899       41.37094372941711       47.36609808681223
H           48.87982870438076       38.05868973997073       47.40650735523132
H           50.36669105788832       36.35023550255649       48.35652865128188
H           51.68604560507788       36.83693981434066       50.38643390690734
H           51.52881546822066       39.05764630697043       51.43947269663221
H           50.08322696905613       40.78065778831869       50.46331641732633
H           46.84685914504860       44.51054647603640       47.23946205107538
H           47.14443825799535       46.90849487894543       47.67971072706538
H           49.40268858634480       47.91073650597365       47.55710883797482
H           51.36081525717641       46.46860874259917       47.14270641517735
H           51.06520160260266       44.06165820384251       46.79876307671667
H           50.46409945038464       42.24783075001485       45.49033239668169
H           47.70795917260948       40.73508651684893       43.47849109804205
H           45.42029439291593       40.44775610377561       42.66515188898212
H           43.91642839354402       42.40786415880299       42.46493390947188
H           44.71187722410507       44.63419715908213       43.16011863037711
H           46.99908939510498       44.91469672852751       43.98831294402147
H           52.78712038731229       43.44988860680946       45.43194494506486
H           54.45099427164632       41.74844831507725       46.00206937726532
H           54.99701743789913       39.94766997845899       44.39489617666611
H           53.85376855729317       39.88060893080830       42.21210703389169
H           52.17213794187227       41.57692225659733       41.64839841309927
H           50.45793676939664       45.25266930092661       38.63340046476694
H           51.54384230714511       46.66851980698379       36.95385444827943
H           53.02426266291117       48.51376659341287       37.65897436550219
H           53.44677821441504       48.88595906253457       40.07329829021793
H           52.38385256051296       47.46354679774068       41.74000891485736
H           48.05402889858486       47.01705074662532       44.32492302572192
H           47.53582892922554       48.79762530889343       45.92203335777339
H           47.84001029079231       51.16069015768741       45.28980979122883
H           48.52103368566804       51.72359946767290       42.97921137249732
H           49.00977166925772       49.94115243187314       41.37083480954264
H           47.75525549314651       45.54617792180719       41.20740352835455
H           46.80494822228334       46.93042112792958       41.71587478416183
H           49.02662416748315       48.73168065452844       38.22469716189720
H           48.70668697552950       51.14101193740844       37.86222532210925
H           46.82691917327443       52.31766761406304       38.94765695786931
H           45.27611107646564       51.06266496434769       40.40476708186998
H           45.58063040252220       48.66431910185098       40.74585592917001
H           44.83241653839945       43.10840211178982       40.25347501398667
H           42.55375315817481       42.30575692037562       39.79389874999029
H           41.35657378453757       43.07628978516173       37.77391224828074
H           42.46131279558112       44.63480264270321       36.22158794778536
H           44.72843693471051       45.43674870129163       36.67409506264057
H           46.61373994475190       41.60056940178854       35.51069282234775
H           47.70196544483900       41.11525760766814       33.36034971205201
H           50.00764440062756       41.89007232737475       32.93555927969980
H           51.20814024419909       43.16164757282824       34.67747137221347
H           50.12733273750467       43.64674674234659       36.81299213665525
H           48.07959398512426       39.22784984345709       36.84366441794729
H           46.01142906196290       37.94526775079851       36.50137276902854
H           44.13841679016603       38.16759391791884       38.09340132669452
H           44.35643792566551       39.67831320268075       40.03054936278993
H           46.42296919867921       40.94934966739212       40.38072979580580
H           52.21061964683194       39.67265861803162       39.88854806286756
H           53.68765488669758       38.61080705069259       38.24650579898613
H           52.83813252068695       36.82222218802762       36.78334782915638
H           50.48477842898732       36.09808744960589       36.97575088491196
H           49.00223541073712       37.15338280207283       38.62776000554474
H           47.83450870513268       37.84004350293257       43.16574029690354
H           45.83639354889613       36.49562252282447       42.78643666053912
H           45.94645544060656       34.45954000922757       41.38763729823413
H           48.10028630105655       33.78947294064787       40.38338816964205
H           50.10899683082727       35.16177308045715       40.73992190826981
H           52.40923250570562       34.16258003259970       42.21117111772717
H           54.57242932943910       34.02948469493315       41.05560589818875
H           56.29081282614079       35.76687839533712       41.43717974977363
H           55.82026903323322       37.63324079626674       42.96903881539591
H           53.65894654540791       37.77214463177432       44.11723415723841
H           54.01850781593682       32.81361137171226       44.69663393870187
H           53.29652557996361       30.64677861156722       43.79239192496870
H           50.91463832532641       30.00423170359199       43.86814070344065
H           49.26344604940222       31.55214695526050       44.86511146596207
H           49.98303798309625       33.68973926171635       45.78708450010635
H           55.59767932431166       32.37156028163822       47.14037077917872
H           57.92373813997886       33.07803462229930       47.50597103865439
H           58.40958929507799       35.10528374032746       48.82565035707883
H           56.54633189833636       36.41797955169498       49.77690027446950
H           54.23727874886030       35.69695134879920       49.44801046933451
H           55.55831787834835       30.39905990440552       49.06329129749813
H           55.61974244975038       28.58132742772539       47.40683590346762
H           53.53186830927835       27.81076954615910       46.33729356917849
H           51.38506169814914       28.86144105610901       46.95338116569547
H           51.32104436393384       30.65343977860868       48.61593356262893
H           45.28908174391578       38.52030163756540       52.30739307220612
H           46.95026187499769       39.06154370279387       52.07635445404716
H           46.06117976095584       39.55946177548886       53.51319475726368
H           54.45572552134266       32.04267960054268       50.21150496623727
H           52.62910705438662       32.23190761002978       51.90190811652388
H           51.67283844501780       31.05912415569093       50.99356018079229
C           52.54020287247616       29.96957671014782       53.27854306210848
C           54.79855840438058       30.52875300004873       52.34028619278229
C           55.81479995376468       29.67163704211064       51.93707427314509
C           57.13870540496242       29.94828960921605       52.23088309488168
C           57.46820890578353       31.09254800073121       52.93657398595757
C           56.46420289560439       31.95188134348525       53.34971630401055
C           55.14260088733290       31.67078975373715       53.05549538928110
H           55.56574469567963       28.77702081434363       51.38267018535746
H           57.91512843718757       29.26950913193331       51.90707769044442
H           58.50135038038646       31.31190547553320       53.16449240851534
H           56.71127175080584       32.84567255404876       53.90449478876476
H           54.37628075403753       32.35371662938579       53.39046777044620
C           53.01086336191525       28.80638321706295       54.15638700066403
H           52.56339603955401       30.87516464106439       53.88421096270519
H           51.50248507225885       29.78790100265955       52.98982629833062
C           52.09585228929291       28.75507417884993       55.34663528749532
C           50.97586014880266       27.93361294997507       55.35141987624914
C           50.06416539743127       27.98366107947038       56.39251832374794
C           50.26021521512919       28.85906318598458       57.44667767618770
C           51.38348154865552       29.66883732373891       57.46073388680499
C           52.29197147828314       29.61846867546570       56.41878783107534
H           50.81407915473064       27.25119948904783       54.52847950840788
H           49.19402731509458       27.34242502529457       56.37784723736659
H           49.54094527748948       28.91399352555390       58.25058310408504
H           51.54782237626783       30.34506833131707       58.28695626067319
H           53.16405530894933       30.25826651424552       56.43375437912540
H           53.33834989995417       29.31528048233057       51.38351528173396
H           52.96820355621689       27.87113717354443       53.59541323682795
H           54.04335489505535       28.97582577490141       54.46951955903461
C           58.85891270035115       66.21252176019387       62.22716600125216
C           59.01679061926801       67.50950984702375       61.75378359576326
C           60.27251305216390       67.89717454383840       61.29776001240711
C           61.33088671976954       67.00722888045398       61.29201438167270
C           61.15593149182604       65.71263745637692       61.75243864753263
C           59.91641187358055       65.31892510825296       62.22564382854163
C           57.85501552654367       68.46975684949422       61.76884524916033
C           58.14532448395950       69.61218233140873       62.74846106530308
C           57.51898668406596       69.03559638075446       60.38179646581388
C           56.93531362184311       67.99766568743152       59.40975034845585
C           56.08959124301875       68.67138420869030       58.35571108779133
C           56.62191367278525       69.65675747714795       57.53100062850107
C           55.87061371210454       70.21107389499997       56.50991377271228
C           54.56838131263234       69.79049059728709       56.29993384501881
C           54.01703745192539       68.83164133447717       57.13176381351627
C           54.77234763061291       68.28022840378799       58.15250411475672
C           58.02991626315200       67.16889173894621       58.71773214347915
C           57.42909401751701       66.13620441056302       57.76083750508791
C           56.58521440671822       65.10426785345592       58.46840685263482
C           57.00424276410146       64.47520530669067       59.63392193537427
C           56.23910554907194       63.47781804905710       60.21196477965140
C           55.06130506003455       63.06392620889679       59.61336213115016
C           54.62944520751695       63.68856318203317       58.45678955521861
C           55.37895890690903       64.70976512087208       57.90377923359392
C           58.49141414036058       65.37987108701353       56.94357227280986
C           59.42766370426303       66.25299595156389       56.08699629814788
C           60.25177009728016       65.34055317918796       55.20924998868234
C           61.56714064057566       65.04359806195909       55.54313839957180
C           62.33417722649597       64.20721520368171       54.74959642564737
C           61.79930142231425       63.65907555935117       53.59680424539962
C           60.48653873813375       63.93976382439001       53.25945365605102
C           59.71657649253775       64.76100387940286       54.06338365289216
C           58.66022634247205       67.29725519414194       55.26547742300267
C           59.57162321995704       68.09398978827220       54.32052285058076
C           60.72649874345442       68.69962215554307       55.07724242733801
C           62.03021375758048       68.30947294399833       54.79764485051918
C           63.09890033803040       68.84758670696898       55.49276654678262
C           62.87988915835069       69.79119787846300       56.48120728279540
C           61.58551067171250       70.19392880119355       56.76467049011886
C           60.52063552893683       69.65273958976358       56.06788977214436
C           58.78224967159543       69.19329566511280       53.58981321445060
C           57.83375404688464       68.65768202422493       52.50368562053764
C           56.82286987008021       69.72175350480488       52.15655738417541
C           57.16144318681587       70.83688564218249       51.39958848284103
C           56.21968862550621       71.80664947322065       51.10601729381340
C           54.92205397774696       71.68263165110712       51.57227984574698
C           54.57539904825836       70.58176447110262       52.33587379562160
C           55.51863394349211       69.61214144761003       52.62405259079920
C           58.61179370853498       68.16826179104456       51.27638315618303
C           57.69308107668434       67.69780918318096       50.13922615605846
C           56.61655894757995       66.78372148790858       50.66859565102663
C           56.94942375884717       65.61067207003641       51.33916226341146
C           55.96828336025096       64.77763091459178       51.84209625587541
C           54.63356034996567       65.10033707176034       51.66802044758418
C           54.29026952683531       66.26100450047889       51.00054193027358
C           55.27490810876868       67.09875849294984       50.50558712323269
C           58.47335374414755       66.95709280204201       49.04299656781330
C           59.56915254831753       67.79293373384708       48.36886668223426
C           58.97189726853831       68.97343063183034       47.64824621818402
C           59.27774278243210       70.27025638940725       48.03955835513822
C           58.72840911412285       71.35978284224281       47.38653484632875