3864
 energy: -5104.215928919461 gnorm: 0.000803268380 xtb: 6.6.1 (8d0f1dd)
C           49.43749876231850       50.64555063147927       36.65596251270406
C           49.42712494046062       50.38947704164396       35.29158653182279
C           48.25785967835342       50.63825097841398       34.58110227434261
C           47.13643513172320       51.14535453136807       35.21102958101167
C           47.16335039755816       51.39295421577589       36.57256115268306
C           48.31421547708042       51.13784988736389       37.29567495208133
C           50.64819890415044       49.81434288428547       34.61293830707005
C           50.32777053264089       48.40214735777783       34.11705867015937
C           51.11627560474987       50.75737303494056       33.49298876050624
C           52.31353349710604       50.24744342455066       32.67872186640675
C           52.53056568429459       51.11564968832585       31.46315124426105
C           52.91701851256258       52.44562293020051       31.57941859007863
C           53.16126073130552       53.21687313782940       30.45710851562506
C           53.01344871947224       52.67242633636032       29.19277940915682
C           52.61280666093929       51.35438802135421       29.06065372282949
C           52.37734424093518       50.58728768386195       30.18778161495991
C           53.60750534747060       50.17078320360230       33.49925622135969
C           54.68358265988486       49.41020704505215       32.71421016478790
C           54.29168214089297       47.95721661543305       32.57767333894628
C           54.08664419349906       47.40108554718449       31.32066948851954
C           53.68723833914296       46.08281464007742       31.17844661679573
C           53.49550141334546       45.29079515922984       32.29665906412220
C           53.71298815280991       45.82747821820071       33.55374938565987
C           54.10251556721472       47.14776896644224       33.69279823830372
C           56.07854614071412       49.52613493704298       33.34453598415791
C           56.69169774856131       50.94033153341392       33.34473956416881
C           58.09173430260486       50.83202134158260       33.89450865937994
C           59.11342841501708       50.23794921111138       33.16343755431011
C           60.39030133141159       50.13617092319996       33.68454828925825
C           60.66646870049738       50.61958599942022       34.95212803765521
C           59.65666742353527       51.20747084902239       35.69329891291965
C           58.38289150378876       51.31191865753257       35.16424969893013
C           56.65252302246726       51.58893326329675       31.95283391562571
C           57.52675991617667       52.84961162898836       31.81019132858379
C           57.31415004404774       53.79821839027698       32.96061023195183
C           56.08276653052711       54.40459791888606       33.18866737609230
C           55.90030494729473       55.25762979584736       34.26165532379755
C           56.93614831172827       55.48741834355546       35.15268567637152
C           58.16594782551072       54.89358200392571       34.93431071607847
C           58.35620646971522       54.07159961416220       33.83728094326025
C           57.23991776244605       53.48817340947454       30.44213959704550
C           58.21565928739737       54.61405822899207       30.05369227021713
C           58.40040032871383       54.63829326756643       28.55630464742442
C           59.65979435639467       54.49383660057131       27.98961869199108
C           59.83145892779732       54.52193028696808       26.61639703617823
C           58.73870877163924       54.69029262362736       25.78429370843950
C           57.47605576322706       54.83158601475024       26.33626196547333
C           57.30985468984458       54.80686017818827       27.70903823143654
C           57.73534689339350       55.98959471508382       30.53476112088879
C           58.80986672989464       57.06909268877565       30.34240382854170
C           59.90027751206672       56.92808135998877       31.37253446008965
C           61.20225741600452       56.63752865427798       30.98660180428349
C           62.21219851023355       56.51505229380116       31.92526906699164
C           61.93459953988383       56.69304804417204       33.26942629791760
C           60.64250484061002       56.99361427482611       33.66535492559769
C           59.63518219197074       57.10545787884509       32.72530044684060
C           58.19342029173602       58.47627308630577       30.39862462425711
C           57.58195485428888       58.88537368001578       29.05041491944647
C           58.67770328456821       59.12296363344422       28.04322573226601
C           58.86053724469107       58.24184497179903       26.98528087972289
C           59.87820749910625       58.43403667010119       26.06754891853660
C           60.72699958696472       59.52005285974179       26.18985517612526
C           60.54944362908919       60.41029491412838       27.23596298154638
C           59.53568846561301       60.21119094242808       28.15518151943440
C           56.68278842225164       60.12304200708939       29.19371950649239
C           55.28556550343505       59.76785470423347       29.71669052262614
C           54.53997375906678       58.89005287602330       28.74341795929269
C           54.26272297982205       59.31313343342968       27.44882190716671
C           53.58802013579619       58.49112060804536       26.56452781518806
C           53.17643034710431       57.22966225452780       26.96074026219569
C           53.43696589140452       56.80124028867172       28.24997592769848
C           54.10971804974624       57.62722542451184       29.13243015002411
C           54.48796256986493       61.04223216160824       30.03405350631439
C           54.93886643088915       61.71016721729951       31.35159818696020
C           55.46755991228623       63.10324905796607       31.11658155358190
C           54.68865154499201       64.06271528881422       30.47822812346012
C           55.16912895754347       65.34177065462113       30.26725669564072
C           56.44137130271348       65.68611160958972       30.69389340875617
C           57.22378061186712       64.74279211243903       31.33703526879738
C           56.73742443149610       63.46396449020223       31.54788777183390
C           53.79239275616072       61.78158154093488       32.37089477468047
C           53.26362555987357       60.40803029861074       32.83940346072590
C           54.08766554551186       59.91934566963599       34.00834769818330
C           53.75927405538354       60.20604378086842       35.32890444484489
C           54.56758199670302       59.78773347073069       36.37165616704383
C           55.73921533884452       59.09756299142774       36.11761288250522
C           56.07943891726975       58.80380806177980       34.80879909660758
C           55.25140755603508       59.19543932830148       33.77236274210954
C           51.77149429435263       60.54821939242132       33.15062854219823
C           51.10211290688913       59.25217667109413       33.60935079168565
C           51.09289406995146       58.17662645450829       32.55337740120861
C           51.39439824376263       56.86547320119452       32.89806742221749
C           51.30039547804169       55.84602005370942       31.96796389892963
C           50.92106123927678       56.12168969034740       30.66708919694753
C           50.63480232265609       57.42601345594158       30.30451946213197
C           50.70954814315701       58.43949347330836       31.24253219707139
C           49.65415055579571       59.55142711932583       34.04530498813644
C           49.23325266242504       58.77503102026640       35.29812459233208
C           50.02102480968851       59.24726061844428       36.49442681541307
C           50.92538157337429       58.41094343189586       37.13591917695751
C           51.64356275320116       58.85392501371283       38.23410464268223
C           51.45589561828968       60.13574564088690       38.71987668248809
C           50.55741017738073       60.97970766440212       38.08858778398407
C           49.85477516364269       60.53965640779577       36.98186362651415
C           47.73002677524335       58.97028934474331       35.54107218108624
C           46.85142477724761       58.05746344156194       34.66876794175698
C           45.56049441745856       58.76236717876572       34.33752073406446
C           44.68683105820110       59.17130841071217       35.33895691128886
C           43.51160244573869       59.82955313967485       35.02815613521217
C           43.18896713277298       60.09494775518976       33.70836892093607
C           44.05447884870441       59.70157511529952       32.70257266103675
C           45.22997968618589       59.04314269371973       33.01788056615517
C           46.59148318045985       56.73095240040288       35.38992538934862
C           45.68467752746771       55.78314907647285       34.59123638340018
C           46.41980799246522       55.18383292105160       33.42083565221671
C           47.49470960975233       54.32123675123580       33.60130046395064
C           48.17789978503383       53.80142839952871       32.51747883151414
C           47.80127725957813       54.13635972320152       31.22878354117923
C           46.72840619040789       54.98905658179217       31.03481754074257
C           46.04506732177951       55.50507429084359       32.12200097808191
C           45.10742083424349       54.71763181834464       35.52922697427760
C           43.98731620419179       53.87371963578924       34.90356534032395
C           42.95397140793713       54.74635842934313       34.24074522316521
C           42.72499733799936       54.64436641491569       32.87461597232503
C           41.79364100423739       55.45256754502209       32.24703098142317
C           41.07547669721740       56.38179794349312       32.97945012438207
C           41.29411628069857       56.49261109100338       34.34188546530478
C           42.22337420877364       55.68130827927532       34.96571671318597
C           43.36378155395365       53.01407122104289       36.00969334093593
C           42.22200284420640       52.10532476217158       35.54305053081795
C           42.71696598524636       51.11222434892699       34.52330414196348
C           43.68886862125710       50.17241005092949       34.84669660136056
C           44.17338969597554       49.28959157757205       33.89906222683609
C           43.68427855219655       49.32506453519530       32.60456810944802
C           42.70488503645110       50.24588470060480       32.27192367726354
C           42.22754383483642       51.13114969161079       33.22312275825399
C           41.61847931602971       51.40915222271197       36.77035181082814
C           40.42741970653245       50.51841026417384       36.41241993260935
C           39.29637275306531       51.33106236065806       35.83528222471742
C           38.75467049496513       52.40498889413367       36.53305673551469
C           37.70718544689970       53.13696884812287       36.00548323193240
C           37.17843340982700       52.80697829540938       34.76890938459282
C           37.70819320136857       51.73972909753164       34.06486059395697
C           38.75732893053463       51.00987808888273       34.59637801121060
C           39.91649794846395       49.73585280288798       37.63155318117147
C           40.94940535073906       48.75083093208119       38.21327102089828
H           51.44439952450180       49.73551814501337       35.36043052206455
H           50.28823019617216       50.91954657959206       32.79790074509796
H           51.36587536920100       51.72083454507895       33.94422728398231
H           52.07936910627593       49.23925319182381       32.32351527660511
H           53.95573115344603       51.17775871896117       33.72713049105292
H           53.42201637461215       49.66289921003731       34.44481315404079
H           54.73233160454784       49.83175672009283       31.70546914969207
H           56.04752205693190       49.17095448927390       34.37714529801092
H           56.74931292275483       48.86143121653454       32.79434103025741
H           56.11941642442679       51.57468550123791       34.02876187626401
H           55.62001274909623       51.85944866934233       31.72501390811742
H           58.57841716618979       52.54091820440619       31.82483735023879
H           57.31113808766442       52.69755483545839       29.68987114602696
H           56.21653401727453       53.86468040748807       30.41827901294380
H           59.18630672058666       54.40984338081289       30.52027043579502
H           56.84100161553273       56.26741452631529       29.97383378018522
H           57.46890112831767       55.93001339851498       31.58997486895609
H           59.25967352526062       56.94168533743898       29.35148678163869
H           57.43063487115690       58.50295179455941       31.17754304050072
H           58.96817865722862       59.19798004094073       30.66800945772924
H           56.96293120938859       58.06178298256246       28.67876320725060
H           55.39662997710883       59.19798065273257       30.64374023351620
H           54.60465215462683       61.74202229981564       29.20493926636986
H           53.42850628676184       60.78551244243490       30.09372157560360
H           55.74331986592494       61.11885851929185       31.79849049600126
H           54.13732846034492       62.34160098693698       33.24437046644314
H           52.97195754272540       62.34701131736802       31.92411553058745
H           53.36929312542957       59.68593172380962       32.02376752798908
H           51.63338897711188       61.30201610049837       33.92628303744931
H           51.26283569725202       60.92156804869519       32.25980088872852
H           51.65597323809904       58.87648415951509       34.47560447676766
H           49.54885021719179       60.61902428016930       34.24665680799883
H           48.97208115956840       59.31604951843416       33.22594051448427
H           49.43691675304927       57.71062722447876       35.13910003759418
H           47.50393080919748       58.78099894488160       36.59176831581255
H           47.47618257996784       60.01049607440232       35.33060680529373
H           47.37203515627369       57.84095100554005       33.72976351285509
H           47.54725088639173       56.24670541881149       35.59882976899463
H           46.10453360415938       56.94782061652695       36.34283171976865
H           44.84731547935209       56.37439432787389       34.20371316062900
H           45.90280304575329       54.05041690914560       35.86446047174516
H           44.70032641496868       55.22547862463168       36.40619298920851
H           44.42001231686205       53.21778894178524       34.13946912577939
H           44.14756069287601       52.39295138591374       36.44535594616178
H           42.97836717117181       53.67030022778857       36.79217493928970
H           41.44756312608845       52.72623866877160       35.07790485303899
H           42.38553766027776       50.80395231330653       37.25048884099922
H           41.30427703420201       52.16855261740363       37.48828665939275
H           50.33576920793188       50.44563897074715       37.22305531908302
H           48.33495000974550       51.32087401390721       38.35924394858804
H           46.28786389909594       51.78002907488942       37.07322840120055
H           46.24099173031382       51.33689292355318       34.63657331270646
H           48.20796468516907       50.42652132200778       33.52302796284089
H           53.03657810817375       52.87988511730902       32.56135520302448
H           53.46593135660731       54.24882263333225       30.56702903784791
H           53.21175902057421       53.26858406825897       28.31320599668495
H           52.49068343952304       50.92108651034118       28.07779332672244
H           52.08405798397219       49.55197414739698       30.07865863179258
H           54.23684131471654       48.01090371120716       30.43965637061914
H           53.52637547596921       45.67312134979650       30.19067161385851
H           53.17799054199924       44.26319147246762       32.19487848294528
H           53.57674600812069       45.20852702675437       34.42702948248009
H           54.25869915366617       47.55218140377374       34.68241645419575
H           58.91659259289762       49.85803205441826       32.17092979128806
H           61.17635658271907       49.68064229829201       33.09779878006213
H           61.66682354269725       50.53964609266059       35.35425146866042
H           59.85750130515353       51.59299633470131       36.68326860498906
H           57.60623516499130       51.78940279816288       35.74394910086239
H           56.97590000534829       50.86475365080320       31.20151904971538
H           55.26252139491313       54.21504240602974       32.51179618120435
H           54.95196114023056       55.75397967229985       34.40727149785795
H           56.78228202862649       56.13402477974045       36.00508170315424
H           58.98599763346626       55.06992528859953       35.61571001612155
H           59.32873434465518       53.63112464852882       33.66535109182228
H           60.51810513163550       54.35685825434838       28.63324620637242
H           60.82062021054784       54.41209360136904       26.19506908069717
H           58.86897487608976       54.71242581976138       24.71197616843289
H           56.61800249669780       54.96660873807389       25.69284666528921
H           56.31867152520818       54.92062798393518       28.12328256333757
H           61.42776366989425       56.51164944156947       29.93612966766650
H           63.21902041141692       56.28499279966314       31.60616286366393
H           62.72254071244897       56.60193481393555       34.00322360157086
H           60.42036665526134       57.14418372624883       34.71177466715609
H           58.63103874816767       57.33565576585652       33.04856049348875
H           58.20152737854725       57.39168085902511       26.87902499384058
H           60.00702810824716       57.73121956898802       25.25687611583088
H           61.52162650987405       59.67396193008194       25.47422749291177
H           61.20626298468553       61.26273466887771       27.33562839297342
H           59.41071179545088       60.91346173206697       28.96625631705819
H           57.14643394100223       60.84255783462068       29.87045136770525
H           56.58764684170390       60.60627422874941       28.21911665952911
H           54.57689894834822       60.29422813319812       27.12386330139653
H           53.38317935134386       58.83531761496312       25.56060862474471
H           52.65258500793390       56.58688596093988       26.26763409018954
H           53.11139905265016       55.82298926333934       28.57102074025702
H           54.29989906900016       57.28498485321992       30.14077177399838
H           53.69580152923439       63.80709287561027       30.13744423017837
H           54.55027258997540       66.07518988219201       29.77012209974796
H           56.81866404557966       66.68497239529658       30.52757627744480
H           58.21619876507417       65.00518144791356       31.67516237855502
H           57.35553162395998       62.73539070113816       32.05457330476239
H           52.85856726693159       60.75140312587912       35.56100521153264
H           54.28188273265629       60.00286220968210       37.38986066724879
H           56.37523231076112       58.78790931387755       36.93479832620529
H           56.98903247266684       58.26127145143346       34.59270525624744
H           55.51648075962918       58.92709281653080       32.75948198546254
H           51.69638379470725       56.64007224344558       33.91138970207728
H           51.51779379601781       54.82838980452112       32.25373212378233
H           50.84443449889658       55.32392656640820       29.94205843612637
H           50.34490323779436       57.65410859339450       29.28792764341199
H           50.45434938561814       59.44628353171395       30.94434337994640
H           51.07113889344196       57.40164982928390       36.77449857535321
H           52.35723169155583       58.19524951816735       38.70698836013074
H           52.00322093415156       60.47721627893974       39.58699857453390
H           50.40369041248768       61.98586318080945       38.45544771247426
H           49.16869140017151       61.21118626868618       36.48550497050491
H           44.92553258421370       58.98746545845810       36.37538355278352
H           42.84788621300658       60.14285073593883       35.82126150925814
H           42.27058838419580       60.60917337159442       33.46308296276619
H           43.81271173009918       59.90945237571967       31.66912267057553
H           45.90262567106284       58.74004587238018       32.22619251552547
H           47.80530253006020       54.04213468412687       34.59682466212294
H           49.00927000919717       53.12950694161724       32.67861575806935
H           48.33618069449309       53.73422827481199       30.37980953895145
H           46.42268254278626       55.25332938126483       30.03149977434040
H           45.20389627072905       56.16688540929463       31.96256405798257
H           43.28753487946127       53.92509151124739       32.29452915238299
H           41.62944473428823       55.35922029891952       31.18218018836661
H           40.35037359686790       57.01633223143217       32.48998227237417
H           40.73817250164058       57.21737766121158       34.91911374247415
H           42.37982518605362       55.78362224526146       36.02888786667522
H           44.08375987133419       50.12582104864683       35.84984940233832
H           44.94042752816774       48.57923813290209       34.17510381369173
H           44.06590516928005       48.64362653281988       31.85738423671233
H           42.31341262910616       50.27819854804133       31.26413393915836
H           41.46587086942828       51.85139307801004       32.95464500295763
H           39.16866110097814       50.18103635841230       34.03581348835710
H           37.30350592466837       51.47619130688167       33.09752157810861
H           36.36023268405223       53.37890694470510       34.35503746623619
H           37.30180959412665       53.97213380642104       36.55980072951697
H           39.15553408530031       52.68099532684786       37.49708639182865
H           49.58435718493362       48.43677958669351       33.32256758253633
H           51.21723137300183       47.89568876212674       33.74876275591603
H           49.92963313258513       47.81019203382613       34.93984664375802
H           40.75432185447519       49.79637650249701       35.65405394277609
H           39.60505353664500       50.44353032470192       38.40130297320422
H           39.02086806181165       49.18922761358849       37.32920106226296
C           40.32174334448608       47.37138880752693       38.47423739501604
C           41.55659048634597       49.27128055088628       39.49208597418001
C           40.76210456645349       49.46926766143805       40.61693007954041
C           41.31695918951495       49.89771304549316       41.80965459065024
C           42.67456733922683       50.15757261809112       41.89443364432739
C           43.47415947027319       49.96822590646358       40.78155967801892
C           42.91916738184657       49.52046541232777       39.59478293298599
H           39.70117776652609       49.26926684883982       40.56123430050806
H           40.68609363068662       50.01301266884364       42.67983015545356
H           43.11075892056257       50.49618996500941       42.82219510275584
H           44.53587564391955       50.16154629660692       40.84164781845903
H           43.56063333033288       49.35302858464193       38.74027266827831
C           40.16216638040873       46.56272909694018       37.18505420797622
H           40.95619697384024       46.80986873110704       39.16293444303084
H           39.34559706046942       47.49362886689570       38.94786540906706
C           39.46019969742487       45.26009688179533       37.43728825075166
C           40.04571206713918       44.29001883077647       38.24227783519406
C           39.40934840112173       43.08619399145454       38.47781922958931
C           38.16624272190177       42.83539842848685       37.92156431714468
C           37.57138858158118       43.79352364560142       37.11930848295689
C           38.21756047909884       44.99415543263569       36.87716791887699
H           41.01405719380559       44.47298669532433       38.68386172100741
H           39.88869837641015       42.33579378055396       39.08896845326805
H           37.66530798522339       41.89688438941327       38.11188405854303
H           36.60324429061670       43.60411694523152       36.67592674923414
H           37.75308217283814       45.73120245670967       36.23482423085490
H           41.74927195011517       48.60882546594571       37.47759847795487
H           39.60008221043306       47.14545723674398       36.45232867296822
H           41.15278050693689       46.36075193889717       36.76743388531263
C           46.75295793469582       48.17961536325634       29.05167897941738
C           48.06185288667997       48.18733187678210       29.51671457366363
C           48.47629401952508       49.26013928250592       30.29927495529849
C           47.60410365357897       50.28525488652725       30.61659080402741
C           46.29631264400845       50.25532721572578       30.16317998855838
C           45.87399444509720       49.19934831120245       29.37552250889589
C           49.01835137986522       47.07776125962917       29.15072523604539
C           50.12535766929672       47.63838569133858       28.25176049317439
C           49.60799549978235       46.38370022219231       30.39587973057023
C           48.93402113959284       45.04094314105931       30.71102774749567
C           49.66002005493126       44.32402405905423       31.82296336741009
C           49.75238526416683       44.88599617442816       33.09079031336535
C           50.34397847097993       44.19740101926467       34.13347402904558
C           50.85582057059863       42.92821717902544       33.92610886703731
C           50.79331270180690       42.36804276285623       32.66244438953346
C           50.20244542924329       43.06168617841637       31.62024644614648
C           47.45699265037402       45.20335374057030       31.09933383940064
C           46.76756496465469       43.83760206424571       31.20451001712435
C           46.64995575637924       43.17410850598272       29.85480974232426
C           47.17110191391303       41.90142573329931       29.65580751792917
C           47.06299026934148       41.26925981694886       28.42976156567415
C           46.42598075764759       41.90262288330997       27.37673460360962
C           45.89402531415421       43.16735777500036       27.56371384084400
C           46.00321366614330       43.79399104797135       28.79189339894898
C           45.37152617210711       43.92290046004567       31.83932170910751
C           45.34593422430302       44.35106046771895       33.31860668957928
C           43.90181898204445       44.33548226745692       33.75410513783550
C           43.23755834385997       43.14432861273262       34.02128555987946
C           41.89971293904824       43.14534773193957       34.37571571636519
C           41.19694295514190       44.33560731240514       34.45548551046588
C           41.84565085547963       45.52604070959391       34.17582281893537
C           43.18595747943610       45.52347123161023       33.83266312403934
C           46.25272917596327       43.45849455438115       34.17761564677598
C           46.05247905551827       43.64295263019124       35.68951405271881
C           45.98653081486605       45.10614865308748       36.05966480504006
C           44.83257253886946       45.63455301916920       36.62345842374800
C           44.76126678442067       46.96741744213441       36.99024721563791
C           45.85028803253320       47.79790038215820       36.79639293399200
C           47.00096144234252       47.28960709822925       36.21863755618616
C           47.06703927041227       45.95740729503117       35.85325377023587
C           47.17619216970258       42.96873280001825       36.49727702583763
C           47.34195122643506       41.45995654989986       36.26320862463307
C           48.63894000226612       40.94881032460303       36.84453505253416
C           48.97045549580284       41.16832257060121       38.17724161532606
C           50.10873324216551       40.61074052451944       38.73093759829403
C           50.93411206398686       39.80607463967254       37.96351603570420
C           50.62613362845119       39.59227425841794       36.63033408915535
C           49.49644598708878       40.17048658426858       36.07633558395446
C           46.18850893704704       40.64800187846007       36.87280114045225
C           46.13309144916937       39.21373904999979       36.31909268532609
C           45.56662324364378       39.25197062103781       34.92296990481940
C           46.38516256089721       39.04945798934438       33.81862428301050
C           45.88801214312827       39.15748322346369       32.53117732086337
C           44.55265786679913       39.45638236697020       32.32557196125835
C           43.71993942968075       39.63698320136081       33.41754423662094
C           44.22480924454207       39.54306906430210       34.70236929009956
C           45.31871155526629       38.30340894374719       37.25013038961959
C           46.13742988997981       37.82027246791873       38.46444321052996
C           46.93760012621581       36.59327605344858       38.10988336793489
C           46.34475966762904       35.33627234953251       38.06078278850862
C           47.09184834558092       34.21277431448171       37.75788326291093