3258
 energy: -3427.492090805745 gnorm: 0.000664719665 xtb: 6.6.1 (8d0f1dd)
C          115.44308131002620      104.77584019020048      125.99728021188463
C          114.29699481042019      105.61432220638515      125.44645670473092
C          112.93909193690807      105.26696550891724      126.05707179617781
C          112.45651495095197      103.83945255622292      125.79725642714877
C          112.33825819222938      103.51213991665895      124.31102019581343
C          111.63783139278405      102.17570842552576      124.06628590650584
C          111.87791680313107      101.63910375863550      122.65493841569234
C          111.20336932471284      102.45883480714956      121.55620495886487
C          111.73914714997917      102.08561762576922      120.17644019732745
C          111.03627389999822      102.83087864990387      119.04496104552587
C          111.75133711543981      102.62970938112001      117.71175356044625
C          111.05603741794735      103.34100654259609      116.55487020599152
C          111.83863955243974      103.19582124820654      115.25296288994292
C          111.11130037453243      103.82139139865704      114.06758923337350
C          111.92996568428796      103.74590700533584      112.78189500077889
C          111.15558788972182      104.29158974452672      111.58621283491875
C          111.94878720266364      104.27301277364677      110.28095523130612
C          113.13476335409153      105.23582305591621      110.29196358209479
C          113.66276998255884      105.51352539463703      108.88666608899356
C          114.97763254838820      106.29181592224481      108.88485589540410
C          114.89197574957427      107.62800108338818      109.61806217461323
C          116.15406461447688      108.46324165152167      109.42809936799208
C          116.12969155961373      109.73668200316786      110.26671468612767
C          117.36204397603845      110.60601294329622      110.03327312929380
C          117.42652189416074      111.76156088160050      111.02613475010214
C          118.54710746009081      112.76041679073180      110.74478694519972
C          119.94540290622717      112.17921515485892      110.93811808923122
C          121.02586596718533      113.24400302572030      110.77487306084778
C          122.43265340699838      112.67500313457893      110.93280636388718
C          123.50330706972656      113.74681461915618      110.74977372652789
C          124.92143184271548      113.20185194978654      110.90996195674138
C          125.99447126944941      114.19258836049936      110.45764773852996
C          125.97007100019476      115.50147069719502      111.23943643477715
C          127.07029748561631      116.46231792350333      110.79391828205574
C          126.93015824358763      117.85411163029826      111.41597374517011
C          125.77587860840531      118.65660090129084      110.81847562206985
C          125.63642227631644      120.03576118080949      111.45703739751289
C          124.43954522812484      120.82105210754023      110.91747945191918
C          124.65360600997758      121.36136824146485      109.50489345456525
C          123.44808543043325      122.14298350684977      108.97316484716492
C          122.31760446538655      121.24170935775437      108.47874108054974
C          121.13921784236472      122.04509648100520      107.93049482376678
C          119.98955268407708      121.17997278089665      107.40817220394970
C          120.38015607164155      120.29229486320180      106.22795367021298
C          119.18361795199237      119.54455598647752      105.64261688595887
C          119.61587628130346      118.45192012320759      104.66568951722040
C          118.42331138755446      117.77244638501921      103.99773874410282
C          118.80817449501829      116.53683785094397      103.18349864742267
C          117.60117508869081      116.00009456331341      102.41655029604476
C          117.81369369301764      114.64120361436973      101.74707915934447
C          117.83084526959604      113.48028787525128      102.74273339516336
C          117.56323074519855      112.12686003876345      102.08247854552238
C          117.33213389449928      111.00282113321987      103.09731400339628
C          118.61756759130833      110.47013434833255      103.72905873134164
C          118.34572076550174      109.63628098860939      104.98034586132844
C          119.63684563784246      109.16282312407957      105.64344608833512
C          119.42271356890134      108.60182235723831      107.04787908372279
C          120.75888393754012      108.32527915322382      107.73388115416324
C          120.64684486822955      107.82616176698338      109.17493311335596
C          119.91234640006510      106.49521630234106      109.33704591277385
C          120.52779726348645      105.37471996351066      108.50555499167815
C          119.94321287498566      103.99551845585997      108.80747743940177
C          118.42641951410533      103.88332179381432      108.63912806973563
C          117.89312206795753      104.30087101820230      107.26781513140901
C          118.41194761395870      103.43117115516277      106.11394884928508
C          119.22937726835417      104.19336220629630      105.07154341484456
C          118.38420100065014      105.15479881544287      104.24111225270741
C          119.16176742308515      105.72455581755744      103.05878373211723
C          118.28298465196438      106.58885920528887      102.16117032233116
C          119.04877890407751      107.15204930376032      100.96823650261109
C          118.15317244215301      107.99674407884999      100.06783327691005
C          118.91125511424848      108.58520067949696       98.88180413717993
C          118.01979081873243      109.35747446815309       97.90939615937103
C          117.41921610552497      110.62477741552846       98.51142573832962
C          116.46806191311097      111.32465861630884       97.54514263523173
C          115.83557125972261      112.56318312205984       98.17215355285090
C          114.82874889107207      113.23896325022068       97.24446093555326
C          113.98852782479149      114.30986017842700       97.94340984907562
C          114.79784120391780      115.41261562248509       98.62478655825217
C          115.66273149856556      116.21620219442553       97.65931800187596
C          116.45910972890108      117.30255824013021       98.37593951958522
C          117.34591171319508      118.07625563509851       97.40475486401972
C          118.04538097390343      119.27764574783143       98.03712366675165
C          119.03731066250461      118.91044410417749       99.13963734315257
C          119.84223734232548      120.13529862969398       99.56645698522942
C          120.71594124156617      119.91353675579005      100.79910168708916
C          121.87281906705147      118.93925875467463      100.57959720654800
C          122.89199751506534      119.04086930965795      101.71329660486366
C          124.11400807440654      118.13945724311095      101.53576028998813
C          123.83614418352056      116.66656899031652      101.82675060159274
C          125.12081507395179      115.83995516355462      101.83367533421729
C          124.85259919103666      114.36392706574414      102.11291553311742
C          126.12921036744619      113.52528448875479      102.13115434204482
C          125.82184462233612      112.05279910911922      102.38926526217040
C          127.06116675642988      111.16138888646620      102.37706933568974
C          126.68752620228258      109.69473039464259      102.58131253257918
C          127.90298984822564      108.77170353724671      102.58724945620189
C          127.54478770087567      107.30596631544346      102.84763877099898
C          126.71725717342606      106.64044438356136      101.74637310737214
C          127.48261374791532      106.43993434906641      100.44030275288836
C          126.59372566690280      105.86495064166193       99.33920162909804
C          127.36225080108879      105.64546927350895       98.03786269494043
C          126.45538675668510      105.34154450205719       96.84427608643607
C          125.68329580224469      104.03139181402614       96.99153916657407
C          125.04194832395788      103.55862209806634       95.68589186065194
C          123.93218668417161      104.47723509806032       95.17742162389683
C          123.31695268414238      103.94964802097273       93.88204829664861
C          122.10760007297299      104.75656429033666       93.40740026366915
C          122.45404374420866      106.18257943001927       92.98318904651447
C          121.28928095628332      106.90721235100388       92.30466963881760
C          120.06456710640536      107.02421445756030       93.20830189873563
C          119.01726261159742      108.00465603074949       92.68253931851804
C          117.84221129474285      108.09282114455591       93.65189934859396
C          116.71706422345072      109.02504842312734       93.20742132672559
C          115.61269323882701      109.04215833180754       94.26151017951810
C          114.43116494781739      109.94937701813731       93.93137309963009
C          113.39331330796981      109.90773610739707       95.05197157389625
C          112.16005302432906      110.75859817344204       94.76500549839851
C          111.16157176109657      110.71154800789573       95.91998277198050
C          109.93059750551542      111.56725426810179       95.65125515666395
H          110.85396502273964      109.67631877220903       96.08551623396855
H          111.65192299548458      111.06079115135196       96.83212988960688
H          112.46629302043215      111.79388422244429       94.59253548219075
H          111.67519823154795      110.40221260936478       93.85249010912707
H          113.08407320903818      108.87219316519383       95.21616857546940
H          113.85716544570604      110.25586293459017       95.97794927291361
H          114.78170105823142      110.97522400869777       93.79467755617608
H          113.97090107437704      109.62960834487443       92.99264236294329
H          115.24208344877736      108.02237135530085       94.39494312107759
H          116.04744056316989      109.36289663210451       95.21104045807141
H          117.10553872599787      110.03608619669939       93.06360841575069
H          116.31303645552948      108.68888488191514       92.24893931950717
H          117.43238354470566      107.09038862449660       93.79025792113956
H          118.21120718633590      108.42680313595137       94.62508686650389
H          119.46850102323717      108.99221829232889       92.55756979178665
H          118.66483333090819      107.67564246701563       91.70171739323655
H          119.60058398663071      106.04223770041855       93.31639102410688
H          120.38674667620505      107.34871257348409       94.19990523534864
H          121.62128815628132      107.91036904606646       92.02358248707905
H          121.01637662923285      106.38278314009185       91.38558721549596
H          122.76006581764265      106.75793250677417       93.85882267490119
H          123.30039399747062      106.15229008483031       92.29165521757724
H          121.65569808676858      104.23899519423146       92.55743798770581
H          121.37024046413656      104.78633239712107       94.21142639028841
H          124.07868189337360      103.94231533434919       93.09802791306788
H          123.00089637227700      102.91491233883967       94.04045886673060
H          123.15270242591325      104.55771894871620       95.93907461535981
H          124.33926240519170      105.47360748076923       95.00390316727498
H          125.81553883381899      103.47258368394469       94.91800093445040
H          124.62581564194605      102.55992838373324       95.84399868231647
H          126.37185229044934      103.25586295318308       97.33702878045200
H          124.90758224492535      104.14664564603957       97.75055717195229
H          125.75518543156366      106.16924686047503       96.71530469340455
H          127.07386948674294      105.28634899575790       95.94422674751355
H          127.93680281763029      106.54857008877782       97.81240812351648
H          128.07708128185186      104.82903278769149       98.16946003090767
H          126.16381631925495      104.92054837886108       99.67777560618511
H          125.77071314068864      106.55772033859456       99.14890292300298
H          127.88669700524802      107.39535763324422      100.09957999440205
H          128.32768348733219      105.76893248181092      100.61571254827933
H          126.38363404268463      105.66341308738002      102.10689043688804
H          125.82359154086694      107.23619416365378      101.55265560837822
H          128.46908004284555      106.73768809696784      102.98184463184258
H          126.98486507118943      107.25069255907238      103.78442499720714
H          128.43487502151478      108.86313836939702      101.63821793574481
H          128.58879646601088      109.10120953902404      103.37278871408903
H          126.15863645290321      109.58848523460145      103.53067241329551
H          126.00173599722676      109.39808826630875      101.78624058425542
H          127.58121818805940      111.27408591321587      101.42192114469340
H          127.74964962414175      111.47746313526896      103.16455144787102
H          125.32737357364311      111.96182830565209      103.35912194471027
H          125.12555269148838      111.69802397535463      101.62574226581488
H          126.64418265701669      113.62849919478826      101.17251042336360
H          126.80161255114675      113.90167938856645      102.90649870871104
H          124.34490644703675      114.26605415209460      103.07600545651574
H          124.18094862917000      113.97273172750567      101.34453115653487
H          125.62053465928869      115.94034958243412      100.86667677452597
H          125.79826587025491      116.23506232015305      102.59535868091268
H          123.34947512111000      116.57859014447071      102.80136873473002
H          123.15097434571378      116.26334345533159      101.07826714154569
H          124.49862856051043      118.24464258458572      100.51829311508287
H          124.89954711494528      118.48228703680402      102.21455888900000
H          123.23240236009384      120.07761593400066      101.77412684867754
H          122.40479847062694      118.80010608531144      102.66170520166062
H          121.49104740092790      117.91967756586784      100.51104334253078
H          122.36869711070374      119.17488119446787       99.63420704180004
H          121.13054601242939      120.88031329163351      101.09700456955220
H          120.09215025531859      119.55424074084722      101.62051389737060
H          120.47070947648636      120.46317898317858       98.73377780600421
H          119.14242854751451      120.94584196669780       99.78478219869670
H          118.49968173488162      118.51774213919197      100.00413780753655
H          119.70918335348740      118.12986590663417       98.77717328392529
H          118.58096938309178      119.81886063217797       97.25155224463707
H          117.29237539019404      119.95711717917705       98.44513006079728
H          118.09720763825349      117.40014939998751       96.98930296381617
H          116.73081775741139      118.43197794920322       96.57281373876673
H          115.77190370378771      117.99207315726336       98.87038425812190
H          117.07848795619221      116.83810961231600       99.14564908838157
H          116.36297145804282      115.55415168033802       97.14723437305904
H          115.02582225501941      116.67299522990027       96.89637085061585
H          114.10404810440201      116.09176483934506       99.12456814796509
H          115.43262086860889      114.97566457347341       99.39778252207074
H          113.31961164560227      114.76404687859511       97.20716779939474
H          113.36445467488902      113.82500370642514       98.69843486904900
H          115.35163630288594      113.67446108484572       96.39017933323639
H          114.14739253777267      112.48144063964635       96.84845726693479
H          115.32432483491414      112.27237083378118       99.09322134346289
H          116.62728176378275      113.26536000944655       98.44074739777133
H          117.00181841989883      111.60568815879317       96.63394580761485
H          115.67785200980131      110.62497813384232       97.26034472382079
H          116.86546674711299      110.37100930162428       99.41653795287012
H          118.22078827634182      111.31117994315571       98.79496489406307
H          118.61128283735566      109.62931600427287       97.02953899327230
H          117.21104235654164      108.70467941339902       97.57287186761050
H          119.69997341642348      109.24514757442515       99.25114940660534
H          119.39709815169385      107.77075325052940       98.33808788755812
H          117.33441215952600      107.37534368873209       99.69638760227893
H          117.71780577261248      108.80135992707126      100.66310184122783
H          119.87929436916227      107.76409828332250      101.32996596842801
H          119.47877872498148      106.32991446232522      100.39053108640806
H          117.44182124113475      105.99049626411923      101.80013902896401
H          117.87081460610874      107.41446803031545      102.74572848739169
H          120.00267519461404      106.31909749409795      103.42626507939704
H          119.57622381960230      104.90246181488193      102.46971608196259
H          117.50599230668863      104.62472420792686      103.86502532911344
H          118.02899062965636      105.97697617851132      104.86574450176848
H          120.03995234351206      104.74185038714218      105.55638266306475
H          119.69413497050238      103.46881555433259      104.39787332585935
H          119.02731569881209      102.62506320708685      106.51995458988436
H          117.57177884160635      102.95896679182276      105.60357887086320
H          116.80256731812203      104.24720731879600      107.30533970792189
H          118.15093980451589      105.34445711550279      107.08966657244078
H          118.13722011360736      102.84470762120664      108.82827908257019
H          117.93878779221086      104.49405380857992      109.40285959215551
H          120.43635178500080      103.26747115821388      108.15803573768494
H          120.18569994093895      103.72550324571456      109.83819870059224
H          120.39198967351246      105.59508701306545      107.44798359725844
H          121.60447725164725      105.33966021838262      108.69344207583060
H          119.93854269577490      106.21324504482723      110.39306949213390
H          118.86580466316789      106.62744544046913      109.05992324694468
H          121.65924393374664      107.72063587676463      109.57602288702162
H          120.13426358462651      108.58358724864161      109.77556347667699
H          121.32255052866243      107.60049252881116      107.14467674038544
H          121.33929372920258      109.25365254020525      107.74325112958743
H          118.85531374412787      109.32120742607252      107.64331462268441
H          118.83204312013243      107.68618101095385      106.98743495782230
H          120.11299398889777      108.40476701117181      105.01747494176647
H          120.32373595591295      110.00861487745625      105.71403685437888
H          117.78307850969658      110.24692916814887      105.69107981362552
H          117.72320723092238      108.77594239111215      104.72384845855703
H          119.16283727059793      109.87010358583245      102.99689399200213
H          119.25787479852332      111.31042026286954      104.00572910393258
H          116.67320616588309      111.37473431813157      103.88734801662677
H          116.81247098693645      110.17568485500738      102.60516950053542
H          116.66871521843687      112.22129469772017      101.46165386090647
H          118.39175005526472      111.85963149145827      101.42244360680587
H          118.78960477711804      113.45980399685371      103.26327621598764
H          117.05164170309168      113.65847513981362      103.48805120743394
H          116.99115818729371      114.47880924329013      101.04409343036937
H          118.73980815049669      114.65804414884383      101.16747608932818
H          116.76054069183898      115.91690797291179      103.10731889123286
H          117.32354278650153      116.73230788488274      101.65177090842073
H          119.60826551474180      116.78902118075757      102.48217800909218
H          119.18961148243640      115.76790320558497      103.85827227151700
H          117.70483580199107      117.47820964721735      104.76671438172571
H          117.92068592772135      118.49255365205424      103.34587704056814
H          120.26557501364161      118.88439675803637      103.89983553226506
H          120.20322133053166      117.70342686316684      105.20458122479873
H          118.61359279759017      119.08798247081256      106.45523447723606
H          118.52359121220167      120.24973437970021      105.13247454225811
H          120.83941177567092      120.90813817524888      105.45262086713247
H          121.11888378454228      119.55861932882351      106.55184020208112
H          119.61268778471002      120.55334723314186      108.22074209866841
H          119.17292140466586      121.83861917753183      107.10018522893378
H          120.75777967211130      122.69625443171140      108.72221889655660
H          121.49389765436300      122.69203217544801      107.12340940939521
H          122.71354059843614      120.59841102154485      107.69110518964482
H          121.96893348863362      120.60128508783906      109.29153496927030
H          123.07468166380420      122.80833928033087      109.75606234108405
H          123.77504600264677      122.77423226822586      108.14192264742064
H          125.52648653391944      122.01975020298272      109.51500980435861
H          124.87105373965231      120.53806978336284      108.82245814227448
H          123.56085083925005      120.17444457108793      110.93688585561532
H          124.24590511553788      121.66616704179975      111.58241579466562
H          125.51511834278332      119.90682683208813      112.53614042762307
H          126.55267652605792      120.61007299364904      111.29742226421548
H          125.94105387201466      118.76412142172730      109.74495661636865
H          124.83781920856957      118.11611926268151      110.95895388571634
H          126.78547267054608      117.75560588710546      112.49509885050679
H          127.85887182148888      118.40971088816471      111.26060295879438
H          128.04196898904107      116.04197915781528      111.06645440222262
H          127.05015049533337      116.55607978702078      109.70475446058948
H          125.00114820431415      115.97748742327772      111.09243748787806
H          126.08445784903351      115.28794379825590      112.30450188348264
H          126.97752186747205      113.72681331996952      110.56654752383440
H          125.85158492569145      114.41634093189565      109.39752487718127
H          125.09498929837378      112.93264033480160      111.95385596025601
H          125.02226080663570      112.29083165207041      110.31354915636710
H          123.40475152247883      114.18627365853924      109.75481836999168
H          123.32926633907611      114.54045655424173      111.47816315075110
H          122.53059874567305      112.23086384401820      111.92521651007473
H          122.58475923437476      111.87930752019120      110.19879720634849
H          120.93247432064726      113.69616213513088      109.78567080830025
H          120.87149980748791      114.03724623080728      111.51120084792909
H          120.01982139773499      111.73889726629062      111.93514470250322
H          120.11890581635352      111.38421330360586      110.20992848357524
H          118.45082917630846      113.12863558440520      109.72142746819421
H          118.42710196250142      113.61726842866310      111.41484684578802
H          116.47017579697790      112.29034717682524      111.00866822042590
H          117.55643932889016      111.35185390825566      112.03094926356735
H          118.25603566120499      109.98667099427881      110.13197522506353
H          117.33837319830151      111.00121095260015      109.01429255726062
H          115.23021143123486      110.31228790269638      110.03355443744995
H          116.07600577865938      109.46486585248344      111.32428036799165
H          117.02597114367910      107.86838098514517      109.71233969717719
H          116.26351094516743      108.72468883022992      108.37319895519821
H          114.02884703896915      108.18938064212291      109.25309497531400
H          114.74473134804474      107.45279960097207      110.68560979803748
H          115.75684529436099      105.68083261794489      109.34813707915507
H          115.27612576601835      106.47328678650760      107.84925273935526
H          113.81732128803407      104.56302944532048      108.36757061578611
H          112.90956778607699      106.07264079260300      108.32618906239257
H          112.82286605489034      106.17641145146304      110.75065905741867
H          113.94127348006522      104.82161499733395      110.90098910984528
H          112.30441800549211      103.26001799674847      110.08155001715774
H          111.27616923032205      104.54905975609510      109.46400556366341
H          110.24591967422630      103.69995558835710      111.45675779606746
H          110.85074740893025      105.32004729895851      111.79933813208523
H          112.85365855785817      104.31247833154856      112.91517123084760
H          112.20902807724191      102.70795232841280      112.58614136487027
H          110.15643591551681      103.31235663603438      113.92019942885089
H          110.89164765641065      104.86700702741086      114.29427847999651
H          112.81782729790287      103.66635972063212      115.36793736562088
H          112.00977269414625      102.13483705455330      115.05444453356910
H          110.05275395615783      102.92776441036428      116.42608923452394
H          110.94408763212488      104.40177261658572      116.79283507309279
H          112.77600253644283      103.00111550118901      117.79650170004528
H          111.81296816758288      101.56003191973024      117.49310459062167
H          110.00387550394538      102.48238945118425      118.96508177856175
H          111.00918739646112      103.89718159847240      119.27876374822884
H          112.80638392895669      102.31646495359317      120.14319188127885
H          111.63248484876779      101.00836664928592      120.02224074352081
H          110.12317773090038      102.30192262917610      121.59279802675371
H          111.38791773160489      103.52055677962241      121.72510504616136
H          112.95499484118525      101.62069452264943      122.47364317342415
H          111.52074622835984      100.60729761409945      122.59668685427367
H          112.02073958555862      101.44335121289888      124.78268582180777
H          110.56579740890612      102.28266129532858      124.24651467200081
H          111.78799570706201      104.31421707414151      123.81567134132952
H          113.33690875362539      103.46793123209548      123.87207851262012
H          113.13125267833587      103.12604111907410      126.27491674972984
H          111.47624166054854      103.72039265839079      126.26637753428811
H          112.98652369019599      105.42812085230058      127.13706459199553
H          112.19599174309576      105.95971766072168      125.65361685494749
H          114.50249550733926      106.66801258051403      125.65711731725615
H          114.25324401380929      105.50483025377216      124.36248104854494
H          115.48814286024287      104.85461402492690      127.08198317818407
H          115.32233388746914      103.72829885770517      125.73391098511686
H          116.39179024474591      105.11753229534121      125.58849523441150
H          110.21477909191721      112.60591407951308       95.49410534726151
H          109.40784590737981      111.21794386088415       94.76306733138250
H          109.24337459768135      111.52546927927213       96.49354449151841
C          128.96640829192918       98.21882988992252      108.43245404407448
C          128.27021040657255       97.65715822000948      109.66669796532985
C          127.93117828664607       98.75540474353674      110.67114857743634
C          127.15617319980804       98.22950845918166      111.87695974355690
C          126.71107973584473       99.35985359292090      112.80212923137515
C          125.81256831512393       98.85699569043287      113.92933333748508
C          125.34209001010626       99.96276734892270      114.87611986735789
C          124.45579609656768      100.99686837132768      114.18541750156524
C          123.81492260630205      101.99613631269341      115.14798934982213
C          122.71087588050713      101.39527691319948      116.01689513166176
C          121.88041575857170      102.47548595776051      116.70695652824928
C          120.75877811564067      101.87972198069669      117.55403632956724
C          119.78541703102887      102.92553489059999      118.10008768268571
C          119.00093346388687      103.62994716159022      116.99484178503280
C          117.75615339262902      104.34918749305773      117.50683435680051
C          116.98275283493598      104.99589613517043      116.36043173413604
C          115.63378931272665      105.56104654432367      116.79468337152561
C          114.90316510286637      106.21930468241460      115.62722490837878
C          113.59256681850415      106.86830481764105      116.06001845982121
C          112.82605366194902      107.52395174857620      114.91067307424888
C          113.60909181929718      108.58271109926199      114.13108429124887