3795
 energy: -5103.664054900920 gnorm: 0.000975262222 xtb: 6.6.1 (8d0f1dd)
C          120.25847294018311      126.82715945397366      103.30556542456111
C          118.94211474077107      126.73441124574708      102.56482453688639
C          120.55641145077881      128.22446356917391      103.86207652115012
C          119.72345402787224      128.54488525637086      105.09966217162913
H          121.61427371332594      128.26811173997808      104.12436425661988
H          120.37205056447513      128.96375491841678      103.08102199407358
C          120.15552765011383      129.85587756792756      105.76056989141978
H          118.66784139381862      128.60630021272576      104.82673783354235
H          119.82785126849639      127.73572066412285      105.82600817239350
C          119.20198213394761      130.25973047419316      106.86320017790646
H          121.16219478517478      129.77333770136264      106.17032371534209
H          120.15545404600709      130.65766837855526      105.01726611144467
N          119.71403887237632      131.01636675083927      107.83836458977645
O          118.92490029270095      127.45268955032590      101.46065797859585
O          118.01237052462920      126.04585274048056      102.93111936497391
H          118.11784100028949      127.24486764138494      100.88705758449585
H          121.03154980651614      126.56587698271639      102.58169054042153
H          120.24776677728102      126.09096084904611      104.11018453324674
C          118.89473892550882      131.53530351005918      108.91976468695927
H          120.70285787893803      131.22240560285442      107.84012834268650
C          119.61439104580174      131.52929882044768      110.26792542872039
H          118.57240736845131      132.55296030519946      108.67357838657067
H          118.00392044268823      130.90298612253281      108.96553719738309
C          118.61085291247855      131.59098641676408      111.42304380597244
H          120.20672561914803      130.61700403828522      110.35372382867601
H          120.30056465954382      132.37520025172108      110.32677818002284
C          119.29721652180150      131.68909251953102      112.78958502766794
H          117.95566814387411      132.45009925425344      111.27625949327873
H          117.99558960671878      130.68988961025161      111.39660304981489
C          118.44964177804613      131.15304448722662      113.94412160323367
H          120.21658502257763      131.10134460630664      112.77271487372042
H          119.58078574023924      132.72292143496051      112.99239530414911
C          117.25577807659973      132.02563620567884      114.30693363087694
H          118.08320701889872      130.15788243776643      113.68525710217418
H          119.08580740442329      131.03341429995658      114.82163678382284
N          116.48317492924897      131.38877186583107      115.35642647521735
H          117.57691465163384      133.00870242667270      114.66529490465443
H          116.61866569307526      132.17504605163603      113.43027561217502
C          115.76248430232729      132.05499057206202      116.25291011155366
H          116.58030791489587      130.38076982609587      115.45354738292247
O          118.02007206519630      129.91090370104934      106.86485968506084
C          115.11504395347772      131.19976638817798      117.32669193822177
C          113.60938461233737      131.03748168707406      117.08986634222326
H          115.59022983722069      130.21964057222658      117.35416495159613
H          115.26788960079345      131.69750086140169      118.28708869460765
C          113.30439196419283      130.22073767643212      115.83692022844758
H          113.17446102048710      130.54328638183733      117.96204514594749
H          113.15023808161907      132.02505799272967      117.00220134946446
C          111.79584489899199      130.03220604403336      115.64086862310521
H          113.72306322974805      130.72486321391574      114.96301868339638
H          113.78413263311151      129.24339021762739      115.92288011675619
C          111.53082889715699      129.04748039433008      114.51885994136909
H          111.37209286521313      129.62075564209857      116.55941698170082
H          111.32237644016132      130.98862607632807      115.42572557466350
N          111.04612587665947      129.56334987947596      113.38330266903419
C          110.79405690141964      128.70030565741416      112.24328882788282
H          110.96994370763329      130.56635741998699      113.27042894141003
O          115.61459810636035      133.28202064819362      116.21717683640750
C          109.84448362576759      129.28737821413335      111.20647346858517
H          111.75031836778082      128.45133773872527      111.76891627460284
H          110.37923180288604      127.76772017189342      112.63819416883187
C          110.44876520721920      130.45446829688106      110.42371241001372
H          109.60122119518878      128.47961193345711      110.51394938481656
H          108.91930117555037      129.60407480114310      111.68843717371624
C          109.77923607336338      130.65980098111504      109.06561639431408
H          110.36460641124033      131.37529966767741      111.00367218031045
H          111.50734306466619      130.25862499076072      110.24645607674546
C          110.41301667001662      131.82946660050681      108.31176143980026
H          109.87915125636795      129.74869565519842      108.47319572857855
H          108.71433512122489      130.85340846629515      109.20430167852382
C          109.82412965603160      132.02619480999942      106.91889108220475
N          110.42233887733263      131.13198581393200      105.94583634970070
H          108.73876976850173      131.86669007326574      106.94044386884680
H          109.99175603421675      133.04860709930085      106.56302162674555
C          110.35920361024363      131.37000088172468      104.62940199074103
H          110.95322521803016      130.33450818579220      106.27713048158651
O          111.74853823851534      127.84532428012503      114.64645074552338
C          111.14945413466269      130.39537432539831      103.77900879507344
C          110.41999329195262      130.07466715324631      102.47546192955100
H          112.11282730694064      130.86878076197794      103.56822766119973
H          111.33407211946508      129.49457795461416      104.36098461157302
C          111.05824105162064      128.93537742645501      101.68324818331098
H          109.39134840311426      129.79250950288579      102.70804803308403
H          110.37938223853787      130.97610204580198      101.86113210987939
C          111.10421052260027      127.64146277022942      102.50962468960587
H          110.45937519223307      128.76915832634987      100.78467740084928
H          112.06353367559210      129.21493573490920      101.36351273151175
C          111.10544968857278      126.42140693417576      101.61836166470600
H          111.99608216795544      127.63165557384141      103.13668870558942
H          110.21896319563722      127.60456630187306      103.14173505594775
N          109.89303842348635      125.98714134077352      101.28282340475764
C          109.63796896491213      124.84987427423427      100.42548479535066
H          109.08910188655891      126.47924997844032      101.66534954559417
H          110.26175794969899      132.74579874135952      108.88415498384686
H          111.48776084837749      131.66620444699905      108.21436389136346
O          109.70740303485385      132.30165346297807      104.15926581590109
O          112.14764508317828      125.87575956812543      101.24050245503685
C          108.85975378523229      125.26545141528528       99.17623949028886
H          110.60333808854971      124.41851466054820      100.15067409739910
H          109.07305422625247      124.10730917500841      100.99604304955578
C          108.69427295879302      124.13372246119214       98.16101691604851
H          107.87649244444248      125.63042053493957       99.48091063105078
H          109.38585230314864      126.09390264943184       98.69718504501303
C          108.02934346019018      122.88246224105966       98.73806598852674
H          108.09047003866445      124.50917557898156       97.33227517530418
H          109.67328908591290      123.86356207009956       97.76225527858468
C          107.57553802499210      121.93271583471096       97.62455250413869
H          108.74157189100185      122.36629753710214       99.38329248861621
H          107.17443244352239      123.18377526462673       99.34764363256325
C          107.28633691956766      120.52230463515239       98.12530353058831
H          106.69156174307976      122.33675963086883       97.12903634405843
H          108.36978550218204      121.85854629451947       96.88070214240885
N          106.16409881918747      120.48932594720819       99.04321498195050
H          107.04993037332696      119.85628750071183       97.29060852203789
H          108.17794993813898      120.12689097802226       98.62817403189588
C          105.51439528458835      119.36492486291507       99.37910576617652
H          105.94204165498219      121.34638484464936       99.52319985357701
C          104.46858170801551      119.55394914760454      100.46597899007716
C          105.12815153752761      119.92575773186023      101.79753813225354
H          103.77178080172864      120.33837996873081      100.16350936817905
H          103.91817737475765      118.61947171138914      100.57663225342857
C          104.11559765468368      120.18924482251660      102.91002183287681
H          105.79676235194108      119.12298778631539      102.10748929409236
H          105.73141573785803      120.82581788795436      101.67321675688383
C          104.79891297954543      120.60322947352773      104.22099591521247
H          103.44173175139872      120.99500333243523      102.60978032686121
H          103.51382452447278      119.29520876835075      103.08656893685985
C          105.51183345078870      119.44006351439994      104.87978065938221
H          105.54570824968899      121.37115270264633      104.01240175934987
H          104.06212359541388      121.01770115413515      104.90728375246304
N          105.04734832074566      119.08786438884326      106.07664612968556
C          105.55750636011575      117.97620063140806      106.85506505585595
H          104.33329998316994      119.65592413640491      106.52889083144373
O          105.74874676454594      118.28304671145958       98.85400376498403
C          104.46562621795461      117.43870654008578      107.77406111492139
H          105.89776567709792      117.20757761252258      106.15787895669067
H          106.42253105830872      118.28361507500865      107.45413403774212
C          104.90067299954768      116.17665436914055      108.51899981247593
H          104.21892836723983      118.21276222898823      108.50005932680402
H          103.56822736110293      117.24396028778979      107.18471318241072
C          104.94088248250985      114.92931789475038      107.63559147022973
H          105.89524100096276      116.35371664208662      108.92929162894301
H          104.21417207492777      115.99842600208557      109.34868144845157
C          103.55125778444358      114.47066599710762      107.19841805798038
H          105.54644468027024      115.14342804018798      106.75336486899960
H          105.42557722156138      114.11885177579131      108.18337251241741
C          103.60796082426792      113.51259537278482      106.01571384913665
H          103.04099287256830      113.98728382658642      108.03109807434672
H          102.94983454295517      115.32961783610975      106.90068270641575
N          102.28195523482246      113.29892070343996      105.47393805711025
H          104.25179521654520      113.93183535494278      105.23095135009063
H          104.01723449482881      112.53907158523184      106.29825636778612
O          106.44305603088368      118.85509529391071      104.32070520131172
C          101.88087800072330      112.12699888465839      104.96901245535460
H          101.63062393579307      114.07119143373404      105.58863669471363
C          100.46446382878764      112.10757708957701      104.41370794049229
C           99.38807750953006      112.63479156689122      105.36254670365872
H          100.45955682834406      112.69753331791284      103.49401681922612
H          100.24404910619413      111.07256420686247      104.14590992150615
C           99.40862973323587      111.92806359515959      106.71979315321188
H           99.49577780996347      113.71026691892401      105.51279901562154
H           98.41542205816324      112.47701346476678      104.89186103556258
C           98.02877743525841      111.93870202348187      107.38872756642628
H           99.71850270160019      110.88934530646191      106.58802227302002
H          100.14067433311827      112.40981220832704      107.36992385139845
C           97.45974810965150      113.34544983178088      107.45501007062754
H           97.33981474273770      111.33290076438369      106.79859735673126
H           98.10052628667346      111.51232146204947      108.39001051870214
N           97.93480149648444      114.09191607102123      108.46110807707430
O          102.61386480707218      111.14556370575838      104.89622494870243
C           97.53256359051893      115.46160925130837      108.70003294503695
H           98.59211802230290      113.68910253723560      109.10950769508219
C           98.71537459532740      116.35068114496499      109.07707606379641
H           97.05636708323564      115.81034680034044      107.78033579161112
H           96.78380369386544      115.48521913872102      109.50143669983294
C           99.34493240425422      115.93580172463166      110.41229606195368
H           99.45396082714248      116.31474270483652      108.27513286128718
H           98.33964412998033      117.37145043766139      109.15596688570446
C           99.98844057870407      117.09729249944388      111.17141843762801
H           98.56401026541920      115.51350681193561      111.04809337401966
H          100.09518802364173      115.16186178144595      110.24417020293824
C          101.15597214548460      117.75941246458696      110.42411911401699
H           99.22199120329046      117.84596690043163      111.37887908071086
H          100.34360806897202      116.72899355452132      112.13357695113022
C          100.83275239979579      119.21250725206600      110.05867581594489
H          102.04981782255834      117.75774277193267      111.04875752734273
H          101.39055947247606      117.20215277379342      109.51695432595126
N          101.91525852812167      119.84733347244406      109.34516707114328
H           99.91864133719599      119.25332661480411      109.46612854427069
H          100.67080544418489      119.78150018555500      110.97730020596690
C          102.07000693471223      119.93771730908357      108.02523850592713
H          102.68489831151794      120.17823609231252      109.94807814521185
O           96.63686148228874      113.76238656321512      106.64703198547025
C          100.96741548227764      119.35059220091210      107.15824108198349
C          101.30179493236454      119.41109827787446      105.67077787188923
H          100.80010535707481      118.31676810480606      107.45998668488457
H          100.05261284579875      119.91844990150371      107.34526453315657
C          100.10436850715270      119.07884997309857      104.78133790654728
H          101.64554442311842      120.41948832710366      105.42953232620467
H          102.12524862835042      118.72570364493730      105.45857080526676
C           99.56129362464576      117.65433435931249      104.96617209184929
H           99.29239102788169      119.77484795973785      105.00124476093825
H          100.39220667696993      119.23778495659026      103.74315093241316
C          100.60573713129692      116.56219395071952      104.93444249003009
H           99.05504903364363      117.57447512944643      105.92929660768202
H           98.82326313535522      117.44867657117379      104.18761418607536
N          101.29547018531687      116.35856844097538      103.80516327410587
C          101.13709458795225      116.98110872878452      102.50921684174507
H          101.98873339456190      115.62167319841137      103.84924832211037
O          103.06367159898012      120.48705080109710      107.53967343138980
C          101.65746263279466      116.05641087274283      101.41186125006770
H          100.07974251615880      117.19797031963090      102.34002419690908
H          101.69402297404193      117.92491202715091      102.47414650770186
C          101.39656509332836      116.65485161004410      100.03104580226302
H          102.72861019658440      115.90507218002266      101.55150971344972
H          101.16146393732855      115.08657099904570      101.48495827238932
C          101.95348465216989      115.80351811003899       98.89098338410903
H          100.31918254059326      116.76350191870264       99.89244422359627
H          101.83821287518234      117.65161926295129       99.97786715779698
C          103.48056177707387      115.74322092757947       98.87070626740763
H          101.54994495190363      114.79136098508462       98.95751496970978
H          101.60972221899654      116.23217600310281       97.94748524853577
C          103.97874389585630      115.14805269516954       97.55858312048497
H          103.89736342220593      116.74711266706633       98.96842734354277
H          103.84899678018050      115.13655911379522       99.69786822755739
N          105.42369967300110      115.19806186634405       97.46128697582328
H          103.67934181089981      114.10233147649211       97.46109642843801
H          103.54931877465002      115.70635236189447       96.71796410660373
C          106.15570351854960      114.17943554394154       97.00066249877197
H          105.84961324897863      116.08190459265521       97.70654125697206
O          100.81891571759880      115.84881377227978      105.91601300905747
C          107.63877374063506      114.44359544739490       96.82260634349596
C          108.09466069536472      113.82644929490012       95.49591749773973
H          107.83323991803486      115.51582379855594       96.83643228707503
H          108.17423962700748      113.97362705510778       97.64950990591686
C          109.51311222263762      114.19981577091797       95.07062482342579
H          108.01405319176335      112.74008957401463       95.56679721662380
H          107.40683823751513      114.14866604587607       94.70953132225689
C          110.59880330029198      113.71471751621186       96.03358953364865
H          109.69432405362753      113.74808666257520       94.09314141788275
H          109.59197711549359      115.28359361612749       94.96504924359132
C          110.49837579807803      112.21624208180590       96.28495774511740
H          111.57402516547489      113.91486343478901       95.58575987588767
H          110.54002317013797      114.24447171375519       96.98120490590394
N          110.36616686679324      111.89946682161141       97.57470426248432
O          105.64933798067544      113.09566375022204       96.70487691692595
C          110.23505303561974      110.55850182606483       98.10078412999772
H          110.40041553033123      112.63340874129781       98.27633915325059
C          110.98956042161970      110.45591314460100       99.42324747371696
H          109.17115521988177      110.34234972381674       98.26147698215516
H          110.61555326927630      109.85819395170125       97.35213444247891
C          110.69795613734301      109.15565484656162      100.16553116782006
H          112.06073758253252      110.55185030704001       99.23957267877225
H          110.67724848887674      111.30105105571641      100.03796720996846
C          111.17109523027167      109.21269704802943      101.61690865109122
H          109.62280840234553      108.97219222746347      100.14915903928117
H          111.18694296229468      108.32446290233455       99.65422853213425
C          110.85204102083645      107.91807292886413      102.36079023097219
H          112.24710454365200      109.39158884621703      101.64040410527510
H          110.67855480530288      110.04517169524607      102.12190892294848
C          111.26005751467407      107.96135813048242      103.82573893509911
H          109.77907871192663      107.72426442806213      102.30330757867662
H          111.36904401129154      107.08520736315442      101.88229254857637
N          110.41205510100376      108.85679816463640      104.58789546814342
H          111.19391706448710      106.95972798764709      104.26598282806479
H          112.29785033494383      108.29330781670636      103.93435549945092
C          110.66415387134698      109.14376377950467      105.86411920348208
H          109.54431674915880      109.17204939587562      104.16799780086113
O          110.54011839021868      111.38576162686509       95.37866683402289
C          109.63840830168749      110.02950030257233      106.53341802716277
C          109.64398573235778      111.43538595558795      105.92841224399217
H          108.65531183341672      109.57806970651853      106.41553582306777
H          109.86625421859860      110.09047691245225      107.59792846870397
C          108.64304511502884      112.36570379798899      106.61196257118100
H          110.64626303718755      111.85802546912308      106.02910522085833
H          109.41206092956213      111.37439055913873      104.86537977430929
C          107.19875606419627      112.16182107272806      106.13601048184361
H          108.68899848012809      112.22664636039828      107.69291645788050
H          108.93037211795436      113.39717077423262      106.39345735832421
C          106.51897142248482      110.92695407416026      106.70268586408091
H          106.60442654884108      113.01684045097610      106.46121994570532
H          107.17829000784964      112.10914822703170      105.04835435068208
N          106.32972566731790      109.94491896354387      105.81677957379631
C          105.67948579916039      108.68462136881914      106.11329904557809
H          106.71562305835822      110.04084720589228      104.88262353147617
O          111.67708783851158      108.74736057415105      106.44585601398097
C          106.27458773439319      107.57802834062437      105.24550561934757
H          105.82190404570288      108.47691316216122      107.17627179963769
H          104.60249411831120      108.77697178838291      105.92492000467712
C          105.84096139021852      106.17020032513996      105.65450800938616
H          105.97734276744640      107.76063304085241      104.21170175469507
H          107.36494037657576      107.63207945773030      105.29824355317768
C          106.38313318336414      105.78730158563928      107.03368890281966
H          104.75203396803762      106.10380197456007      105.63910070062576
H          106.23106981829474      105.47174317199715      104.91208882681629
C          106.64393391420596      104.29388763502347      107.21326991698676
H          107.34724827175502      106.27854603392200      107.17374188620788
H          105.69787384381864      106.13832151683187      107.80503652294315
C          105.39974291487582      103.41569298075234      107.22440437349982
H          107.29738109606883      103.96045604643048      106.40951116971161
H          107.18000896651387      104.14343227057597      108.15274352431808
N          104.65152769156668      103.62833033155810      108.44554064493082
H          104.76629644683946      103.65897431603095      106.36757018077590
H          105.70417421883444      102.36659449506527      107.13591908454677
C          103.47036458696554      103.10784958283290      108.78412273377681
H          105.13576053082882      104.13503358905581      109.17887711090411
O          106.15227240706868      110.86360046711323      107.87476395141439
C          102.85745419495707      102.08274742762491      107.85642983269105
C          103.38083477283742      100.70060282290505      108.26917751814736
H          101.77303846701051      102.10572762595228      107.97394829462084
H          103.10226910892870      102.28703843480746      106.81745530106147
C          102.89315087234364       99.56893800011221      107.36346534457924
H          104.47303863458320      100.71231121689337      108.26673294502493
H          103.05116836799219      100.50983839355040      109.29302536258017
C          103.71613661602478       99.42393907704906      106.07954032706317
H          102.95925031519066       98.63053299496312      107.91693431930103
H          101.84714508579908       99.73008309958254      107.09610977387553
C          103.40279883916672      100.50106237545774      105.05661078548641
H          104.78117760673743       99.43647983816180      106.30786351033450
H          103.46474716366251       98.46909316657671      105.61273051999180
N          104.45875425550874      101.22784290655379      104.67053358595479
O          102.92701968541913      103.42417367580421      109.84402127109257
C          104.36355522929195      102.27030984937544      103.66790511991762
H          105.36780963676046      101.05365815223992      105.08175113880665
C          105.74794828508875      102.69855270912240      103.20189768719729
H          103.76903498038433      101.88802210365675      102.83100317344650
H          103.81888782116923      103.13003148865944      104.08007017107029
C          105.66531140351439      103.75314041307318      102.10097148617008
H          106.29788370801774      103.09674330099044      104.05700227604174
H          106.28622580517421      101.82332878019035      102.83398645147049
C          107.04546283621170      104.22465805233956      101.64655582878794
H          105.12840535522101      103.33362530488033      101.24808131339469
H          105.09133807465106      104.60807963555315      102.46371146357961
C          106.94422865090873      105.19430957877567      100.47239366323939
H          107.55576203203734      104.71326908346488      102.47933292009537
H          107.64501892522833      103.36036846558041      101.35340128014907
C          108.31032954820186      105.70557275096262      100.02136505623619
H          106.45378539146064      104.69652578073276       99.63312738244836
H          106.32984668221366      106.04940661118354      100.75419301216682
N          108.14818528920841      106.67013262456138       98.93789138437924
H          108.79915128258985      106.22200891267427      100.85088908528179
H          108.94427565746290      104.84880308837491       99.74077167526545
H          109.05152137155201      107.03910761637408       98.66018911812952
H          107.75152740281749      106.20506917048489       98.12731434887249
O          102.27379550178239      100.67501134581616      104.60203184314672
C          123.08435678501797      104.42525669526765      122.28993989103110
C          122.76033647097506      105.48098100206914      123.32260173018274
C          123.24080494938708      103.05105620767966      122.93619657610733
C          121.87529505640691      102.45439627276889      123.27126181997357
H          123.78444089406341      102.38609975892713      122.26292288021395
H          123.82642800775396      103.16162905151496      123.85063439397220
C          122.00842876909405      101.21977661573240      124.16393360718121
H          121.27378526756766      103.20350243753462      123.78733604464477
H          121.36795289025001      102.18308365916197      122.34268096551358
C          120.68585120867037      100.49320251179513      124.32007443134772
H          122.73374367520555      100.52638484155587      123.73550806237019
H          122.36033769014539      101.52522737655646      125.15032105042317
N          119.75459833587432      101.17258098554215      124.99089898618763
O          121.88416261788672      106.36141473856637      122.89475146897436
O          123.25959413357596      105.51317301325143      124.42839425842175
H          121.65195314438846      107.07615824688106      123.57535565654975
H          124.01006924413674      104.71520778234694      121.79065186455045
H          122.29254821131457      104.41544836153736      121.54185480920202
C          118.43716931454976      100.66418533339512      125.30003582809439
H          119.95328137048567      102.12429643213896      125.29064225016650
C          117.32302683201890      101.46436609190360      124.62386688641574
H          118.40556405977790       99.62063007557931      124.97962575869541
H          118.29399944517084      100.70082222047442      126.38479292824515
C          117.24851285015889      101.21870960471222      123.11927374929738
H          116.37482534695965      101.18834513618661      125.08924744692091
H          117.48808126722635      102.52649209341322      124.81232608423484
C          116.04010353209794      101.90636252585998      122.48729352350250
H          118.16954230112928      101.57261361345057      122.65145135973549
H          117.18068095878361      100.14476924976684      122.93338729928895
C          115.83276092207026      101.47716278917983      121.03614725800490
H          115.14716754781665      101.65045163974175      123.06128777643724
H          116.16468038584314      102.98853065978969      122.53857902184481
C          114.60141254483254      102.13320250310959      120.42156259646518
H          116.71314233033476      101.71848925314690      120.43758877214600
H          115.69278297845055      100.39397959606251      121.00320660798707
N          114.23536715088817      101.46792150450372      119.18817343242961
H          113.77054193227032      102.08622918661879      121.13344618646553
H          114.78630161641946      103.18798293137816      120.19195722464259