      -----------------------------------------------------------      
     |                   =====================                   |     
     |                           x T B                           |     
     |                   =====================                   |     
     |                         S. Grimme                         |     
     |          Mulliken Center for Theoretical Chemistry        |     
     |                    University of Bonn                     |     
      -----------------------------------------------------------      

   * xtb version 6.6.1 (8d0f1dd) compiled by 'stahn@M-Bot' on 2023-08-01

   xtb is free software: you can redistribute it and/or modify it under
   the terms of the GNU Lesser General Public License as published by
   the Free Software Foundation, either version 3 of the License, or
   (at your option) any later version.
   
   xtb is distributed in the hope that it will be useful,
   but WITHOUT ANY WARRANTY; without even the implied warranty of
   MERCHANTABILITY or FITNESS FOR A PARTICULAR PURPOSE.  See the
   GNU Lesser General Public License for more details.
   
   Cite this work as:
   * C. Bannwarth, E. Caldeweyher, S. Ehlert, A. Hansen, P. Pracht,
     J. Seibert, S. Spicher, S. Grimme, WIREs Comput. Mol. Sci., 2020, 11,
     e01493. DOI: 10.1002/wcms.1493
   
   for GFN2-xTB:
   * C. Bannwarth, S. Ehlert and S. Grimme., J. Chem. Theory Comput., 2019,
     15, 1652-1671. DOI: 10.1021/acs.jctc.8b01176
   for GFN1-xTB:
   * S. Grimme, C. Bannwarth, P. Shushkov, J. Chem. Theory Comput., 2017,
     13, 1989-2009. DOI: 10.1021/acs.jctc.7b00118
   for GFN0-xTB:
   * P. Pracht, E. Caldeweyher, S. Ehlert, S. Grimme, ChemRxiv, 2019, preprint.
     DOI: 10.26434/chemrxiv.8326202.v1
   for GFN-FF:
   * S. Spicher and S. Grimme, Angew. Chem. Int. Ed., 2020, 59, 15665-15673.
     DOI: 10.1002/anie.202004239
   
   for ALPB and GBSA implicit solvation:
   * S. Ehlert, M. Stahn, S. Spicher, S. Grimme, J. Chem. Theory Comput.,
     2021, 17, 4250-4261. DOI: 10.1021/acs.jctc.1c00471
   
   for DFT-D4:
   * E. Caldeweyher, C. Bannwarth and S. Grimme, J. Chem. Phys., 2017,
     147, 034112. DOI: 10.1063/1.4993215
   * E. Caldeweyher, S. Ehlert, A. Hansen, H. Neugebauer, S. Spicher,
     C. Bannwarth and S. Grimme, J. Chem. Phys., 2019, 150, 154122.
     DOI: 10.1063/1.5090222
   * E. Caldeweyher, J.-M. Mewes, S. Ehlert and S. Grimme, Phys. Chem. Chem. Phys.
     2020, 22, 8499-8512. DOI: 10.1039/D0CP00502A
   
   for sTDA-xTB:
   * S. Grimme and C. Bannwarth, J. Chem. Phys., 2016, 145, 054103.
     DOI: 10.1063/1.4959605
   
   in the mass-spec context:
   * V. Asgeirsson, C. Bauer and S. Grimme, Chem. Sci., 2017, 8, 4879.
     DOI: 10.1039/c7sc00601b
   * J. Koopman and S. Grimme, ACS Omega 2019, 4, 12, 15120-15133.
     DOI: 10.1021/acsomega.9b02011
   
   for metadynamics refer to:
   * S. Grimme, J. Chem. Theory Comput., 2019, 155, 2847-2862
     DOI: 10.1021/acs.jctc.9b00143
   
   for SPH calculations refer to:
   * S. Spicher and S. Grimme, J. Chem. Theory Comput., 2021, 17, 1701-1714
     DOI: 10.1021/acs.jctc.0c01306
   
   with help from (in alphabetical order)
   P. Atkinson, C. Bannwarth, F. Bohle, G. Brandenburg, E. Caldeweyher
   M. Checinski, S. Dohm, S. Ehlert, S. Ehrlich, I. Gerasimov, C. Hölzer
   A. Katbashev, J. Koopman, C. Lavigne, S. Lehtola, F. März, M. Müller,
   F. Musil, H. Neugebauer, J. Pisarek, C. Plett, P. Pracht, F. Pultar,
   J. Seibert, P. Shushkov, S. Spicher, M. Stahn, M. Steiner, T. Strunk,
   J. Stückrath, T. Rose, and J. Unsleber
   
 * started run on 2024/06/17 at 15:17:36.132     

           -------------------------------------------------
          |                Calculation Setup                |
           -------------------------------------------------

          program call               : /home/abt-grimme/AK-bin/xtb input.xyz --input input.inp --opt --gbsa water
          hostname                   : boar085.thch.uni-bonn.de
          coordinate file            : input.xyz
          omp threads                :                     8

   ID    Z sym.   atoms
    1    6 C      1-120, 363-482, 725-844, 1087-1206, 1449-1568, 1811-1930,
                  2173-2292, 2535-2654, 2897-3016
    2    1 H      121-362, 483-724, 845-1086, 1207-1448, 1569-1810,
                  1931-2172, 2293-2534, 2655-2896, 3017-3258

molecular fragmentation (1/2 indicates fragments):
111111111111111111111111111111111111111111111111111111111111111111111111
111111111111111111111111111111111111111111111111111111111111111111111111
111111111111111111111111111111111111111111111111111111111111111111111111
111111111111111111111111111111111111111111111111111111111111111111111111
111111111111111111111111111111111111111111111111111111111111111111111111
112222222222222222222222222222222222222222222222222222222222222222222222
222222222222222222222222222222222222222222222222222222222222222222222222
222222222222222222222222222222222222222222222222222222222222222222222222
222222222222222222222222222222222222222222222222222222222222222222222222
222222222222222222222222222222222222222222222222222222222222222222222222
222222222222222222222222222222222222222222222222222222222222222222222222
222222222222222222222222222222222222222222222222222222222222222222222222
222222222222222222222222222222222222222222222222222222222222222222222222
222222222222222222222222222222222222222222222222222222222222222222222222
222222222222222222222222222222222222222222222222222222222222222222222222
222222222222222222222222222222222222222222222222222222222222222222222222
222222222222222222222222222222222222222222222222222222222222222222222222
222222222222222222222222222222222222222222222222222222222222222222222222
222222222222222222222222222222222222222222222222222222222222222222222222
222222222222222222222222222222222222222222222222222222222222222222222222
222222222222222222222222222222222222222222222222222222222222222222222222
222222222222222222222222222222222222222222222222222222222222222222222222
222222222222222222222222222222222222222222222222222222222222222222222222
222222222222222222222222222222222222222222222222222222222222222222222222
222222222222222222222222222222222222222222222222222222222222222222222222
222222222222222222222222222222222222222222222222222222222222222222222222
222222222222222222222222222222222222222222222222222222222222222222222222
222222222222222222222222222222222222222222222222222222222222222222222222
222222222222222222222222222222222222222222222222222222222222222222222222
222222222222222222222222222222222222222222222222222222222222222222222222
222222222222222222222222222222222222222222222222222222222222222222222222
222222222222222222222222222222222222222222222222222222222222222222222222
222222222222222222222222222222222222222222222222222222222222222222222222
222222222222222222222222222222222222222222222222222222222222222222222222
222222222222222222222222222222222222222222222222222222222222222222222222
222222222222222222222222222222222222222222222222222222222222222222222222
222222222222222222222222222222222222222222222222222222222222222222222222
222222222222222222222222222222222222222222222222222222222222222222222222
222222222222222222222222222222222222222222222222222222222222222222222222
222222222222222222222222222222222222222222222222222222222222222222222222
222222222222222222222222222222222222222222222222222222222222222222222222
222222222222222222222222222222222222222222222222222222222222222222222222
222222222222222222222222222222222222222222222222222222222222222222222222
222222222222222222222222222222222222222222222222222222222222222222222222
222222222222222222222222222222222222222222222222222222222222222222222222
222222222222222222
# atoms in fragment 1/2:   362  2896
 fragment masses (1/2) :     1685.21    13481.68
CMA distance (Bohr)    :  21.409
constraining FC (au)   :  0.0500

           -------------------------------------------------
          |                 G F N 2 - x T B                 |
           -------------------------------------------------

        Reference                      10.1021/acs.jctc.8b01176
      * Hamiltonian:
        H0-scaling (s, p, d)           1.850000    2.230000    2.230000
        zeta-weighting                 0.500000
      * Dispersion:
        s8                             2.700000
        a1                             0.520000
        a2                             5.000000
        s9                             5.000000
      * Repulsion:
        kExp                           1.500000    1.000000
        rExp                           1.000000
      * Coulomb:
        alpha                          2.000000
        third order                    shell-resolved
        anisotropic                    true
        a3                             3.000000
        a5                             4.000000
        cn-shift                       1.200000
        cn-exp                         4.000000
        max-rad                        5.000000

      * Solvation model:               GBSA
        Solvent                        water
        Parameter file                 internal GFN2-xTB/GBSA
        Dielectric constant                8.0200E+01
        Reference state                gsolv [1 M gas/solution]
        Free energy shift                  1.8574E-03 Eh       1.1656E+00 kcal/mol
        Temperature                        2.9815E+02 K
        Density                            1.0000E+00 kg/L
        Solvent mass                       1.8000E+01 g/mol
        Interaction kernel             Still
        Born radius scaling (c1)           1.5524E+00
        Born radii integrator          GBOBC
        Born offset                        2.4628E-02 a0       4.6540E-02 AA
        H-bond correction              true
        Ion screening                  false
        Surface tension                    1.0000E-05 Eh       1.5569E+01 dyn/cm
        Grid points                               230 per atom
q/qsh data taken from xtbrestart
CAMM data taken from xtbrestart

          ...................................................
          :                      SETUP                      :
          :.................................................:
          :  # basis functions                6498          :
          :  # atomic orbitals                6498          :
          :  # shells                         4338          :
          :  # electrons                      6498          :
          :  max. iterations                   250          :
          :  Hamiltonian                  GFN2-xTB          :
          :  restarted?                       true          :
          :  GBSA solvation                   true          :
          :  PC potential                    false          :
          :  electronic temp.          300.0000000     K    :
          :  accuracy                    1.0000000          :
          :  -> integral cutoff          0.2500000E+02      :
          :  -> integral neglect         0.1000000E-07      :
          :  -> SCF convergence          0.1000000E-05 Eh   :
          :  -> wf. convergence          0.1000000E-03 e    :
          :  Broyden damping             0.4000000          :
          ...................................................

 iter      E             dE          RMSdq      gap      omega  full diag
   1  -3472.1324541 -0.347213E+04  0.688E-05   10.95       0.0  T
   2  -3472.1324541 -0.336013E-08  0.543E-05   10.95      32.3  T
   3  -3472.1324541 -0.496038E-08  0.277E-05   10.95      63.3  T

   *** convergence criteria satisfied after 3 iterations ***

         #    Occupation            Energy/Eh            Energy/eV
      -------------------------------------------------------------
         1        2.0000           -0.6163410             -16.7715
       ...           ...                  ...                  ...
      3243        2.0000           -0.3853784             -10.4867
      3244        2.0000           -0.3848281             -10.4717
      3245        2.0000           -0.3847203             -10.4688
      3246        2.0000           -0.3834973             -10.4355
      3247        2.0000           -0.3831899             -10.4271
      3248        2.0000           -0.3831053             -10.4248
      3249        2.0000           -0.3824225             -10.4062 (HOMO)
      3250                          0.0200579               0.5458 (LUMO)
      3251                          0.0228733               0.6224
      3252                          0.0231387               0.6296
      3253                          0.0234365               0.6377
      3254                          0.0237062               0.6451
       ...                                ...                  ...
      6498                          0.3815578              10.3827
      -------------------------------------------------------------
                  HL-Gap            0.4024804 Eh           10.9520 eV
             Fermi-level           -0.1811823 Eh           -4.9302 eV

 SCC (total)                   0 d,  0 h,  6 min, 53.585 sec
 SCC setup                      ...        0 min,  1.800 sec (  0.435%)
 Dispersion                     ...        0 min,  3.485 sec (  0.843%)
 classical contributions        ...        0 min,  0.133 sec (  0.032%)
 integral evaluation            ...        0 min,  5.879 sec (  1.421%)
 iterations                     ...        3 min,  4.818 sec ( 44.687%)
 molecular gradient             ...        3 min, 28.733 sec ( 50.469%)
 printout                       ...        0 min,  8.736 sec (  2.112%)

         :::::::::::::::::::::::::::::::::::::::::::::::::::::
         ::                     SUMMARY                     ::
         :::::::::::::::::::::::::::::::::::::::::::::::::::::
         :: total energy           -3426.713622603967 Eh    ::
         :: total w/o Gsasa/hb     -3426.619766640777 Eh    ::
         :: gradient norm              0.633898478215 Eh/a0 ::
         :: HOMO-LUMO gap             10.952048584505 eV    ::
         ::.................................................::
         :: SCC energy             -3472.132454069717 Eh    ::
         :: -> isotropic ES            0.283374276880 Eh    ::
         :: -> anisotropic ES          1.274559554899 Eh    ::
         :: -> anisotropic XC          2.135446644902 Eh    ::
         :: -> dispersion             -4.210147030391 Eh    ::
         :: -> Gsolv                  -0.029439104565 Eh    ::
         ::    -> Gelec                0.064416858625 Eh    ::
         ::    -> Gsasa               -0.091402602604 Eh    ::
         ::    -> Ghb                 -0.004310803712 Eh    ::
         ::    -> Gshift               0.001857443127 Eh    ::
         :: repulsion energy          44.726859770414 Eh    ::
         :: add. restraining           0.000000000000 Eh    ::
         :: total charge              -0.000000000009 e     ::
         :::::::::::::::::::::::::::::::::::::::::::::::::::::

      ----------------------------------------------------------- 
     |              Fast Inertial Relaxation Engine              |
      ----------------------------------------------------------- 

          ...................................................
          :                      SETUP                      :
          :.................................................:
          :   energy convergence        0.5000000E-05 Eh    :
          :   grad. convergence         0.1000000E-02 Eh/a0 :
          :   optimization log               true           :
          :   writing optlog all                1     steps :
          :   Hessian reset                    20     steps :
          :   time step scaling                 5     steps :
          :   maximium step len.        1.0000000     a0    :
          :   initial time step         0.2500000     fs    :
          :   maximum time step         1.2500000     fs    :
          :   power reset thr           0.0000000     au    :
          :   alpha parameter           0.1000000           :
          :   BFGS update                   false           :
          :   preconditioning               false           :
          ...................................................

........................................................................
.............................. CYCLE    1 ..............................
........................................................................

 iter      E             dE          RMSdq      gap      omega  full diag
   1  -3472.3673208 -0.347237E+04  0.748E-03   10.99       0.0  T
   2  -3472.3673657 -0.449292E-04  0.394E-03   10.99       1.0  T
   3  -3472.3673662 -0.428410E-06  0.183E-03   10.99       1.0  T
   4  -3472.3673663 -0.155741E-06  0.225E-04   10.99       7.8  T
   5  -3472.3673664 -0.364994E-07  0.144E-04   10.99      12.1  T
     SCC iter.                  ...        4 min, 58.312 sec
     gradient                   ...        3 min, 29.067 sec
 * total energy  : -3426.7592701 Eh     change    :  -0.4564751E-01 Eh
   gradient norm :     0.5999982 Eh/a0  converged?    E=F G=F D=F
   time step     :     0.2500000 fs     power     :   0.2355699E-05
   step length   :     0.0742916 a0     speed     :   0.7188107E-02

........................................................................
.............................. CYCLE    2 ..............................
........................................................................

 iter      E             dE          RMSdq      gap      omega  full diag
   1  -3472.7134508 -0.347271E+04  0.110E-02   11.03       0.0  T
   2  -3472.7135470 -0.962003E-04  0.576E-03   11.03       1.0  T
   3  -3472.7135480 -0.984217E-06  0.268E-03   11.03       1.0  T
   4  -3472.7135484 -0.380335E-06  0.348E-04   11.03       5.0  T
   5  -3472.7135484 -0.870123E-07  0.231E-04   11.03       7.6  T
     SCC iter.                  ...        4 min, 59.791 sec
     gradient                   ...        3 min, 29.512 sec
 * total energy  : -3426.8220658 Eh     change    :  -0.6279567E-01 Eh
   gradient norm :     0.5513301 Eh/a0  converged?    E=F G=F D=F
   time step     :     0.2500000 fs     power     :   0.3187553E-05
   step length   :     0.1093381 a0     speed     :   0.1057905E-01

........................................................................
.............................. CYCLE    3 ..............................
........................................................................

 iter      E             dE          RMSdq      gap      omega  full diag
   1  -3473.1616692 -0.347316E+04  0.140E-02   11.06       0.0  T
   2  -3473.1618257 -0.156512E-03  0.738E-03   11.06       1.0  T
   3  -3473.1618274 -0.169003E-05  0.342E-03   11.05       1.0  T
   4  -3473.1618280 -0.648557E-06  0.456E-04   11.05       3.8  T
   5  -3473.1618282 -0.145963E-06  0.304E-04   11.05       5.8  T
     SCC iter.                  ...        4 min, 56.083 sec
     gradient                   ...        3 min, 30.947 sec
 * total energy  : -3426.8954821 Eh     change    :  -0.7341634E-01 Eh
   gradient norm :     0.4905605 Eh/a0  converged?    E=F G=F D=F
   time step     :     0.2500000 fs     power     :   0.3655139E-05
   step length   :     0.1415321 a0     speed     :   0.1369399E-01

........................................................................
.............................. CYCLE    4 ..............................
........................................................................

 iter      E             dE          RMSdq      gap      omega  full diag
   1  -3473.7003360 -0.347370E+04  0.166E-02   11.06       0.0  T
   2  -3473.7005517 -0.215703E-03  0.874E-03   11.05       1.0  T
   3  -3473.7005542 -0.249370E-05  0.400E-03   11.05       1.0  T
   4  -3473.7005551 -0.927434E-06  0.551E-04   11.05       3.2  T
   5  -3473.7005553 -0.203005E-06  0.366E-04   11.05       4.8  T
     SCC iter.                  ...        4 min, 53.973 sec
     gradient                   ...        3 min, 28.054 sec
 * total energy  : -3426.9721792 Eh     change    :  -0.7669710E-01 Eh
   gradient norm :     0.4221201 Eh/a0  converged?    E=F G=F D=F
   time step     :     0.2500000 fs     power     :   0.3728652E-05
   step length   :     0.1700164 a0     speed     :   0.1645000E-01

........................................................................
.............................. CYCLE    5 ..............................
........................................................................

 iter      E             dE          RMSdq      gap      omega  full diag
   1  -3474.3154462 -0.347432E+04  0.186E-02   11.05       0.0  T
   2  -3474.3157090 -0.262844E-03  0.979E-03   11.05       1.0  T
   3  -3474.3157124 -0.333962E-05  0.441E-03   11.05       1.0  T
   4  -3474.3157135 -0.117928E-05  0.631E-04   11.04       2.8  T
   5  -3474.3157138 -0.247585E-06  0.415E-04   11.04       4.2  T
   6  -3474.3157139 -0.156664E-06  0.185E-04   11.04       9.5  T
     SCC iter.                  ...        5 min, 56.305 sec
     gradient                   ...        3 min, 29.029 sec
 * total energy  : -3427.0450495 Eh     change    :  -0.7287028E-01 Eh
   gradient norm :     0.3527759 Eh/a0  converged?    E=F G=F D=F
   time step     :     0.2500000 fs     power     :   0.3437660E-05
   step length   :     0.1940569 a0     speed     :   0.1877605E-01

........................................................................
.............................. CYCLE    6 ..............................
........................................................................

 iter      E             dE          RMSdq      gap      omega  full diag
   1  -3475.0643173 -0.347506E+04  0.222E-02   11.04       0.0  T
   2  -3475.0646692 -0.351915E-03  0.116E-02   11.04       1.0  T
   3  -3475.0646743 -0.504210E-05  0.510E-03   11.04       1.0  T
   4  -3475.0646759 -0.159045E-05  0.755E-04   11.03       2.3  T
   5  -3475.0646762 -0.313312E-06  0.484E-04   11.03       3.6  T
   6  -3475.0646764 -0.176584E-06  0.198E-04   11.03       8.8  T
     SCC iter.                  ...        5 min, 51.511 sec
     gradient                   ...        3 min, 28.040 sec
 * total energy  : -3427.1142684 Eh     change    :  -0.6921892E-01 Eh
   gradient norm :     0.2860924 Eh/a0  converged?    E=F G=F D=F
   time step     :     0.2750000 fs     power     :   0.2789813E-05
   step length   :     0.2364531 a0     speed     :   0.2079828E-01

........................................................................
.............................. CYCLE    7 ..............................
........................................................................

 iter      E             dE          RMSdq      gap      omega  full diag
   1  -3475.9412016 -0.347594E+04  0.253E-02   11.03       0.0  T
   2  -3475.9416150 -0.413372E-03  0.133E-02   11.03       1.0  T
   3  -3475.9416223 -0.736444E-05  0.554E-03   11.03       1.0  T
   4  -3475.9416244 -0.205623E-05  0.887E-04   11.02       2.0  T
   5  -3475.9416247 -0.358187E-06  0.556E-04   11.02       3.1  T
   6  -3475.9416249 -0.198507E-06  0.207E-04   11.02       8.5  T
     SCC iter.                  ...        5 min, 51.852 sec
     gradient                   ...        3 min, 28.133 sec
 * total energy  : -3427.1716818 Eh     change    :  -0.5741336E-01 Eh
   gradient norm :     0.2425135 Eh/a0  converged?    E=F G=F D=F
   time step     :     0.3025000 fs     power     :   0.1883713E-05
   step length   :     0.2785610 a0     speed     :   0.2227461E-01

........................................................................
.............................. CYCLE    8 ..............................
........................................................................

 iter      E             dE          RMSdq      gap      omega  full diag
   1  -3476.9091311 -0.347691E+04  0.276E-02   11.03       0.0  T
   2  -3476.9095268 -0.395719E-03  0.146E-02   11.02       1.0  T
   3  -3476.9095368 -0.998159E-05  0.545E-03   11.02       1.0  T
   4  -3476.9095391 -0.230099E-05  0.994E-04   11.02       1.8  T
   5  -3476.9095395 -0.328449E-06  0.603E-04   11.02       2.9  T
   6  -3476.9095396 -0.184040E-06  0.193E-04   11.02       9.1  T
     SCC iter.                  ...        5 min, 49.119 sec
     gradient                   ...        3 min, 29.179 sec
 * total energy  : -3427.2118835 Eh     change    :  -0.4020170E-01 Eh
   gradient norm :     0.2378449 Eh/a0  converged?    E=F G=F D=F
   time step     :     0.3327500 fs     power     :   0.9651438E-06
   step length   :     0.3143809 a0     speed     :   0.2285352E-01

........................................................................
.............................. CYCLE    9 ..............................
........................................................................

 iter      E             dE          RMSdq      gap      omega  full diag
   1  -3477.8911432 -0.347789E+04  0.292E-02   11.03       0.0  T
   2  -3477.8914248 -0.281572E-03  0.159E-02   11.03       1.0  T
   3  -3477.8914370 -0.121710E-04  0.459E-03   11.03       1.0  T
   4  -3477.8914390 -0.205523E-05  0.105E-03   11.03       1.7  T
   5  -3477.8914392 -0.213303E-06  0.596E-04   11.03       2.9  T
   6  -3477.8914394 -0.130623E-06  0.150E-04   11.03      11.7  T
     SCC iter.                  ...        5 min, 55.420 sec
     gradient                   ...        3 min, 28.697 sec
 * total energy  : -3427.2356660 Eh     change    :  -0.2378249E-01 Eh
   gradient norm :     0.2530806 Eh/a0  converged?    E=F G=F D=F
   time step     :     0.3660250 fs     power     :   0.3000891E-06
   step length   :     0.3381634 a0     speed     :   0.2234760E-01

........................................................................
.............................. CYCLE   10 ..............................
........................................................................

 iter      E             dE          RMSdq      gap      omega  full diag
   1  -3478.7932201 -0.347879E+04  0.310E-02   11.04       0.0  T
   2  -3478.7933532 -0.133068E-03  0.175E-02   11.04       1.0  T
   3  -3478.7933664 -0.131994E-04  0.298E-03   11.04       1.0  T
   4  -3478.7933679 -0.149776E-05  0.105E-03   11.04       1.7  T
   5  -3478.7933679 -0.751193E-07  0.523E-04   11.04       3.4  T
   6  -3478.7933680 -0.728392E-07  0.860E-05   11.04      20.4  T
     SCC iter.                  ...        5 min, 50.955 sec
     gradient                   ...        3 min, 28.982 sec
 * total energy  : -3427.2480471 Eh     change    :  -0.1238112E-01 Eh
   gradient norm :     0.2538912 Eh/a0  converged?    E=F G=F D=F
   time step     :     0.4026275 fs     power     :  -0.7714635E-07
   step length   :     0.3512747 a0     speed     :   0.2110370E-01

........................................................................
.............................. CYCLE   11 ..............................
........................................................................
 * reset velocities

 iter      E             dE          RMSdq      gap      omega  full diag
   1  -3478.7760639 -0.347878E+04  0.116E-03   11.04       0.0  T
   2  -3478.7760647 -0.812521E-06  0.668E-04   11.04       2.6  T
   3  -3478.7760647 -0.447380E-08  0.270E-04   11.04       6.5  T
     SCC iter.                  ...        3 min,  1.686 sec
     gradient                   ...        3 min, 26.650 sec
 * total energy  : -3427.2504621 Eh     change    :  -0.2415031E-02 Eh
   gradient norm :     0.2467922 Eh/a0  converged?    E=F G=F D=F
   time step     :     0.2013138 fs     power     :   0.1569314E-06
   step length   :     0.0096473 a0     speed     :   0.1159166E-02

........................................................................
.............................. CYCLE   12 ..............................
........................................................................

 iter      E             dE          RMSdq      gap      omega  full diag
   1  -3478.7419020 -0.347874E+04  0.228E-03   11.04       0.0  T
   2  -3478.7419052 -0.314145E-05  0.132E-03   11.04       1.3  T
   3  -3478.7419052 -0.175596E-07  0.531E-04   11.04       3.3  T
   4  -3478.7419052 -0.803630E-08  0.436E-05   11.04      40.2  T
     SCC iter.                  ...        3 min, 57.747 sec
     gradient                   ...        3 min, 28.968 sec
 * total energy  : -3427.2550248 Eh     change    :  -0.4562655E-02 Eh
   gradient norm :     0.2328784 Eh/a0  converged?    E=F G=F D=F
   time step     :     0.2013138 fs     power     :   0.2919981E-06
   step length   :     0.0190247 a0     speed     :   0.2285912E-02

........................................................................
.............................. CYCLE   13 ..............................
........................................................................

 iter      E             dE          RMSdq      gap      omega  full diag
   1  -3478.6917722 -0.347869E+04  0.334E-03   11.04       0.0  T
   2  -3478.6917790 -0.680213E-05  0.192E-03   11.04       1.0  T
   3  -3478.6917790 -0.446876E-07  0.783E-04   11.04       2.2  T
   4  -3478.6917790 -0.231494E-07  0.746E-05   11.04      23.5  T
     SCC iter.                  ...        3 min, 52.754 sec
     gradient                   ...        3 min, 27.226 sec
 * total energy  : -3427.2612320 Eh     change    :  -0.6207231E-02 Eh
   gradient norm :     0.2126060 Eh/a0  converged?    E=F G=F D=F
   time step     :     0.2013138 fs     power     :   0.3904292E-06
   step length   :     0.0278728 a0     speed     :   0.3349054E-02

........................................................................
.............................. CYCLE   14 ..............................
........................................................................

 iter      E             dE          RMSdq      gap      omega  full diag
   1  -3478.6270085 -0.347863E+04  0.430E-03   11.04       0.0  T
   2  -3478.6270198 -0.113222E-04  0.247E-03   11.04       1.0  T
   3  -3478.6270199 -0.787518E-07  0.101E-03   11.04       1.7  T
   4  -3478.6270199 -0.418290E-07  0.101E-04   11.04      17.4  T
   5  -3478.6270199 -0.117616E-07  0.696E-05   11.04      25.2  T
     SCC iter.                  ...        4 min, 57.820 sec
     gradient                   ...        3 min, 28.547 sec
 * total energy  : -3427.2684041 Eh     change    :  -0.7172122E-02 Eh
   gradient norm :     0.1866949 Eh/a0  converged?    E=F G=F D=F
   time step     :     0.2013138 fs     power     :   0.4417271E-06
   step length   :     0.0359479 a0     speed     :   0.4319319E-02

........................................................................
.............................. CYCLE   15 ..............................
........................................................................

 iter      E             dE          RMSdq      gap      omega  full diag
   1  -3478.5493962 -0.347855E+04  0.512E-03   11.04       0.0  T
   2  -3478.5494124 -0.162041E-04  0.295E-03   11.05       1.0  T
   3  -3478.5494125 -0.105769E-06  0.121E-03   11.05       1.4  T
   4  -3478.5494125 -0.547470E-07  0.115E-04   11.05      15.2  T
   5  -3478.5494126 -0.155878E-07  0.781E-05   11.05      22.4  T
     SCC iter.                  ...        4 min, 52.574 sec
     gradient                   ...        3 min, 27.930 sec
 * total energy  : -3427.2757646 Eh     change    :  -0.7360485E-02 Eh
   gradient norm :     0.1561831 Eh/a0  converged?    E=F G=F D=F
   time step     :     0.2013138 fs     power     :   0.4410427E-06
   step length   :     0.0430302 a0     speed     :   0.5170287E-02

........................................................................
.............................. CYCLE   16 ..............................
........................................................................

 iter      E             dE          RMSdq      gap      omega  full diag
   1  -3478.4611783 -0.347846E+04  0.578E-03   11.05       0.0  T
   2  -3478.4611992 -0.208717E-04  0.333E-03   11.05       1.0  T
   3  -3478.4611994 -0.134799E-06  0.137E-03   11.05       1.3  T
   4  -3478.4611994 -0.695568E-07  0.130E-04   11.05      13.5  T
   5  -3478.4611994 -0.199389E-07  0.877E-05   11.05      20.0  T
     SCC iter.                  ...        4 min, 56.276 sec
     gradient                   ...        3 min, 27.831 sec
 * total energy  : -3427.2825329 Eh     change    :  -0.6768295E-02 Eh
   gradient norm :     0.1224817 Eh/a0  converged?    E=F G=F D=F
   time step     :     0.2013138 fs     power     :   0.3896901E-06
   step length   :     0.0489292 a0     speed     :   0.5879090E-02

........................................................................
.............................. CYCLE   17 ..............................
........................................................................

 iter      E             dE          RMSdq      gap      omega  full diag
   1  -3478.3546288 -0.347835E+04  0.694E-03   11.05       0.0  T
   2  -3478.3546592 -0.304001E-04  0.400E-03   11.05       1.0  T
   3  -3478.3546594 -0.192103E-06  0.166E-03   11.05       1.1  T
   4  -3478.3546595 -0.981108E-07  0.154E-04   11.05      11.3  T
   5  -3478.3546596 -0.283817E-07  0.103E-04   11.05      17.0  T
     SCC iter.                  ...        5 min,  2.629 sec
     gradient                   ...        3 min, 29.157 sec
 * total energy  : -3427.2885023 Eh     change    :  -0.5969380E-02 Eh
   gradient norm :     0.0843951 Eh/a0  converged?    E=F G=F D=F
   time step     :     0.2214451 fs     power     :   0.2835505E-06
   step length   :     0.0593323 a0     speed     :   0.6480970E-02

........................................................................
.............................. CYCLE   18 ..............................
........................................................................

 iter      E             dE          RMSdq      gap      omega  full diag
   1  -3478.2316280 -0.347823E+04  0.796E-03   11.05       0.0  T
   2  -3478.2316687 -0.406317E-04  0.460E-03   11.06       1.0  T
   3  -3478.2316689 -0.253900E-06  0.192E-03   11.06       1.0  T
   4  -3478.2316691 -0.127562E-06  0.177E-04   11.06       9.9  T
   5  -3478.2316691 -0.376858E-07  0.116E-04   11.06      15.0  T
     SCC iter.                  ...        4 min, 53.775 sec
     gradient                   ...        3 min, 27.125 sec
 * total energy  : -3427.2924996 Eh     change    :  -0.3997251E-02 Eh
   gradient norm :     0.0511935 Eh/a0  converged?    E=F G=F D=F
   time step     :     0.2435896 fs     power     :   0.1284012E-06
   step length   :     0.0694430 a0     speed     :   0.6895799E-02

........................................................................
.............................. CYCLE   19 ..............................
........................................................................

 iter      E             dE          RMSdq      gap      omega  full diag
   1  -3478.1021961 -0.347810E+04  0.836E-03   11.06       0.0  T
   2  -3478.1022419 -0.457971E-04  0.485E-03   11.06       1.0  T
   3  -3478.1022421 -0.286881E-06  0.204E-03   11.06       1.0  T
   4  -3478.1022423 -0.139013E-06  0.187E-04   11.06       9.4  T
   5  -3478.1022423 -0.423738E-07  0.119E-04   11.06      14.7  T
     SCC iter.                  ...        4 min, 53.962 sec
     gradient                   ...        3 min, 29.645 sec
 * total energy  : -3427.2935642 Eh     change    :  -0.1064684E-02 Eh
   gradient norm :     0.0554921 Eh/a0  converged?    E=F G=F D=F
   time step     :     0.2679486 fs     power     :  -0.3840187E-07
   step length   :     0.0765878 a0     speed     :   0.6913903E-02

........................................................................
.............................. CYCLE   20 ..............................
........................................................................
 * reset velocities

 iter      E             dE          RMSdq      gap      omega  full diag
   1  -3478.1034672 -0.347810E+04  0.122E-04   11.06       0.0  T
   2  -3478.1034672 -0.633690E-08  0.800E-05   11.06      21.9  T
   3  -3478.1034672 -0.443379E-08  0.376E-05   11.06      46.6  T
     SCC iter.                  ...        2 min, 59.246 sec
     gradient                   ...        3 min, 27.784 sec
 * total energy  : -3427.2936159 Eh     change    :  -0.5166347E-04 Eh
   gradient norm :     0.0551506 Eh/a0  converged?    E=F G=F D=T
   time step     :     0.1339743 fs     power     :   0.5101033E-08
   step length   :     0.0009339 a0     speed     :   0.1686078E-03
 * RMSD in coord.:     0.0349121 a0     energy gain  -0.5799933E+00 Eh

........................................................................
.............................. CYCLE   21 ..............................
........................................................................

 iter      E             dE          RMSdq      gap      omega  full diag
   1  -3478.1099509 -0.347811E+04  0.542E-04   11.06       0.0  T
   2  -3478.1099509 -0.812606E-07  0.307E-04   11.06       5.7  T
   3  -3478.1099509 -0.791260E-09  0.828E-05   11.06      21.2  T
     SCC iter.                  ...        2 min, 58.660 sec
     gradient                   ...        3 min, 29.335 sec
 * total energy  : -3427.2938861 Eh     change    :  -0.2702064E-03 Eh
   gradient norm :     0.0535176 Eh/a0  converged?    E=F G=F D=F
   time step     :     0.2500000 fs     power     :   0.1412154E-07
   step length   :     0.0049744 a0     speed     :   0.4812962E-03

........................................................................
.............................. CYCLE   22 ..............................
........................................................................

 iter      E             dE          RMSdq      gap      omega  full diag
   1  -3478.1203385 -0.347812E+04  0.884E-04   11.06       0.0  T
   2  -3478.1203387 -0.207650E-06  0.503E-04   11.06       3.5  T
   3  -3478.1203388 -0.368573E-08  0.133E-04   11.06      13.2  T
     SCC iter.                  ...        2 min, 55.772 sec
     gradient                   ...        3 min, 28.810 sec
 * total energy  : -3427.2943095 Eh     change    :  -0.4233799E-03 Eh
   gradient norm :     0.0510444 Eh/a0  converged?    E=F G=F D=F
   time step     :     0.2500000 fs     power     :   0.2190737E-07
   step length   :     0.0081092 a0     speed     :   0.7846089E-03

........................................................................
.............................. CYCLE   23 ..............................
........................................................................

 iter      E             dE          RMSdq      gap      omega  full diag
   1  -3478.1341445 -0.347813E+04  0.119E-03   11.06       0.0  T
   2  -3478.1341449 -0.363269E-06  0.678E-04   11.06       2.6  T
   3  -3478.1341449 -0.871069E-08  0.176E-04   11.06       9.9  T
     SCC iter.                  ...        2 min, 57.776 sec
     gradient                   ...        3 min, 28.643 sec
 * total energy  : -3427.2948565 Eh     change    :  -0.5470265E-03 Eh
   gradient norm :     0.0480377 Eh/a0  converged?    E=F G=F D=F
   time step     :     0.2500000 fs     power     :   0.2803573E-07
   step length   :     0.0110932 a0     speed     :   0.1073323E-02

........................................................................
.............................. CYCLE   24 ..............................
........................................................................

 iter      E             dE          RMSdq      gap      omega  full diag
   1  -3478.1506873 -0.347815E+04  0.145E-03   11.06       0.0  T
   2  -3478.1506878 -0.511876E-06  0.827E-04   11.06       2.1  T
   3  -3478.1506878 -0.145915E-07  0.209E-04   11.06       8.4  T
     SCC iter.                  ...        2 min, 58.600 sec
     gradient                   ...        3 min, 28.172 sec
 * total energy  : -3427.2954939 Eh     change    :  -0.6373967E-03 Eh
   gradient norm :     0.0449185 Eh/a0  converged?    E=F G=F D=F
   time step     :     0.2500000 fs     power     :   0.3239532E-07
   step length   :     0.0138833 a0     speed     :   0.1343283E-02

........................................................................
.............................. CYCLE   25 ..............................
........................................................................

 iter      E             dE          RMSdq      gap      omega  full diag
   1  -3478.1690941 -0.347817E+04  0.166E-03   11.06       0.0  T
   2  -3478.1690948 -0.614868E-06  0.946E-04   11.06       1.9  T
   3  -3478.1690948 -0.205514E-07  0.228E-04   11.06       7.7  T
     SCC iter.                  ...        2 min, 55.945 sec
     gradient                   ...        3 min, 28.238 sec
 * total energy  : -3427.2961910 Eh     change    :  -0.6971249E-03 Eh
   gradient norm :     0.0421635 Eh/a0  converged?    E=F G=F D=F
   time step     :     0.2500000 fs     power     :   0.3522370E-07
   step length   :     0.0164506 a0     speed     :   0.1591679E-02

........................................................................
.............................. CYCLE   26 ..............................
........................................................................

 iter      E             dE          RMSdq      gap      omega  full diag
   1  -3478.1904195 -0.347819E+04  0.200E-03   11.07       0.0  T
   2  -3478.1904203 -0.786592E-06  0.114E-03   11.07       1.5  T
   3  -3478.1904203 -0.301266E-07  0.255E-04   11.07       6.9  T
   4  -3478.1904203 -0.118484E-07  0.632E-05   11.06      27.7  T
     SCC iter.                  ...        3 min, 54.046 sec
     gradient                   ...        3 min, 27.665 sec
 * total energy  : -3427.2970062 Eh     change    :  -0.8151356E-03 Eh
   gradient norm :     0.0400244 Eh/a0  converged?    E=F G=F D=F
   time step     :     0.2750000 fs     power     :   0.3717155E-07
   step length   :     0.0209243 a0     speed     :   0.1840489E-02

........................................................................
.............................. CYCLE   27 ..............................
........................................................................

 iter      E             dE          RMSdq      gap      omega  full diag
   1  -3478.2135327 -0.347821E+04  0.232E-03   11.07       0.0  T
   2  -3478.2135336 -0.866339E-06  0.132E-03   11.07       1.3  T
   3  -3478.2135336 -0.374298E-07  0.264E-04   11.07       6.6  T
   4  -3478.2135336 -0.152795E-07  0.699E-05   11.07      25.0  T
     SCC iter.                  ...        3 min, 59.482 sec
     gradient                   ...        3 min, 28.873 sec
 * total energy  : -3427.2979454 Eh     change    :  -0.9392263E-03 Eh
   gradient norm :     0.0389860 Eh/a0  converged?    E=F G=F D=F
   time step     :     0.3025000 fs     power     :   0.3885721E-07
   step length   :     0.0260891 a0     speed     :   0.2086167E-02

........................................................................
.............................. CYCLE   28 ..............................
........................................................................

 iter      E             dE          RMSdq      gap      omega  full diag
   1  -3478.2364692 -0.347824E+04  0.258E-03   11.07       0.0  T
   2  -3478.2364699 -0.753459E-06  0.148E-03   11.07       1.2  T
   3  -3478.2364700 -0.462837E-07  0.241E-04   11.07       7.3  T
   4  -3478.2364700 -0.182813E-07  0.763E-05   11.07      23.0  T
     SCC iter.                  ...        3 min, 53.958 sec
     gradient                   ...        3 min, 28.297 sec
 * total energy  : -3427.2990366 Eh     change    :  -0.1091154E-02 Eh
   gradient norm :     0.0390046 Eh/a0  converged?    E=F G=F D=F
   time step     :     0.3327500 fs     power     :   0.4128758E-07
   step length   :     0.0320376 a0     speed     :   0.2328930E-02

........................................................................
.............................. CYCLE   29 ..............................
........................................................................

 iter      E             dE          RMSdq      gap      omega  full diag
   1  -3478.2566040 -0.347826E+04  0.278E-03   11.07       0.0  T
   2  -3478.2566044 -0.487814E-06  0.160E-03   11.07       1.1  T
   3  -3478.2566045 -0.519326E-07  0.193E-04   11.07       9.1  T
   4  -3478.2566045 -0.213731E-07  0.795E-05   11.07      22.0  T
     SCC iter.                  ...        3 min, 57.215 sec
     gradient                   ...        3 min, 28.557 sec
 * total energy  : -3427.3003370 Eh     change    :  -0.1300457E-02 Eh
   gradient norm :     0.0391997 Eh/a0  converged?    E=F G=F D=F
   time step     :     0.3660250 fs     power     :   0.4522028E-07
   step length   :     0.0389935 a0     speed     :   0.2576896E-02

........................................................................
.............................. CYCLE   30 ..............................
........................................................................

 iter      E             dE          RMSdq      gap      omega  full diag
   1  -3478.2711808 -0.347827E+04  0.297E-03   11.07       0.0  T
   2  -3478.2711811 -0.293860E-06  0.174E-03   11.07       1.0  T
   3  -3478.2711812 -0.528535E-07  0.158E-04   11.07      11.1  T
   4  -3478.2711812 -0.257915E-07  0.789E-05   11.07      22.2  T
     SCC iter.                  ...        3 min, 59.583 sec
     gradient                   ...        3 min, 28.128 sec
 * total energy  : -3427.3019178 Eh     change    :  -0.1580790E-02 Eh
   gradient norm :     0.0382291 Eh/a0  converged?    E=F G=F D=F
   time step     :     0.4026275 fs     power     :   0.5028380E-07
   step length   :     0.0473565 a0     speed     :   0.2845062E-02

........................................................................
.............................. CYCLE   31 ..............................
........................................................................

 iter      E             dE          RMSdq      gap      omega  full diag
   1  -3478.2781971 -0.347828E+04  0.327E-03   11.07       0.0  T
   2  -3478.2781977 -0.539876E-06  0.194E-03   11.07       1.0  T
   3  -3478.2781977 -0.507821E-07  0.173E-04   11.07      10.1  T
   4  -3478.2781978 -0.313598E-07  0.735E-05   11.07      23.8  T
     SCC iter.                  ...        3 min, 56.573 sec
     gradient                   ...        3 min, 28.225 sec
 * total energy  : -3427.3038163 Eh     change    :  -0.1898500E-02 Eh
   gradient norm :     0.0351477 Eh/a0  converged?    E=F G=F D=F
   time step     :     0.4428903 fs     power     :   0.5452478E-07
   step length   :     0.0576008 a0     speed     :   0.3145917E-02

........................................................................
.............................. CYCLE   32 ..............................
........................................................................

 iter      E             dE          RMSdq      gap      omega  full diag
   1  -3478.2779044 -0.347828E+04  0.374E-03   11.08       0.0  T
   2  -3478.2779058 -0.142022E-05  0.224E-03   11.08       1.0  T
   3  -3478.2779059 -0.579776E-07  0.258E-04   11.08       6.8  T
   4  -3478.2779059 -0.356590E-07  0.743E-05   11.08      23.6  T
     SCC iter.                  ...        3 min, 56.015 sec
     gradient                   ...        3 min, 28.912 sec
 * total energy  : -3427.3059799 Eh     change    :  -0.2163625E-02 Eh
   gradient norm :     0.0305941 Eh/a0  converged?    E=F G=F D=F
   time step     :     0.4871793 fs     power     :   0.5526912E-07
   step length   :     0.0700493 a0     speed     :   0.3478005E-02

........................................................................
.............................. CYCLE   33 ..............................
........................................................................

 iter      E             dE          RMSdq      gap      omega  full diag
   1  -3478.2750756 -0.347828E+04  0.431E-03   11.08       0.0  T
   2  -3478.2750779 -0.231598E-05  0.260E-03   11.08       1.0  T
   3  -3478.2750780 -0.716495E-07  0.328E-04   11.08       5.3  T
   4  -3478.2750781 -0.393516E-07  0.784E-05   11.08      22.3  T
     SCC iter.                  ...        4 min,  1.174 sec
     gradient                   ...        3 min, 29.108 sec
 * total energy  : -3427.3082753 Eh     change    :  -0.2295354E-02 Eh
   gradient norm :     0.0275975 Eh/a0  converged?    E=F G=F D=F
   time step     :     0.5358972 fs     power     :   0.5186844E-07
   step length   :     0.0846178 a0     speed     :   0.3819402E-02

........................................................................
.............................. CYCLE   34 ..............................
........................................................................

 iter      E             dE          RMSdq      gap      omega  full diag
   1  -3478.2809407 -0.347828E+04  0.487E-03   11.09       0.0  T
   2  -3478.2809426 -0.185089E-05  0.293E-03   11.09       1.0  T
   3  -3478.2809427 -0.909204E-07  0.250E-04   11.09       7.0  T
   4  -3478.2809427 -0.388995E-07  0.824E-05   11.09      21.3  T
     SCC iter.                  ...        3 min, 54.691 sec
     gradient                   ...        3 min, 28.046 sec
 * total energy  : -3427.3106313 Eh     change    :  -0.2356063E-02 Eh
   gradient norm :     0.0279594 Eh/a0  converged?    E=F G=F D=F
   time step     :     0.5894869 fs     power     :   0.4805601E-07
   step length   :     0.1005611 a0     speed     :   0.4126397E-02

........................................................................
.............................. CYCLE   35 ..............................
........................................................................

 iter      E             dE          RMSdq      gap      omega  full diag
   1  -3478.3088346 -0.347831E+04  0.561E-03   11.10       0.0  T
   2  -3478.3088351 -0.514939E-06  0.332E-03   11.10       1.0  T
   3  -3478.3088353 -0.128003E-06  0.167E-04   11.10      10.5  T
   4  -3478.3088353 -0.263890E-07  0.896E-05   11.10      19.5  T
     SCC iter.                  ...        3 min, 57.280 sec
     gradient                   ...        3 min, 27.669 sec
 * total energy  : -3427.3131463 Eh     change    :  -0.2514943E-02 Eh
   gradient norm :     0.0273568 Eh/a0  converged?    E=F G=F D=F
   time step     :     0.6484356 fs     power     :   0.4716555E-07
   step length   :     0.1173621 a0     speed     :   0.4378002E-02

........................................................................
.............................. CYCLE   36 ..............................
........................................................................

 iter      E             dE          RMSdq      gap      omega  full diag
   1  -3478.3647811 -0.347836E+04  0.675E-03   11.11       0.0  T
   2  -3478.3647823 -0.118596E-05  0.391E-03   11.11       1.0  T
   3  -3478.3647825 -0.176375E-06  0.233E-04   11.10       7.5  T
   4  -3478.3647825 -0.211398E-07  0.102E-04   11.10      17.2  T
     SCC iter.                  ...        3 min, 55.533 sec
     gradient                   ...        3 min, 29.197 sec
 * total energy  : -3427.3158526 Eh     change    :  -0.2706329E-02 Eh
   gradient norm :     0.0232834 Eh/a0  converged?    E=F G=F D=F
   time step     :     0.7132792 fs     power     :   0.4518616E-07
   step length   :     0.1362636 a0     speed     :   0.4620994E-02

........................................................................
.............................. CYCLE   37 ..............................
........................................................................

 iter      E             dE          RMSdq      gap      omega  full diag
   1  -3478.4371285 -0.347844E+04  0.766E-03   11.11       0.0  T
   2  -3478.4371314 -0.290426E-05  0.440E-03   11.11       1.0  T
   3  -3478.4371316 -0.199716E-06  0.376E-04   11.11       4.7  T
   4  -3478.4371317 -0.302507E-07  0.109E-04   11.11      16.1  T
     SCC iter.                  ...        3 min, 54.268 sec
     gradient                   ...        3 min, 29.539 sec
 * total energy  : -3427.3185359 Eh     change    :  -0.2683298E-02 Eh
   gradient norm :     0.0227929 Eh/a0  converged?    E=F G=F D=F
   time step     :     0.7846071 fs     power     :   0.3901239E-07
   step length   :     0.1579800 a0     speed     :   0.4870405E-02

........................................................................
.............................. CYCLE   38 ..............................
........................................................................

 iter      E             dE          RMSdq      gap      omega  full diag
   1  -3478.4911635 -0.347849E+04  0.735E-03   11.12       0.0  T
   2  -3478.4911644 -0.879377E-06  0.428E-03   11.12       1.0  T
   3  -3478.4911646 -0.186656E-06  0.202E-04   11.12       8.7  T
   4  -3478.4911646 -0.186833E-07  0.959E-05   11.12      18.3  T
     SCC iter.                  ...        3 min, 55.238 sec
     gradient                   ...        3 min, 29.372 sec
 * total energy  : -3427.3212562 Eh     change    :  -0.2720330E-02 Eh
   gradient norm :     0.0247210 Eh/a0  converged?    E=F G=F D=F
   time step     :     0.8630678 fs     power     :   0.3710621E-07
   step length   :     0.1800534 a0     speed     :   0.5046282E-02

........................................................................
.............................. CYCLE   39 ..............................
........................................................................

 iter      E             dE          RMSdq      gap      omega  full diag
   1  -3478.5034148 -0.347850E+04  0.685E-03   11.14       0.0  T
   2  -3478.5034172 -0.239639E-05  0.410E-03   11.14       1.0  T
   3  -3478.5034174 -0.226944E-06  0.251E-04   11.14       7.0  T
   4  -3478.5034174 -0.294003E-07  0.123E-04   11.14      14.3  T
     SCC iter.                  ...        4 min,  1.778 sec
     gradient                   ...        3 min, 27.765 sec
 * total energy  : -3427.3242731 Eh     change    :  -0.3016840E-02 Eh
   gradient norm :     0.0216402 Eh/a0  converged?    E=F G=F D=F
   time step     :     0.9493746 fs     power     :   0.3725573E-07
   step length   :     0.2039801 a0     speed     :   0.5197151E-02

........................................................................
.............................. CYCLE   40 ..............................
........................................................................

 iter      E             dE          RMSdq      gap      omega  full diag
   1  -3478.4940775 -0.347849E+04  0.689E-03   11.15       0.0  T
   2  -3478.4940826 -0.517768E-05  0.414E-03   11.15       1.0  T
   3  -3478.4940829 -0.313486E-06  0.438E-04   11.15       4.0  T
   4  -3478.4940830 -0.563441E-07  0.165E-04   11.15      10.6  T
     SCC iter.                  ...        3 min, 55.152 sec
     gradient                   ...        3 min, 28.399 sec
 * total energy  : -3427.3274290 Eh     change    :  -0.3155924E-02 Eh
   gradient norm :     0.0238522 Eh/a0  converged?    E=F G=F D=F
   time step     :     1.0443120 fs     power     :   0.3472458E-07
   step length   :     0.2323977 a0     speed     :   0.5382905E-02

........................................................................
.............................. CYCLE   41 ..............................
........................................................................

 iter      E             dE          RMSdq      gap      omega  full diag
   1  -3478.5190717 -0.347852E+04  0.770E-03   11.17       0.0  T
   2  -3478.5190726 -0.952050E-06  0.451E-03   11.17       1.0  T
   3  -3478.5190729 -0.304676E-06  0.255E-04   11.17       6.9  T
   4  -3478.5190730 -0.360096E-07  0.149E-04   11.17      11.8  T
     SCC iter.                  ...        3 min, 59.302 sec
     gradient                   ...        3 min, 33.331 sec
 * total energy  : -3427.3310678 Eh     change    :  -0.3638791E-02 Eh
   gradient norm :     0.0217741 Eh/a0  converged?    E=F G=F D=F
   time step     :     1.1487432 fs     power     :   0.3814420E-07
   step length   :     0.2628858 a0     speed     :   0.5535531E-02

........................................................................
.............................. CYCLE   42 ..............................
........................................................................

 iter      E             dE          RMSdq      gap      omega  full diag
   1  -3478.5728120 -0.347857E+04  0.904E-03   11.18       0.0  T
   2  -3478.5728157 -0.372801E-05  0.524E-03   11.18       1.0  T
   3  -3478.5728160 -0.292892E-06  0.394E-04   11.18       4.4  T
   4  -3478.5728160 -0.457835E-07  0.132E-04   11.18      13.3  T
     SCC iter.                  ...        3 min, 58.291 sec
     gradient                   ...        3 min, 27.269 sec
 * total energy  : -3427.3350213 Eh     change    :  -0.3953495E-02 Eh
   gradient norm :     0.0220672 Eh/a0  converged?    E=F G=F D=F
   time step     :     1.2500000 fs     power     :   0.3605315E-07
   step length   :     0.2977216 a0     speed     :   0.5761232E-02
 * RMSD in coord.:     0.0345012 a0     energy gain  -0.4140539E-01 Eh

........................................................................
.............................. CYCLE   43 ..............................
........................................................................

 iter      E             dE          RMSdq      gap      omega  full diag
   1  -3478.5763223 -0.347858E+04  0.149E-03   11.19       0.0  T
   2  -3478.5763224 -0.449068E-07  0.873E-04   11.19       2.0  T
   3  -3478.5763224 -0.116002E-07  0.542E-05   11.19      32.3  T
     SCC iter.                  ...        2 min, 55.340 sec
     gradient                   ...        3 min, 28.180 sec
 * total energy  : -3427.3357786 Eh     change    :  -0.7572918E-03 Eh
   gradient norm :     0.0218627 Eh/a0  converged?    E=F G=F D=F
   time step     :     0.2500000 fs     power     :   0.3946168E-07
   step length   :     0.0576711 a0     speed     :   0.5579990E-02

........................................................................
.............................. CYCLE   44 ..............................
........................................................................

 iter      E             dE          RMSdq      gap      omega  full diag
   1  -3478.5733781 -0.347857E+04  0.144E-03   11.19       0.0  T
   2  -3478.5733783 -0.187455E-06  0.847E-04   11.19       2.1  T
   3  -3478.5733783 -0.126447E-07  0.884E-05   11.19      19.8  T
     SCC iter.                  ...        2 min, 55.594 sec
     gradient                   ...        3 min, 28.408 sec
 * total energy  : -3427.3365837 Eh     change    :  -0.8051001E-03 Eh
   gradient norm :     0.0201951 Eh/a0  converged?    E=F G=F D=F
   time step     :     0.2500000 fs     power     :   0.4176778E-07
   step length   :     0.0563483 a0     speed     :   0.5452003E-02

........................................................................
.............................. CYCLE   45 ..............................
........................................................................

 iter      E             dE          RMSdq      gap      omega  full diag
   1  -3478.5658401 -0.347857E+04  0.157E-03   11.19       0.0  T
   2  -3478.5658406 -0.424347E-06  0.920E-04   11.19       1.9  T
   3  -3478.5658406 -0.152518E-07  0.158E-04   11.19      11.1  T
     SCC iter.                  ...        2 min, 57.965 sec
     gradient                   ...        3 min, 28.271 sec
 * total energy  : -3427.3374017 Eh     change    :  -0.8180290E-03 Eh
   gradient norm :     0.0181348 Eh/a0  converged?    E=F G=F D=F
   time step     :     0.2500000 fs     power     :   0.4192662E-07
   step length   :     0.0556468 a0     speed     :   0.5384125E-02

........................................................................
.............................. CYCLE   46 ..............................
........................................................................

 iter      E             dE          RMSdq      gap      omega  full diag
   1  -3478.5566850 -0.347856E+04  0.169E-03   11.19       0.0  T
   2  -3478.5566856 -0.526483E-06  0.990E-04   11.19       1.8  T
   3  -3478.5566856 -0.170094E-07  0.181E-04   11.19       9.7  T
     SCC iter.                  ...        2 min, 56.180 sec
     gradient                   ...        3 min, 27.553 sec
 * total energy  : -3427.3381997 Eh     change    :  -0.7979625E-03 Eh
   gradient norm :     0.0170788 Eh/a0  converged?    E=F G=F D=F
   time step     :     0.2500000 fs     power     :   0.4057117E-07
   step length   :     0.0554233 a0     speed     :   0.5362504E-02

........................................................................
.............................. CYCLE   47 ..............................
........................................................................

 iter      E             dE          RMSdq      gap      omega  full diag
   1  -3478.5494916 -0.347855E+04  0.172E-03   11.19       0.0  T
   2  -3478.5494920 -0.381173E-06  0.100E-03   11.19       1.7  T
   3  -3478.5494920 -0.159389E-07  0.140E-04   11.20      12.5  T
   4  -3478.5494920 -0.525142E-08  0.356E-05   11.20      49.2  T
     SCC iter.                  ...        3 min, 55.146 sec
     gradient                   ...        3 min, 29.338 sec
 * total energy  : -3427.3389703 Eh     change    :  -0.7706529E-03 Eh
   gradient norm :     0.0172334 Eh/a0  converged?    E=F G=F D=F
   time step     :     0.2500000 fs     power     :   0.3935525E-07
   step length   :     0.0552995 a0     speed     :   0.5350527E-02

........................................................................
.............................. CYCLE   48 ..............................
........................................................................

 iter      E             dE          RMSdq      gap      omega  full diag
   1  -3478.5467462 -0.347855E+04  0.185E-03   11.20       0.0  T
   2  -3478.5467464 -0.185343E-06  0.108E-03   11.20       1.6  T
   3  -3478.5467464 -0.150881E-07  0.847E-05   11.20      20.7  T
   4  -3478.5467464 -0.558384E-08  0.296E-05   11.20      59.2  T
     SCC iter.                  ...        4 min,  0.569 sec
     gradient                   ...        3 min, 28.734 sec
 * total energy  : -3427.3398042 Eh     change    :  -0.8338580E-03 Eh
   gradient norm :     0.0174206 Eh/a0  converged?    E=F G=F D=F
   time step     :     0.2750000 fs     power     :   0.3897895E-07
   step length   :     0.0606039 a0     speed     :   0.5330688E-02

........................................................................
.............................. CYCLE   49 ..............................
........................................................................

 iter      E             dE          RMSdq      gap      omega  full diag
   1  -3478.5508122 -0.347855E+04  0.204E-03   11.20       0.0  T
   2  -3478.5508123 -0.728601E-07  0.119E-03   11.20       1.5  T
   3  -3478.5508123 -0.177383E-07  0.635E-05   11.20      27.6  T
   4  -3478.5508123 -0.509226E-08  0.297E-05   11.20      59.0  T
     SCC iter.                  ...        3 min, 55.332 sec
     gradient                   ...        3 min, 30.063 sec
 * total energy  : -3427.3407176 Eh     change    :  -0.9134342E-03 Eh
   gradient norm :     0.0164474 Eh/a0  converged?    E=F G=F D=F
   time step     :     0.3025000 fs     power     :   0.3883271E-07
   step length   :     0.0664626 a0     speed     :   0.5314553E-02

........................................................................
.............................. CYCLE   50 ..............................
........................................................................

 iter      E             dE          RMSdq      gap      omega  full diag
   1  -3478.5622012 -0.347856E+04  0.232E-03   11.20       0.0  T
   2  -3478.5622015 -0.236735E-06  0.135E-03   11.20       1.3  T
   3  -3478.5622015 -0.241007E-07  0.979E-05   11.20      17.9  T
   4  -3478.5622015 -0.531418E-08  0.370E-05   11.20      47.3  T
     SCC iter.                  ...        3 min, 57.147 sec
     gradient                   ...        3 min, 29.306 sec
 * total energy  : -3427.3416997 Eh     change    :  -0.9820652E-03 Eh
   gradient norm :     0.0144551 Eh/a0  converged?    E=F G=F D=F
   time step     :     0.3327500 fs     power     :   0.3747038E-07
   step length   :     0.0733139 a0     speed     :   0.5329464E-02

........................................................................
.............................. CYCLE   51 ..............................
........................................................................

 iter      E             dE          RMSdq      gap      omega  full diag
   1  -3478.5781552 -0.347858E+04  0.256E-03   11.20       0.0  T
   2  -3478.5781557 -0.493635E-06  0.149E-03   11.20       1.2  T
   3  -3478.5781557 -0.307291E-07  0.151E-04   11.20      11.6  T
   4  -3478.5781557 -0.670343E-08  0.447E-05   11.20      39.2  T
     SCC iter.                  ...        3 min, 58.197 sec
     gradient                   ...        3 min, 29.885 sec
 * total energy  : -3427.3427130 Eh     change    :  -0.1013283E-02 Eh
   gradient norm :     0.0134789 Eh/a0  converged?    E=F G=F D=F
   time step     :     0.3660250 fs     power     :   0.3457722E-07
   step length   :     0.0814902 a0     speed     :   0.5385295E-02

........................................................................
.............................. CYCLE   52 ..............................
........................................................................

 iter      E             dE          RMSdq      gap      omega  full diag
   1  -3478.5913746 -0.347859E+04  0.257E-03   11.21       0.0  T
   2  -3478.5913750 -0.346417E-06  0.150E-03   11.21       1.2  T
   3  -3478.5913750 -0.328487E-07  0.117E-04   11.21      14.9  T
   4  -3478.5913750 -0.618002E-08  0.436E-05   11.21      40.2  T
     SCC iter.                  ...        3 min, 56.577 sec
     gradient                   ...        3 min, 28.799 sec
 * total energy  : -3427.3437474 Eh     change    :  -0.1034425E-02 Eh
   gradient norm :     0.0142254 Eh/a0  converged?    E=F G=F D=F
   time step     :     0.4026275 fs     power     :   0.3218891E-07
   step length   :     0.0904390 a0     speed     :   0.5433348E-02

........................................................................
.............................. CYCLE   53 ..............................
........................................................................

 iter      E             dE          RMSdq      gap      omega  full diag
   1  -3478.5946040 -0.347859E+04  0.250E-03   11.21       0.0  T
   2  -3478.5946041 -0.114493E-06  0.147E-03   11.21       1.2  T
   3  -3478.5946042 -0.342457E-07  0.792E-05   11.21      22.1  T
   4  -3478.5946042 -0.533373E-08  0.422E-05   11.21      41.5  T
     SCC iter.                  ...        3 min, 53.712 sec
     gradient                   ...        3 min, 31.109 sec
 * total energy  : -3427.3448407 Eh     change    :  -0.1093335E-02 Eh
   gradient norm :     0.0139487 Eh/a0  converged?    E=F G=F D=F
   time step     :     0.4428903 fs     power     :   0.3124110E-07
   step length   :     0.0995015 a0     speed     :   0.5434364E-02

........................................................................
.............................. CYCLE   54 ..............................
........................................................................

 iter      E             dE          RMSdq      gap      omega  full diag
   1  -3478.5858079 -0.347859E+04  0.262E-03   11.21       0.0  T
   2  -3478.5858084 -0.517734E-06  0.154E-03   11.21       1.1  T
   3  -3478.5858084 -0.449359E-07  0.140E-04   11.21      12.5  T
   4  -3478.5858084 -0.717182E-08  0.536E-05   11.21      32.7  T
     SCC iter.                  ...        4 min,  2.322 sec
     gradient                   ...        3 min, 30.962 sec
 * total energy  : -3427.3459995 Eh     change    :  -0.1158787E-02 Eh
   gradient norm :     0.0123760 Eh/a0  converged?    E=F G=F D=F
   time step     :     0.4871793 fs     power     :   0.2973056E-07
   step length   :     0.1095786 a0     speed     :   0.5440668E-02

........................................................................
.............................. CYCLE   55 ..............................
........................................................................

 iter      E             dE          RMSdq      gap      omega  full diag
   1  -3478.5721786 -0.347857E+04  0.269E-03   11.21       0.0  T
   2  -3478.5721795 -0.886674E-06  0.158E-03   11.21       1.1  T
   3  -3478.5721795 -0.572459E-07  0.210E-04   11.21       8.4  T
   4  -3478.5721795 -0.102887E-07  0.672E-05   11.21      26.1  T
     SCC iter.                  ...        3 min, 59.606 sec
     gradient                   ...        3 min, 31.851 sec
 * total energy  : -3427.3471887 Eh     change    :  -0.1189226E-02 Eh
   gradient norm :     0.0128824 Eh/a0  converged?    E=F G=F D=F
   time step     :     0.5358972 fs     power     :   0.2746791E-07
   step length   :     0.1213349 a0     speed     :   0.5476704E-02

........................................................................
.............................. CYCLE   56 ..............................
........................................................................

 iter      E             dE          RMSdq      gap      omega  full diag
   1  -3478.5688896 -0.347857E+04  0.258E-03   11.22       0.0  T
   2  -3478.5688899 -0.307319E-06  0.152E-03   11.22       1.2  T
   3  -3478.5688900 -0.538998E-07  0.126E-04   11.22      13.9  T
   4  -3478.5688900 -0.958244E-08  0.653E-05   11.22      26.8  T
     SCC iter.                  ...        3 min, 56.817 sec
     gradient                   ...        3 min, 29.988 sec
 * total energy  : -3427.3484481 Eh     change    :  -0.1259361E-02 Eh
   gradient norm :     0.0133346 Eh/a0  converged?    E=F G=F D=F
   time step     :     0.5894869 fs     power     :   0.2697016E-07
   step length   :     0.1333800 a0     speed     :   0.5473077E-02

........................................................................
.............................. CYCLE   57 ..............................
........................................................................

 iter      E             dE          RMSdq      gap      omega  full diag
   1  -3478.5835919 -0.347858E+04  0.295E-03   11.22       0.0  T
   2  -3478.5835923 -0.420960E-06  0.171E-03   11.22       1.0  T
   3  -3478.5835923 -0.452987E-07  0.161E-04   11.22      10.9  T
   4  -3478.5835923 -0.129421E-07  0.601E-05   11.22      29.1  T
     SCC iter.                  ...        3 min, 57.613 sec
     gradient                   ...        3 min, 30.188 sec
 * total energy  : -3427.3498163 Eh     change    :  -0.1368160E-02 Eh
   gradient norm :     0.0118338 Eh/a0  converged?    E=F G=F D=F
   time step     :     0.6484356 fs     power     :   0.2639480E-07
   step length   :     0.1465355 a0     speed     :   0.5466270E-02

........................................................................
.............................. CYCLE   58 ..............................
........................................................................

 iter      E             dE          RMSdq      gap      omega  full diag
   1  -3478.6074192 -0.347861E+04  0.331E-03   11.23       0.0  T
   2  -3478.6074199 -0.647487E-06  0.192E-03   11.23       1.0  T
   3  -3478.6074199 -0.465971E-07  0.193E-04   11.23       9.1  T
   4  -3478.6074199 -0.125983E-07  0.607E-05   11.23      28.9  T
     SCC iter.                  ...        3 min, 53.850 sec
     gradient                   ...        3 min, 28.229 sec
 * total energy  : -3427.3512541 Eh     change    :  -0.1437846E-02 Eh
   gradient norm :     0.0126096 Eh/a0  converged?    E=F G=F D=F
   time step     :     0.7132792 fs     power     :   0.2503746E-07
   step length   :     0.1622172 a0     speed     :   0.5501138E-02

........................................................................
.............................. CYCLE   59 ..............................
........................................................................

 iter      E             dE          RMSdq      gap      omega  full diag
   1  -3478.6199189 -0.347862E+04  0.324E-03   11.23       0.0  T
   2  -3478.6199191 -0.287363E-06  0.192E-03   11.23       1.0  T
   3  -3478.6199192 -0.595396E-07  0.127E-04   11.23      13.8  T
   4  -3478.6199192 -0.107320E-07  0.718E-05   11.23      24.4  T
     SCC iter.                  ...        3 min, 55.556 sec
     gradient                   ...        3 min, 29.140 sec
 * total energy  : -3427.3528170 Eh     change    :  -0.1562859E-02 Eh
   gradient norm :     0.0116833 Eh/a0  converged?    E=F G=F D=F
   time step     :     0.7846071 fs     power     :   0.2511219E-07
   step length   :     0.1786235 a0     speed     :   0.5506826E-02

........................................................................
.............................. CYCLE   60 ..............................
........................................................................

 iter      E             dE          RMSdq      gap      omega  full diag
   1  -3478.6212120 -0.347862E+04  0.353E-03   11.24       0.0  T
   2  -3478.6212134 -0.139199E-05  0.214E-03   11.24       1.0  T
   3  -3478.6212135 -0.743435E-07  0.238E-04   11.24       7.4  T
   4  -3478.6212135 -0.190016E-07  0.841E-05   11.24      20.8  T
     SCC iter.                  ...        3 min, 59.135 sec
     gradient                   ...        3 min, 30.233 sec
 * total energy  : -3427.3544747 Eh     change    :  -0.1657713E-02 Eh
   gradient norm :     0.0111949 Eh/a0  converged?    E=F G=F D=F
   time step     :     0.8630678 fs     power     :   0.2349431E-07
   step length   :     0.1980838 a0     speed     :   0.5551612E-02

........................................................................
.............................. CYCLE   61 ..............................
........................................................................

 iter      E             dE          RMSdq      gap      omega  full diag
   1  -3478.6432041 -0.347864E+04  0.422E-03   11.25       0.0  T
   2  -3478.6432043 -0.290023E-06  0.250E-03   11.25       1.0  T
   3  -3478.6432044 -0.667769E-07  0.129E-04   11.25      13.6  T
   4  -3478.6432044 -0.106679E-07  0.674E-05   11.25      26.0  T
     SCC iter.                  ...        4 min,  2.697 sec
     gradient                   ...        3 min, 28.258 sec
 * total energy  : -3427.3562124 Eh     change    :  -0.1737744E-02 Eh
   gradient norm :     0.0102399 Eh/a0  converged?    E=F G=F D=F
   time step     :     0.9493746 fs     power     :   0.2267393E-07
   step length   :     0.2194463 a0     speed     :   0.5591209E-02

........................................................................
.............................. CYCLE   62 ..............................
........................................................................

 iter      E             dE          RMSdq      gap      omega  full diag
   1  -3478.6884784 -0.347869E+04  0.564E-03   11.26       0.0  T
   2  -3478.6884797 -0.130423E-05  0.326E-03   11.26       1.0  T
   3  -3478.6884797 -0.924733E-07  0.254E-04   11.26       6.9  T
   4  -3478.6884798 -0.167520E-07  0.773E-05   11.26      22.7  T
     SCC iter.                  ...        4 min,  1.304 sec
     gradient                   ...        3 min, 28.101 sec
 * total energy  : -3427.3579689 Eh     change    :  -0.1756446E-02 Eh
   gradient norm :     0.0103452 Eh/a0  converged?    E=F G=F D=F
   time step     :     1.0443120 fs     power     :   0.1984515E-07
   step length   :     0.2440895 a0     speed     :   0.5653716E-02

........................................................................
.............................. CYCLE   63 ..............................
........................................................................

 iter      E             dE          RMSdq      gap      omega  full diag
   1  -3478.6984690 -0.347870E+04  0.519E-03   11.27       0.0  T
   2  -3478.6984703 -0.124858E-05  0.309E-03   11.27       1.0  T
   3  -3478.6984703 -0.722303E-07  0.201E-04   11.27       8.7  T
   4  -3478.6984704 -0.317714E-07  0.733E-05   11.27      23.9  T
     SCC iter.                  ...        3 min, 51.173 sec
     gradient                   ...        3 min, 29.892 sec
 * total energy  : -3427.3597177 Eh     change    :  -0.1748878E-02 Eh
   gradient norm :     0.0085439 Eh/a0  converged?    E=F G=F D=F
   time step     :     1.1487432 fs     power     :   0.1797321E-07
   step length   :     0.2690874 a0     speed     :   0.5666116E-02

........................................................................
.............................. CYCLE   64 ..............................
........................................................................

 iter      E             dE          RMSdq      gap      omega  full diag
   1  -3478.7024457 -0.347870E+04  0.536E-03   11.28       0.0  T
   2  -3478.7024468 -0.110650E-05  0.319E-03   11.28       1.0  T
   3  -3478.7024469 -0.793998E-07  0.186E-04   11.28       9.4  T
   4  -3478.7024469 -0.273621E-07  0.772E-05   11.28      22.7  T
     SCC iter.                  ...        3 min, 52.275 sec
     gradient                   ...        3 min, 28.099 sec
 * total energy  : -3427.3613874 Eh     change    :  -0.1669639E-02 Eh
   gradient norm :     0.0097688 Eh/a0  converged?    E=F G=F D=F
   time step     :     1.2500000 fs     power     :   0.1560794E-07
   step length   :     0.2945120 a0     speed     :   0.5699123E-02

........................................................................
.............................. CYCLE   65 ..............................
........................................................................

 iter      E             dE          RMSdq      gap      omega  full diag
   1  -3478.7420131 -0.347874E+04  0.597E-03   11.29       0.0  T
   2  -3478.7420149 -0.176351E-05  0.346E-03   11.29       1.0  T
   3  -3478.7420149 -0.727691E-07  0.294E-04   11.29       6.0  T
   4  -3478.7420150 -0.312380E-07  0.749E-05   11.29      23.4  T
     SCC iter.                  ...        4 min,  6.416 sec
     gradient                   ...        3 min, 29.615 sec
 * total energy  : -3427.3628934 Eh     change    :  -0.1506061E-02 Eh
   gradient norm :     0.0102008 Eh/a0  converged?    E=F G=F D=F
   time step     :     1.2500000 fs     power     :   0.1362612E-07
   step length   :     0.2916335 a0     speed     :   0.5643422E-02

........................................................................
.............................. CYCLE   66 ..............................
........................................................................

 iter      E             dE          RMSdq      gap      omega  full diag
   1  -3478.7381237 -0.347874E+04  0.451E-03   11.30       0.0  T
   2  -3478.7381253 -0.159468E-05  0.270E-03   11.30       1.0  T
   3  -3478.7381254 -0.843816E-07  0.237E-04   11.30       7.4  T
   4  -3478.7381254 -0.218201E-07  0.871E-05   11.30      20.1  T
     SCC iter.                  ...        3 min, 54.437 sec
     gradient                   ...        3 min, 29.290 sec
 * total energy  : -3427.3643015 Eh     change    :  -0.1408030E-02 Eh
[...]
  3011   6 C     3012   6 C                                       1.5272052
  3012   6 C     3013   6 C                                       1.5268544
  3013   6 C     3014   6 C                                       1.5268745
  3014   6 C     3015   6 C                                       1.5265889
  3015   6 C     3016   6 C                                       1.5221208
  3015   6 C     3017   1 H                                       1.0933379
  3015   6 C     3018   1 H                                       1.0914366
  3014   6 C     3019   1 H                                       1.0929128
  3014   6 C     3020   1 H                                       1.0933525
  3013   6 C     3021   1 H                                       1.0929635
  3013   6 C     3022   1 H                                       1.0920872
  3012   6 C     3023   1 H                                       1.0916894
  3012   6 C     3024   1 H                                       1.0934753
  3011   6 C     3025   1 H                                       1.0929651
  3011   6 C     3026   1 H                                       1.0931634
  3010   6 C     3027   1 H                                       1.0917838
  3010   6 C     3028   1 H                                       1.0932248
  3009   6 C     3029   1 H                                       1.0928104
  3009   6 C     3030   1 H                                       1.0931381
  3008   6 C     3031   1 H                                       1.0931553
  3008   6 C     3032   1 H                                       1.0933529
  3007   6 C     3033   1 H                                       1.0930951
  3007   6 C     3034   1 H                                       1.0911854
  3006   6 C     3035   1 H                                       1.0918792
  3006   6 C     3036   1 H                                       1.0938357
  3005   6 C     3037   1 H                                       1.0935743
  3005   6 C     3038   1 H                                       1.0932635
  3004   6 C     3039   1 H                                       1.0938793
  3004   6 C     3040   1 H                                       1.0911902
  3003   6 C     3041   1 H                                       1.0899668
  3003   6 C     3042   1 H                                       1.0932976
  3002   6 C     3043   1 H                                       1.0936068
  3002   6 C     3044   1 H                                       1.0919712
  3001   6 C     3045   1 H                                       1.0928761
  3001   6 C     3046   1 H                                       1.0937051
  3000   6 C     3047   1 H                                       1.0925236
  3000   6 C     3048   1 H                                       1.0915876
  2999   6 C     3049   1 H                                       1.0929858
  2999   6 C     3050   1 H                                       1.0936134
  2998   6 C     3051   1 H                                       1.0918452
  2998   6 C     3052   1 H                                       1.0926269
  2997   6 C     3053   1 H                                       1.0930644
  2997   6 C     3054   1 H                                       1.0935794
  2996   6 C     3055   1 H                                       1.0922576
  2996   6 C     3056   1 H                                       1.0915081
  2995   6 C     3057   1 H                                       1.0928385
  2995   6 C     3058   1 H                                       1.0936533
  2994   6 C     3059   1 H                                       1.0935963
  2994   6 C     3060   1 H                                       1.0922373
  2993   6 C     3061   1 H                                       1.0905530
  2993   6 C     3062   1 H                                       1.0925941
  2992   6 C     3063   1 H                                       1.0928983
  2992   6 C     3064   1 H                                       1.0922620
  2991   6 C     3065   1 H                                       1.0925356
  2991   6 C     3066   1 H                                       1.0925751
  2990   6 C     3067   1 H                                       1.0927977
  2990   6 C     3068   1 H                                       1.0932596
  2989   6 C     3069   1 H                                       1.0921130
  2989   6 C     3070   1 H                                       1.0925341
  2988   6 C     3071   1 H                                       1.0920165
  2988   6 C     3072   1 H                                       1.0918161
  2987   6 C     3073   1 H                                       1.0923081
  2987   6 C     3074   1 H                                       1.0921232
  2986   6 C     3075   1 H                                       1.0925961
  2986   6 C     3076   1 H                                       1.0929135
  2985   6 C     3077   1 H                                       1.0930343
  2985   6 C     3078   1 H                                       1.0894542
  2984   6 C     3079   1 H                                       1.0928844
  2984   6 C     3080   1 H                                       1.0923269
  2983   6 C     3081   1 H                                       1.0935261
  2983   6 C     3082   1 H                                       1.0929944
  2982   6 C     3083   1 H                                       1.0906935
  2982   6 C     3084   1 H                                       1.0923928
  2981   6 C     3085   1 H                                       1.0928904
  2981   6 C     3086   1 H                                       1.0934484
  2980   6 C     3087   1 H                                       1.0918701
  2980   6 C     3088   1 H                                       1.0928591
  2979   6 C     3089   1 H                                       1.0933278
  2979   6 C     3090   1 H                                       1.0933806
  2978   6 C     3091   1 H                                       1.0922210
  2978   6 C     3092   1 H                                       1.0929251
  2977   6 C     3093   1 H                                       1.0933220
  2977   6 C     3094   1 H                                       1.0908113
  2976   6 C     3095   1 H                                       1.0915990
  2976   6 C     3096   1 H                                       1.0934684
  2975   6 C     3097   1 H                                       1.0934114
  2975   6 C     3098   1 H                                       1.0931950
  2974   6 C     3099   1 H                                       1.0915143
  2974   6 C     3100   1 H                                       1.0924664
  2973   6 C     3101   1 H                                       1.0939002
  2973   6 C     3102   1 H                                       1.0934390
  2972   6 C     3103   1 H                                       1.0918025
  2972   6 C     3104   1 H                                       1.0925504
  2971   6 C     3105   1 H                                       1.0936359
  2971   6 C     3106   1 H                                       1.0926452
  2970   6 C     3107   1 H                                       1.0916485
  2970   6 C     3108   1 H                                       1.0923819
  2969   6 C     3109   1 H                                       1.0936719
  2969   6 C     3110   1 H                                       1.0927016
  2968   6 C     3111   1 H                                       1.0922263
  2968   6 C     3112   1 H                                       1.0915927
  2967   6 C     3113   1 H                                       1.0937386
  2967   6 C     3114   1 H                                       1.0934469
  2966   6 C     3115   1 H                                       1.0936151
  2966   6 C     3116   1 H                                       1.0901257
  2965   6 C     3117   1 H                                       1.0916206
  2965   6 C     3118   1 H                                       1.0939002
  2964   6 C     3119   1 H                                       1.0942442
  2964   6 C     3120   1 H                                       1.0924614
  2963   6 C     3121   1 H                                       1.0897829
  2963   6 C     3122   1 H                                       1.0923002
  2962   6 C     3123   1 H                                       1.0921849
  2962   6 C     3124   1 H                                       1.0931811
  2961   6 C     3125   1 H                                       1.0932971
  2961   6 C     3126   1 H                                       1.0914727
  2960   6 C     3127   1 H                                       1.0909779
  2960   6 C     3128   1 H                                       1.0926252
  2959   6 C     3129   1 H                                       1.0939845
  2959   6 C     3130   1 H                                       1.0927848
  2958   6 C     3131   1 H                                       1.0917929
  2958   6 C     3132   1 H                                       1.0935161
  2957   6 C     3133   1 H                                       1.0931486
  2957   6 C     3134   1 H                                       1.0908218
  2956   6 C     3135   1 H                                       1.0933915
  2956   6 C     3136   1 H                                       1.0933435
  2955   6 C     3137   1 H                                       1.0914209
  2955   6 C     3138   1 H                                       1.0918034
  2954   6 C     3139   1 H                                       1.0935827
  2954   6 C     3140   1 H                                       1.0919582
  2953   6 C     3141   1 H                                       1.0910435
  2953   6 C     3142   1 H                                       1.0939789
  2952   6 C     3143   1 H                                       1.0935409
  2952   6 C     3144   1 H                                       1.0935579
  2951   6 C     3145   1 H                                       1.0938590
  2951   6 C     3146   1 H                                       1.0913751
  2950   6 C     3147   1 H                                       1.0917054
  2950   6 C     3148   1 H                                       1.0931485
  2949   6 C     3149   1 H                                       1.0934754
  2949   6 C     3150   1 H                                       1.0928729
  2948   6 C     3151   1 H                                       1.0924936
  2948   6 C     3152   1 H                                       1.0927454
  2947   6 C     3153   1 H                                       1.0931686
  2947   6 C     3154   1 H                                       1.0933126
  2946   6 C     3155   1 H                                       1.0920729
  2946   6 C     3156   1 H                                       1.0920198
  2945   6 C     3157   1 H                                       1.0930124
  2945   6 C     3158   1 H                                       1.0939033
  2944   6 C     3159   1 H                                       1.0930956
  2944   6 C     3160   1 H                                       1.0916030
  2943   6 C     3161   1 H                                       1.0927292
  2943   6 C     3162   1 H                                       1.0938978
  2942   6 C     3163   1 H                                       1.0937090
  2942   6 C     3164   1 H                                       1.0928978
  2941   6 C     3165   1 H                                       1.0912732
  2941   6 C     3166   1 H                                       1.0929050
  2940   6 C     3167   1 H                                       1.0934010
  2940   6 C     3168   1 H                                       1.0927428
  2939   6 C     3169   1 H                                       1.0926468
  2939   6 C     3170   1 H                                       1.0928567
  2938   6 C     3171   1 H                                       1.0923041
  2938   6 C     3172   1 H                                       1.0925595
  2937   6 C     3173   1 H                                       1.0921386
  2937   6 C     3174   1 H                                       1.0930175
  2936   6 C     3175   1 H                                       1.0921864
  2936   6 C     3176   1 H                                       1.0926631
  2935   6 C     3177   1 H                                       1.0933952
  2935   6 C     3178   1 H                                       1.0921372
  2934   6 C     3179   1 H                                       1.0932411
  2934   6 C     3180   1 H                                       1.0930145
  2933   6 C     3181   1 H                                       1.0937118
  2933   6 C     3182   1 H                                       1.0934197
  2932   6 C     3183   1 H                                       1.0911136
  2932   6 C     3184   1 H                                       1.0931655
  2931   6 C     3185   1 H                                       1.0941437
  2931   6 C     3186   1 H                                       1.0930425
  2930   6 C     3187   1 H                                       1.0928928
  2930   6 C     3188   1 H                                       1.0938181
  2929   6 C     3189   1 H                                       1.0902886
  2929   6 C     3190   1 H                                       1.0909297
  2928   6 C     3191   1 H                                       1.0938249
  2928   6 C     3192   1 H                                       1.0932754
  2927   6 C     3193   1 H                                       1.0923971
  2927   6 C     3194   1 H                                       1.0934582
  2926   6 C     3195   1 H                                       1.0932878
  2926   6 C     3196   1 H                                       1.0898075
  2925   6 C     3197   1 H                                       1.0922646
  2925   6 C     3198   1 H                                       1.0931266
  2924   6 C     3199   1 H                                       1.0937892
  2924   6 C     3200   1 H                                       1.0935964
  2923   6 C     3201   1 H                                       1.0915292
  2923   6 C     3202   1 H                                       1.0904727
  2922   6 C     3203   1 H                                       1.0904391
  2922   6 C     3204   1 H                                       1.0941744
  2921   6 C     3205   1 H                                       1.0937729
  2921   6 C     3206   1 H                                       1.0941362
  2920   6 C     3207   1 H                                       1.0923411
  2920   6 C     3208   1 H                                       1.0914813
  2919   6 C     3209   1 H                                       1.0921728
  2919   6 C     3210   1 H                                       1.0942433
  2918   6 C     3211   1 H                                       1.0924228
  2918   6 C     3212   1 H                                       1.0936203
  2917   6 C     3213   1 H                                       1.0939634
  2917   6 C     3214   1 H                                       1.0920444
  2916   6 C     3215   1 H                                       1.0912524
  2916   6 C     3216   1 H                                       1.0930686
  2915   6 C     3217   1 H                                       1.0932263
  2915   6 C     3218   1 H                                       1.0931756
  2914   6 C     3219   1 H                                       1.0936201
  2914   6 C     3220   1 H                                       1.0944533
  2913   6 C     3221   1 H                                       1.0934626
  2913   6 C     3222   1 H                                       1.0907905
  2912   6 C     3223   1 H                                       1.0919829
  2912   6 C     3224   1 H                                       1.0923350
  2911   6 C     3225   1 H                                       1.0934916
  2911   6 C     3226   1 H                                       1.0941411
  2910   6 C     3227   1 H                                       1.0936922
  2910   6 C     3228   1 H                                       1.0919284
  2909   6 C     3229   1 H                                       1.0906976
  2909   6 C     3230   1 H                                       1.0933219
  2908   6 C     3231   1 H                                       1.0929491
  2908   6 C     3232   1 H                                       1.0924666
  2907   6 C     3233   1 H                                       1.0931231
  2907   6 C     3234   1 H                                       1.0926180
  2906   6 C     3235   1 H                                       1.0930616
  2906   6 C     3236   1 H                                       1.0914784
  2905   6 C     3237   1 H                                       1.0947149
  2905   6 C     3238   1 H                                       1.0919910
  2904   6 C     3239   1 H                                       1.0917580
  2904   6 C     3240   1 H                                       1.0923240
  2903   6 C     3241   1 H                                       1.0940931
  2903   6 C     3242   1 H                                       1.0921543
  2902   6 C     3243   1 H                                       1.0920396
  2902   6 C     3244   1 H                                       1.0922656
  2901   6 C     3245   1 H                                       1.0938794
  2901   6 C     3246   1 H                                       1.0923586
  2900   6 C     3247   1 H                                       1.0926840
  2900   6 C     3248   1 H                                       1.0939740
  2899   6 C     3249   1 H                                       1.0931596
  2899   6 C     3250   1 H                                       1.0916763
  2898   6 C     3251   1 H                                       1.0925100
  2898   6 C     3252   1 H                                       1.0929600
  2897   6 C     3253   1 H                                       1.0878110
  2897   6 C     3254   1 H                                       1.0885664
  2897   6 C     3255   1 H                                       1.0873341
  3016   6 C     3256   1 H                                       1.0880929
  3016   6 C     3257   1 H                                       1.0881620
  3016   6 C     3258   1 H                                       1.0874671

 * 2 distinct bonds (by element types)

   Z      Z             #   av. dist./Å        max./Å        min./Å
   1 H    6 C        2178     1.0925397     1.0949750     1.0867170
   6 C    6 C        1071     1.5274693     1.5374012     1.5216800


optimized geometry written to: xtbopt.xyz


           -------------------------------------------------
          | TOTAL ENERGY            -3427.435590841068 Eh   |
          | GRADIENT NORM               0.000669520802 Eh/α |
          | HOMO-LUMO GAP              11.467044774437 eV   |
           -------------------------------------------------

------------------------------------------------------------------------
 * finished run on 2024/06/20 at 21:35:49.707     
------------------------------------------------------------------------
 total:
 * wall-time:     3 d,  6 h, 18 min, 13.573 sec
 *  cpu-time:    18 d,  0 h, 41 min, 37.936 sec
 * ratio c/w:     5.526 speedup
 SCF:
 * wall-time:     0 d,  0 h,  6 min, 53.726 sec
 *  cpu-time:     0 d,  0 h, 37 min, 58.224 sec
 * ratio c/w:     5.507 speedup
 ANC optimizer:
 * wall-time:     3 d,  6 h, 10 min, 37.833 sec
 *  cpu-time:    18 d,  0 h,  2 min, 42.084 sec
 * ratio c/w:     5.526 speedup

