3536
 energy: -3716.252756717843 gnorm: 0.000719340124 xtb: 6.6.1 (8d0f1dd)
C           58.88263255417713       36.91984591945753       49.97739127945952
C           58.95614983783568       38.27936049908401       49.28240757922663
C           60.14128147692901       39.07071604418250       49.82868855115650
C           57.62553880984535       39.01759416998809       49.47426681790807
C           57.53127249579074       40.43596672001069       48.89202935617336
C           56.15350857976666       41.00426790728859       49.22531515760103
C           57.78287595407706       40.42332503767323       47.38027306083868
C           57.70502862729793       41.76937229708363       46.64201885962670
C           57.92965035851137       41.49558401970718       45.15312868092897
C           58.73746021700963       42.76470028736275       47.18475760645074
C           58.68735867639926       44.16626292421771       46.54539148830901
C           60.06821676242884       44.56095526517291       46.02093311286417
C           58.20108013567918       45.24075711669069       47.52528146281817
C           56.72413104966191       45.16534551697767       47.93208630415744
C           55.81401539180284       45.43407129853782       46.73611556753790
C           56.46958910209065       46.18718009982535       49.05033679964439
C           55.10846225707466       46.08386493223452       49.75416427113880
C           54.82423727320009       47.38574293269492       50.50246323211704
C           55.08183256576483       44.89115781822331       50.71646723084253
C           53.68815268232586       44.40865714330884       51.14492192005822
C           53.84391975453393       43.42759973531579       52.30434202269063
C           52.95674762221101       43.77054348019711       49.95656050514620
C           51.63916144950484       43.03757294149283       50.24927163550364
C           51.13936927418935       42.41947966450597       48.94230479436544
C           50.58293176741395       43.97351864875522       50.84765083967698
C           49.32213634485620       43.27755759274906       51.38753631391266
C           48.19848294510066       44.30049999264130       51.53448400494806
C           49.61332702051260       42.59077925128683       52.72762767842380
C           48.46212727714109       41.77278557043130       53.33563239177946
C           48.83126884001479       41.39143744360164       54.76701520948836
C           48.17133457296362       40.53136631473763       52.48445705041538
C           46.97192756689883       39.65781721330049       52.89259138441823
C           46.92640117183364       38.46356361578211       51.93705755259530
C           45.66827867209349       40.46613353456754       52.84297048213477
C           44.37173093220535       39.73438846940207       53.23868417254003
C           43.23300627445440       40.19881025121222       52.32583466928642
C           43.95075809392078       39.98071956485387       54.69615756343055
C           44.84310782561190       39.37213252286342       55.78233772437909
C           44.87465273120036       37.84642680065765       55.68511983602629
C           44.34670466939384       39.76070153982096       57.18536693646862
C           44.51855015293636       41.22670248639727       57.60056277620573
C           45.98210372359817       41.65728707716408       57.53748787888097
C           44.01923718805025       41.46025060213490       59.03625311656559
C           42.50677452398709       41.38275784015671       59.27171545230740
C           41.76891307293127       42.47087223200992       58.49185903140355
C           42.20818413200836       41.54023219408268       60.77348406238911
C           42.34861356376414       40.26243310798741       61.61496386262389
C           41.16812485752373       39.33060263435964       61.34987470771132
C           42.44883590790519       40.65124966479798       63.09904152075107
C           42.55250179017875       39.47119442735580       64.08433960921400
C           41.22750489017326       39.26325060290178       64.82036212875940
C           43.66946610147826       39.67384042215261       65.12051096652620
C           45.09472886525813       39.57394098342851       64.56694387972908
C           45.35229703331583       38.18987114930829       63.97019815358143
C           46.15075504443576       39.81934560693250       65.65547271506060
C           46.09459269655415       41.15879329282271       66.39926452381387
C           46.03816792706397       42.34154787737688       65.43398374147426
C           47.33188317333037       41.33330222049341       67.29393993025113
C           47.59374444889520       40.23711733149523       68.33438771372235
C           46.40084930019964       40.06322157208491       69.27138150942260
C           48.85802017121732       40.59536107700585       69.12988104192934
C           49.50515218092897       39.41057244997192       69.85895388198834
C           50.54299557436748       39.93233570698897       70.85314332346667
C           50.13950691130032       38.41637881271897       68.86631312969128
C           49.56542432698909       36.99716854611564       68.94570338542145
C           50.01217272665641       36.30908104194280       70.23539421555984
C           50.00763947502606       36.15457359346524       67.73999619892071
C           49.32780040988497       36.48874005326747       66.40492271214599
C           47.83390299737987       36.17429284015251       66.45370058865515
C           49.99588570457924       35.69341709180583       65.27226355917844
C           49.77355223022297       36.27800036838036       63.86758202051980
C           49.97368881392743       35.18656606955062       62.81765987166027
C           50.72690567602368       37.45719388662690       63.63618249512643
C           50.47862820843722       38.31181898614010       62.38421431028711
C           51.63319470873412       39.30078114016139       62.22719475372354
C           49.12815789789406       39.02877584915264       62.47937242131495
C           48.78897071159222       39.98492671985051       61.33184168125540
C           47.48483937181320       40.72201160424125       61.64573634307575
C           48.79444990598848       39.32995848512658       59.93948499539258
C           48.13924412640640       37.95554271131339       59.72211353842555
C           48.36724483467437       37.57924250494982       58.25583698502523
C           46.64901694309410       37.94326580157908       60.07624834158207
C           45.87140860961120       36.66360986798841       59.72973104736160
C           44.39879346177085       36.87009130676637       60.08894253686876
C           46.46043109466513       35.45593855696886       60.46796256143955
C           45.72574324309608       34.12302137302292       60.27463329173148
C           46.42777087284478       33.03968561635642       61.09512790686397
C           45.57753608269626       33.70264853829106       58.80488210500800
C           46.88564871230555       33.46316815949843       58.05435178178801
C           46.62800071007823       33.14424037383117       56.58593037491782
H           58.03343159365582       36.34450438207804       49.61512343669852
H           59.78815164545355       36.34452555592620       49.79390237202798
H           58.77238003618799       37.05216954285287       51.05181991846539
H           46.11344159598281       33.97062734900801       56.09936823367193
H           47.56343664883777       32.96704280946295       56.05918039616392
H           46.00911164083954       32.25436717098515       56.49075713207100
H           44.98722161537263       32.78208296071266       58.77255853839899
H           45.00492346566116       34.46600975478907       58.27356949977269
H           47.49832911597574       35.32099939002102       60.16169526397173
H           46.46762669158917       35.67935096916885       61.53891579575518
H           45.93299724290510       36.49184015816412       58.65175019914800
H           44.27125491353414       36.90691227186229       61.16917592297330
H           44.02815865483588       37.80303283138628       59.66943841784986
H           43.78061636181324       36.06433623530299       59.70176558962166
H           46.54163736097723       38.10267057380648       61.14864598889460
H           46.17273660526806       38.78447561316312       59.56730170665396
H           48.33957978048146       40.03638417622328       59.24027162042141
H           49.83984562323203       39.22029822180756       59.63746267339527
H           44.71123170157010       34.22751462854236       60.67613988174539
H           47.47297395186400       32.95151737095723       60.80895025968567
H           46.38757754674479       33.28425474265292       62.15469586136197
H           45.94670214978084       32.07481600324400       60.94954439496139
H           48.65260317413997       37.22241719972865       60.35059634751567
H           47.78603188450286       38.22783025635739       57.60312803409120
H           49.41831105173405       37.69277332827376       57.99614871044795
H           48.08463089036593       36.54909688749658       58.05564913694537
H           49.56846126306721       40.75584883176342       61.29654787509464
H           47.61785699594250       41.34651381572372       62.52740638981810
H           47.19480559724056       41.36621071081407       60.81905334820845
H           46.66745478017216       40.03799512248541       61.84520063330103
H           48.33942490883400       38.27897877260402       62.54519767099146
H           49.11110847950615       39.60286312284175       63.41149621995219
H           50.47737356461371       37.66139220228730       61.50725954326430
H           51.59271581457489       39.80269638574458       61.26502873105613
H           51.59971965798269       40.05462711726682       63.01107761597701
H           52.58732867803464       38.78127762250627       62.29329555045030
H           50.68849055757914       38.11563143574362       64.50723544880196
H           51.74224353672504       37.05781303164053       63.57827118862350
H           48.73944998207117       36.62670380179670       63.80035341833664
H           49.28098242286153       34.36392177674901       62.98471337810552
H           49.80201764053305       35.56988383309350       61.81612765809822
H           50.98798293442099       34.79411502601796       62.86467031786125
H           51.07223224446166       35.63540496949972       65.45368325060927
H           49.61197705634039       34.67058300931672       65.30256242005436
H           49.45023936798999       37.55665000148715       66.20059043217691
H           47.31530165480539       36.82362923263564       67.15430695475750
H           47.38096949361503       36.31315917336758       65.47577531142433
H           47.67367704433280       35.14227757295532       66.76122732610482
H           51.08894945613250       36.27120968461857       67.62643867546868
H           49.81713286577251       35.10056238651963       67.96001414210949
H           48.47308419399727       37.05940496102400       68.95725433755976
H           49.72718520530317       36.89308141507873       71.10703184118677
H           49.55618495358390       35.32491456536950       70.32404119721626
H           51.09373115189150       36.18681214880775       70.24349371532045
H           50.00244814378025       38.79183192181192       67.85265407239343
H           51.21577862481605       38.35970414918940       69.04365960836829
H           48.72828925568289       38.89358891288429       70.43078019786577
H           51.30117938474349       40.51794351520721       70.33716350280193
H           50.07383169398214       40.56910229452407       71.60089800293478
H           51.03516769554870       39.10942858986130       71.36611500174293
H           49.60251680523287       41.02280389394431       68.45314141318654
H           48.60236517956884       41.36946292611613       69.85796821742066
H           47.77184958976870       39.29251062369013       67.81381255142530
H           46.13810839163463       41.01425645480935       69.73103981427438
H           45.53251166502843       39.68972026374517       68.73455831802573
H           46.63221549572260       39.35516033053935       70.06374880257334
H           48.20848168152070       41.40472631752608       66.64332612474934
H           47.24203295748628       42.28761970702080       67.82093097010190
H           45.20063565473445       41.18649327960415       67.02932739890780
H           45.11383989081282       42.34118473031372       64.86257652149581
H           46.09382462396643       43.28044420533264       65.98163195428593
H           46.87732465619653       42.30112792689361       64.74289814153612
H           46.06538758790116       39.01204730472818       66.38548241495890
H           47.13513331115676       39.73499098071960       65.18705897197593
H           45.22625531482043       40.31493018725008       63.77418385507649
H           44.77602949030312       38.03797791150858       63.06162814758051
H           46.40594013340100       38.07985127477784       63.72351572105116
H           45.08555485723945       37.41047004611301       64.68204055288804
H           43.52539790488028       40.64972076710500       65.58820656871926
H           43.55586292157371       38.91812499285575       65.90318317276436
H           42.76754379756020       38.55822800126791       63.52442872268615
H           41.00617674941869       40.12212413190677       65.45188028056609
H           40.40847221758447       39.13470049196989       64.11789603924841
H           41.27367526580220       38.37911848743322       65.45379039468855
H           43.32453805253476       41.29331688256149       63.21126521132737
H           41.57619720345079       41.25621610518772       63.35762085685301
H           43.27156619062809       39.74413078848185       61.33325322979451
H           40.23814504662523       39.79953762153471       61.66630642926856
H           41.08848852958741       39.10397027062466       60.28929633109233
H           41.27883017654119       38.38881713497818       61.88038913370730
H           42.87443862558524       42.30862501234816       61.17391239713556
H           41.18597407245347       41.90683586890385       60.89697454339301
H           42.13626486101506       40.41040386912126       58.93448468169134
H           40.69979008790678       42.42265068009134       58.68864595895547
H           42.12663443972470       43.45566171465916       58.78585898948897
H           41.91381114386559       42.35652726980455       57.42089470387828
H           44.51406163636592       40.74117401488972       59.69356502580168
H           44.34585266192521       42.45671908753069       59.34716547152133
H           43.94787482910714       41.86408074487366       56.92043957569635
H           46.59772319068745       41.01028999403797       58.15840620802526
H           46.36366231729271       41.62534477507203       56.52210266048147
H           46.08590072637057       42.67740241469613       57.89947171419024
H           43.28944533890151       39.49265018939122       57.25503459520510
H           44.88619984818971       39.14528433244320       57.90840536367227
H           45.86373853049656       39.73830646257194       55.65375480573270
H           45.47466599734711       37.42783058091210       56.49045198811345
H           43.86839829849336       37.43793959378409       55.76204149452728
H           45.30818222434760       37.51888214987566       54.74410263760918
H           43.88814988200077       41.05945169821493       54.85110085648270
H           42.94257277546208       39.57597886814938       54.82946169616637
H           44.49011946520817       38.65992997685516       53.08528581736309
H           43.07369833958388       41.27017474753895       52.43182681954485
H           43.46418277083043       39.98738452747271       51.28387349488825
H           42.30379491156354       39.68991613984338       52.57520386718421
H           45.76967240423279       41.33788893690025       53.48821432766808
H           45.55989464237672       40.83532371585585       51.81934871926383
H           47.12986175681905       39.27340696124536       53.90377742291282
H           46.72989789255851       38.79828418042828       50.92006459741012
H           47.87882382813174       37.93644515202461       51.94339198671472
H           46.15383073178464       37.75093182987649       52.21424386808467
H           48.00177737364590       40.84705418121616       51.45250634811519
H           49.06675227268214       39.90322575309496       52.48955607057908
H           47.57125115534593       42.40371520579146       53.37508174890979
H           48.04341331044208       40.80890581945814       55.23569965086299
H           49.73915135914667       40.79306028430066       54.77577160799651
H           48.99875649669455       42.28237179551154       55.36930748375769
H           50.47078953642511       41.92467442668391       52.60583099513392
H           49.89921579690615       43.36455309304130       53.44645259656904
H           49.00112190972256       42.52597593819652       50.66118192395328
H           48.00866645029111       44.80243763695691       50.58906566749882
H           47.27465859802570       43.82005059341487       51.84596979715388
H           48.46367618074469       45.05488990846492       52.27195294404288
H           51.02541893045763       44.54776719851975       51.66343661058885
H           50.28880034191676       44.68582845148993       50.07190504301424
H           51.84161401237109       42.22237220054003       50.94759623828779
H           50.85464989869147       43.19744636715242       48.23590852619903
H           51.91636638755131       41.81085243436497       48.48388524730519
H           50.27707790788789       41.78046046223069       49.11084109443779
H           52.74643911981262       44.54699985769732       49.21896187203993
H           53.63634195605253       43.05070727366692       49.49063207120121
H           53.11496827569049       45.27100151435207       51.49754511958676
H           52.88092132921446       43.16602415346730       52.73177013829959
H           54.33108723003178       42.51408012090506       51.96888272134474
H           54.45221548881949       43.87080490237779       53.08987292353511
H           55.59736460639648       44.04588664890454       50.25704511545446
H           55.64818395653116       45.16507224220953       51.61054070954614
H           54.33038225040093       45.95527371727871       48.99933827510862
H           54.77466196903260       48.22287207291728       49.80861041773812
H           53.87788883938730       47.32866557495782       51.03376696853658
H           55.61170476625085       47.58990669552497       51.22567956473925
H           57.25139611925439       46.08506554404742       49.80750808339094
H           56.56562518467182       47.18426995746928       48.61459159663110
H           56.51425961561874       44.15971536147606       48.30813720225715
H           55.96823032481396       44.69548514211947       45.95266089408064
H           54.76830771255462       45.39025495336639       47.02704491989572
H           56.01226460180460       46.42197774915384       46.32374690319267
H           58.81991222763472       45.18782806806382       48.42473332370043
H           58.37116764602146       46.21939237199260       47.07081343374455
H           58.00836494317364       44.15069840837857       45.69016493950826
H           60.02740416296684       45.52682139999634       45.52132686054879
H           60.78000355685972       44.63002475970373       46.84158879292611
H           60.43109280245596       43.82522964127953       45.30527524627119
H           58.59610326657634       42.86695884794856       48.26073392056023
H           59.72953366231430       42.33221542352508       47.03050805685780
H           56.70297920890459       42.19264379830907       46.76132451593840
H           58.91979965384378       41.07281383948786       44.99139197860281
H           57.19255324736235       40.78598459195788       44.78178028183648
H           57.84861048608026       42.40193173109487       44.55900865473229
H           58.77702470194073       40.01020444351147       47.19576047195573
H           57.05842361543234       39.74219845979328       46.92356108346394
H           58.28384438483287       41.05970119665351       49.38123100916867
H           56.07542810364002       42.04403662543023       48.91979242320614
H           55.37571885454081       40.43837817118636       48.71544622955100
H           55.97115509709937       40.95003490578137       50.29678862617909
H           56.83202329281583       38.40946827352246       49.03027094188694
H           57.42494204668080       39.07821839350160       50.54631176163752
H           59.11783337443089       38.10101361488510       48.21357936709500
H           59.98353762746629       39.31453254110325       50.87735209174126
H           61.05503627284531       38.48421878589892       49.75120613628434
H           60.28464793759927       39.99471538013873       49.27478091018918
H           47.51797294228177       34.34981664034149       58.11775235248878
H           47.42638183326448       32.63282209335542       58.51079871083085
C           55.51459205127750       61.93995761079690       47.19851454587658
C           54.57801217783285       62.21182582665276       46.02587184657214
C           55.36982574286875       62.77875542840182       44.84750394393449
C           53.44976405177415       63.18652928717837       46.38623246912612
C           52.51115168590982       62.77484221938192       47.53213718396745
C           51.93216213597608       61.38105174812556       47.31855501396941
C           51.39062611019116       63.82180312206174       47.62434679506688
C           50.41437964245181       63.71612425996396       48.80799028893588
C           49.26401004129385       64.69413264616351       48.56308396446990
C           51.11921606192731       64.01708330917693       50.13519360122356
C           50.27080892969835       63.88047959263167       51.41061153511583
C           51.03612444669208       64.50751983350060       52.57517561883871
C           49.93262468603493       62.41020987770650       51.68715689732257
C           49.09662902964018       62.11258972583330       52.94427070378045
C           48.90036809855503       60.60035775447904       53.04443627992128
C           47.76025052501063       62.86385843463895       52.89427184092847
C           46.71301815365415       62.52947700791691       53.96884099932969
C           45.42177837505788       63.27213319841638       53.62225043630294
C           47.20117413603390       62.88997787870537       55.37641866395316
C           46.26317736486201       62.50735046919085       56.53558320380656
C           46.77437427618172       63.15535772323809       57.82257985141877
C           46.16772484797508       60.98283617440229       56.67777336575882
C           45.27122180342249       60.44014785056675       57.80446307247465
C           45.34528838512384       58.91280829363513       57.78715846797678
C           43.83052230924343       60.94493071967306       57.63988667090828
C           42.75170583691823       60.31166247045865       58.53396734377814
C           41.39874429330650       60.90642424094627       58.13792260403824
C           43.03303185088389       60.54022219219775       60.02385014717360
C           42.13513986676789       59.75162451839272       60.99314245841764
C           42.24249384685969       60.36633853282196       62.38864724229783
C           42.52704717600650       58.26941577373803       61.01484139468805
C           41.52275645668798       57.31855971379883       61.68751097384116
C           42.21358766822099       55.97103961616775       61.90440233915400
C           40.24020310189973       57.16209486166024       60.84994142729924
C           38.93933851006472       57.08835352466615       61.65820978952167
C           38.86405702718866       55.81592829446016       62.50353726669985
C           37.70860069337121       57.13836003993934       60.73699783586316
C           37.43038014424189       58.46135367129249       60.01112053149532
C           37.39763392580269       59.64075088156633       60.98476462857966
C           36.09034960019167       58.40011406103236       59.25577984431110
C           36.09027339953241       57.56389340903407       57.95870697550379
C           35.35912307955559       58.32665447005276       56.85262233813947
C           35.45494301758975       56.18504365765574       58.18471255689472
C           35.38689636237952       55.24630698538231       56.96634596516252
C           34.81063406971427       53.90579235059153       57.42499152609670
C           36.76510474841906       55.07258676337649       56.31981003309574
C           36.86795593338292       54.07746452580822       55.15259152223097
C           38.30965874056785       54.09010754771909       54.64595199645083
C           35.88268058636304       54.43040925946696       54.03160640457177
C           35.96763534520603       53.57690892231029       52.75679791596777
C           35.06407449002980       54.19848921259024       51.69071344335823
C           35.57206464631663       52.11748084175873       53.01498497088468
C           36.00917973848718       51.13184000866869       51.91846328423018
C           35.15312091747015       49.86765952618695       51.99964757889279
C           37.49420271903420       50.77675972940102       52.07056059414596
C           38.14416224128744       50.10340180953403       50.84738683269805
C           39.03389917998684       48.94278634426219       51.29850899277967
C           38.99235363950989       51.07832791792035       50.01736177935701
C           38.22476261638012       52.23092666303520       49.36334803773995
C           37.27706214562095       51.71348847574232       48.27944407825805
C           39.17335469474708       53.25381101275165       48.71832382663712
C           40.15477327002091       53.98471032674297       49.64432227636251
C           39.47119657845057       54.48183289498054       50.91737516664304
C           40.80333384617504       55.18953195553577       48.94429030272359
C           41.81237968278035       54.87823712719141       47.82419044359381
C           42.93610210654641       55.91436279620522       47.86073033091076
C           41.13608153590899       54.86940208241408       46.44723017085825
C           42.00510571328679       54.37025511022357       45.28456831670366
C           41.22701396911439       54.53127992640015       43.97765638545912
C           42.46480510857857       52.91120602554679       45.47539308849861
C           43.98888276835471       52.76625562029303       45.57236813036013
C           44.62208466863355       52.98141958777445       44.19746892298841
C           44.40738956711523       51.39135604405924       46.11004951679685
C           44.13167497527121       51.13091491257224       47.59655955699576
C           44.98249420171773       52.03729299798146       48.48482777507820
C           44.43138373443208       49.66317707541126       47.93899023716988
C           43.37771546518185       48.65808110317786       47.45740014423701
C           42.15871584877426       48.67468847241808       48.37999144222646
C           43.95858876785292       47.23659726745856       47.40067512386640
C           44.89226250965770       46.95822363138748       46.21623335002562
C           44.11461871306984       46.92978207442624       44.89930260620358
C           45.61523435173070       45.61160336649503       46.37739331845003
C           46.60618045564739       45.49145871607617       47.54174155016124
C           47.65435448605123       46.60249051822385       47.49633766864757
C           47.32822203953906       44.13491392424507       47.50354963490170
C           46.44418711410696       42.88394209230324       47.57996271012908
C           45.52101950028237       42.91522677661602       48.79779322961555
C           47.30449625211244       41.61396766749229       47.64705644423784
C           48.19082923364956       41.37740407563069       46.42630236345033
C           48.85131165873566       40.00417578393503       46.47388921421857
H           54.99851693413597       61.41305967719094       47.99582801041002
H           56.35387099165073       61.32633321606519       46.87631966065526
H           55.90762049411331       62.87376377711804       47.59334752162700
H           48.10113291447507       39.21590911497145       46.49165776434558
H           49.48509095401820       39.85328487096861       45.60296601145725
H           49.46771713230178       39.90955021900636       47.36505548081610
H           47.93044124618311       41.65659336055594       48.54154114193980
H           46.63692191724916       40.75427680472396       47.75691337068377
H           47.91128167763107       44.09296450920423       46.58074888059775
H           48.03324655634567       44.09757148693937       48.33780145438926
H           46.06852554676723       45.56992404246785       48.49078419846692
H           48.11420642976379       46.64994537948368       46.51099700061540
H           47.21427413963420       47.57087888612492       47.71669702845455
H           48.43504862005359       46.41580797219785       48.23055619321752
H           44.85311449335360       44.83586056114518       46.47913138896636
H           46.16260025816704       45.40992915333148       45.45164764142814
H           44.49655438415251       47.05927561787789       48.33401619956166
H           43.13470725566739       46.51871256531214       47.35859885627577
H           45.82938600571749       42.82289818541149       46.67479955875228
H           44.96453790059901       41.98263589050181       48.87377437549225
H           46.10291615907429       43.04193613268570       49.70733390734628