3536
 energy: -3716.229261149756 gnorm: 0.000969049699 xtb: 6.6.1 (8d0f1dd)
C           58.88269611584916       36.92017394286100       49.97861632371187
C           58.95638909911705       38.27920020247682       49.28296462537089
C           60.14165093845852       39.07081050043934       49.82910806802317
C           57.62558615162040       39.01730502918391       49.47450893921359
C           57.53209020321621       40.43588125498103       48.89218214476876
C           56.15353081435691       41.00358076229115       49.22488922332508
C           57.78346283205520       40.42297373492165       47.38037474383848
C           57.70451378110400       41.76909097048308       46.64237340006701
C           57.93059398073084       41.49569404442430       45.15393883048411
C           58.73744247719362       42.76418845752744       47.18538034193817
C           58.68726130491364       44.16539552617476       46.54520380621136
C           60.06813992332407       44.56050599232359       46.02091260481475
C           58.20110250241546       45.24047341460618       47.52491294833987
C           56.72378619908423       45.16452166754967       47.93139913001147
C           55.81358661945687       45.43369009727329       46.73548959167012
C           56.46961200549940       46.18662695213630       49.04990267917442
C           55.10794135875624       46.08321118071083       49.75305907282091
C           54.82322898678003       47.38517428113813       50.50153469084454
C           55.08148053606560       44.89058727301801       50.71576340533395
C           53.68727859996090       44.40865389693855       51.14422527574776
C           53.84367172121509       43.42719743709014       52.30367208673289
C           52.95624067605834       43.76994958659316       49.95572294019974
C           51.63915384826478       43.03602224592117       50.24927305097219
C           51.13901926497261       42.41841521654946       48.94226425796700
C           50.58327747250851       43.97290288837734       50.84770766375569
C           49.32221884007967       43.27679791280889       51.38727875980275
C           48.19870791616893       44.30010643404615       51.53430985761494
C           49.61342166849452       42.59021912687083       52.72766878414965
C           48.46158508549760       41.77210324067894       53.33510327920343
C           48.83162442795383       41.39084495391273       54.76665540452564
C           48.17120959222610       40.53047784724221       52.48393217578504
C           46.97193522919588       39.65704233795667       52.89339258715763
C           46.92598445456515       38.46386584879770       51.93693955550462
C           45.66845326960863       40.46606521115968       52.84359078675699
C           44.37193864338504       39.73396412508377       53.23920220616731
C           43.23393935033560       40.19906290849410       52.32630283316043
C           43.95076403272389       39.98056253999231       54.69651115634134
C           44.84377420220117       39.37196730698961       55.78237593327137
C           44.87455375767936       37.84613045903029       55.68551842288737
C           44.34660793162122       39.76030952743970       57.18545682287335
C           44.51766013484691       41.22649677593935       57.60059980120673
C           45.98138527665600       41.65802121038354       57.53751032526161
C           44.01915840568800       41.46049877385876       59.03668353666441
C           42.50653219233086       41.38334978176801       59.27207203974736
C           41.76952418023195       42.47218643307012       58.49243380428058
C           42.20892293096516       41.54080284095249       60.77401851827901
C           42.34995707679191       40.26233921292111       61.61474339825131
C           41.16913215626927       39.33109239369053       61.34993831061318
C           42.44983151914585       40.65139134368759       63.09884910183981
C           42.55343027279735       39.47082971342561       64.08366672982518
C           41.22865418339213       39.26369754121196       64.81963482902630
C           43.66979208655199       39.67373237492902       65.12038491710378
C           45.09500620107421       39.57411087646303       64.56664819592076
C           45.35237736024376       38.18943279983989       63.97053786523330
C           46.15110492293442       39.81909453087892       65.65548531019967
C           46.09502327731956       41.15869525130101       66.39926139362156
C           46.03880313268586       42.34161042458054       65.43389616723907
C           47.33285992672914       41.33302831717855       67.29329511950635
C           47.59410307684304       40.23637146831124       68.33362699728120
C           46.40112505430514       40.06328986511186       69.27033742346877
C           48.85810015385496       40.59523524592818       69.12950852603234
C           49.50485942589171       39.41021387398211       69.85852161307885
C           50.54261743260577       39.93189657427097       70.85247249026399
C           50.13957451563216       38.41636435305337       68.86565146581957
C           49.56517411918408       36.99713247692760       68.94505637870319
C           50.01276966819282       36.30964044336130       70.23438250038866
C           50.00815455562561       36.15477878194141       67.73955283675024
C           49.32826245551349       36.48955853777419       66.40457841297396
C           47.83449843669232       36.17430693354387       66.45355379003769
C           49.99617754183078       35.69340213644605       65.27225896901163
C           49.77296949513367       36.27735254570975       63.86745517990303
C           49.97353302959578       35.18580915787882       62.81763969908110
C           50.72665424921901       37.45667341100723       63.63625144918957
C           50.47858417273509       38.31100230712250       62.38382695559623
C           51.63334618661755       39.30028277156806       62.22681978865413
C           49.12817246445806       39.02837460844765       62.47941624307918
C           48.78921154793117       39.98481888612079       61.33178672868478
C           47.48472127938356       40.72169260639234       61.64592919771193
C           48.79433500480817       39.32936425034265       59.93923535347101
C           48.13873384008730       37.95476928735474       59.72212698777233
C           48.36705955229047       37.57887135369231       58.25558631676196
C           46.64833979320064       37.94304775650807       60.07637877283111
C           45.87110940743738       36.66295527593918       59.72965218811706
C           44.39860549823902       36.86959694696807       60.08917959805783
C           46.46067337812400       35.45591381036166       60.46870341384997
C           45.72559373230693       34.12322050115369       60.27471426403989
C           46.42848045867059       33.04041601333333       61.09474945690065
C           45.57785834105082       33.70347401993597       58.80493148630641
C           46.88649907373850       33.46357618806482       58.05531435737114
C           46.62825141011629       33.14499474050656       56.58704955124096
H           58.03343371713007       36.34530698857268       49.61637231536483
H           59.78828153385488       36.34557916507381       49.79508501579483
H           58.77243900769611       37.05315459220573       51.05300403743681
H           46.11383507238758       33.97160500079207       56.10053602392822
H           47.56344574054464       32.96737595642576       56.05990217692601
H           46.00917908204065       32.25545008607715       56.49263940781408
H           44.98868548211800       32.78278050354109       58.77289467998900
H           45.00536284386260       34.46649324446233       58.27326399449328
H           47.49863965606671       35.32126773325264       60.16252808054574
H           46.46725531300867       35.68003355695281       61.53936284582035
H           45.93362713910634       36.49174041658257       58.65215490569977
H           44.27186920317526       36.90627580822743       61.16933209381195
H           44.02810329679858       37.80233019859077       59.66927953627765
H           43.78184085022679       36.06341179341551       59.70172253226619
H           46.54180026715956       38.10244208680473       61.14876232571888
H           46.17322076522387       38.78481274269269       59.56747595954557
H           48.33964790993349       40.03599979328656       59.24009590534219
H           49.83977292138584       39.21965126716507       59.63745736478717
H           44.71187226997449       34.22836384085045       60.67651532341327
H           47.47374114367928       32.95261225915736       60.80843203485184
H           46.38832780047710       33.28487598902683       62.15432021819224
H           45.94744067320776       32.07586766107172       60.94883318475220
H           48.65230496207310       37.22262972536279       60.35063743218595
H           47.78701067347041       38.22847851050913       57.60291978165692
H           49.41848840705335       37.69211835528922       57.99709060713987
H           48.08365490525835       36.54923160013132       58.05599135681446
H           49.56877648531114       40.75534658365940       61.29608084697757
H           47.61867865030617       41.34618706710360       62.52722733232699
H           47.19458377691933       41.36540684354767       60.81886355645651
H           46.66829481321539       40.03688678310733       61.84546499739262
H           48.33977063537171       38.27882301805180       62.54438940873648
H           49.11186486336400       39.60296731649350       63.41076522952170
H           50.47750679109691       37.66122563530273       61.50680026408647
H           51.59320298352062       39.80183947029546       61.26429201966873
H           51.59955930180755       40.05431516755080       63.01040581333319
H           52.58739139942713       38.78076931287205       62.29318879564521
H           50.68806248425840       38.11595593021893       64.50638525848591
H           51.74206387555114       37.05807643242509       63.57757627232125
H           48.73958896291780       36.62691438298993       63.80038081920900
H           49.28072219862837       34.36383652338866       62.98534884575562
H           49.80207952715578       35.56871854735991       61.81582264649382
H           50.98781496357316       34.79396423457334       62.86548951119850
H           51.07243576014528       35.63515284894675       65.45273663489499
H           49.61109883976950       34.67159530248334       65.30221680862624
H           49.45082254580097       37.55734767197310       66.19982257883487
H           47.31614781618752       36.82347403080630       67.15427421116995
H           47.38112429308349       36.31260835700294       65.47569086092524
H           47.67593734097164       35.14241582575104       66.76122918050839
H           51.08937793207239       36.27165910276681       67.62600613417351
H           49.81688966240679       35.10124932947801       67.95885126179824
H           48.47325555391020       37.05915451967358       68.95616611476302
H           49.72784372461216       36.89383082307130       71.10571083230458
H           49.55713825504754       35.32551960744171       70.32293651833939
H           51.09433812623433       36.18797384818787       70.24190869285374
H           50.00322998860474       38.79227309853209       67.85190605067990
H           51.21567099330370       38.35926435794531       69.04360910057973
H           48.72820892770810       38.89316064237771       70.42949465490737
H           51.30045513684935       40.51849389892904       70.33702351189517
H           50.07292062528682       40.56761243849282       71.60048912386009
H           51.03505770931056       39.10866070221974       71.36454511699024
H           49.60259258760917       41.02288167459447       68.45288327234186
H           48.60183556949716       41.36865099403632       69.85755043159973
H           47.77260435041181       39.29219451139397       67.81279620301851
H           46.13922648535679       41.01473003210841       69.72919022440867
H           45.53288087231624       39.68971166245811       68.73357966104257
H           46.63289612353082       39.35564802892340       70.06266405374517
H           48.20912694075767       41.40440557392449       66.64197364817049
H           47.24310814509393       42.28706112803378       67.82019055745870
H           45.20171266608451       41.18639873820445       67.02894403917223
H           45.11472147166732       42.34115603693495       64.86220657981576
H           46.09445806302715       43.28008274763995       65.98197845662746
H           46.87862289041798       42.30147342503831       64.74318110491582
H           46.06479380825939       39.01215041085239       66.38521460572163
H           47.13562690880153       39.73435950922032       65.18718170431806
H           45.22701533579603       40.31495531298268       63.77381899496470
H           44.77602302967059       38.03774586198259       63.06212081935970
H           46.40611960621355       38.07887394032213       63.72403131227600
H           45.08523570914071       37.41123976370284       64.68311520994111
H           43.52602319917506       40.64953618606977       65.58764034012094
H           43.55676050551235       38.91760834925791       65.90205954839107
H           42.76877403790122       38.55838925163334       63.52360265440328
H           41.00818550281958       40.12286954925720       65.45071540644913
H           40.40987703740454       39.13532411746299       64.11702211650790
H           41.27496235832295       38.37978270125514       65.45298811593624
H           43.32504381997733       41.29429967771245       63.21113739746534
H           41.57663892405183       41.25518181957169       63.35683426966421
H           43.27308728342877       39.74473475646975       61.33284720718705
H           40.24011333676675       39.80092885825520       61.66694675453416
H           41.08926349940939       39.10459517769752       60.28946196120175
H           41.28006502199540       38.38950062845817       61.88048071556288
H           42.87498443482107       42.30948587818461       61.17439224115351
H           41.18678824543601       41.90636150038054       60.89708911304523
H           42.13666918670267       40.41150688006400       58.93499842799298
H           40.70085541050646       42.42360426189224       58.68964902548962
H           42.12774900178324       43.45674807864164       58.78694249082361
H           41.91458589399448       42.35784384466958       57.42151484987362
H           44.51469366441601       40.74184832858390       59.69379169826102
H           44.34658008678613       42.45706866183421       59.34651074589286
H           43.94765149854306       41.86407537866076       56.92102833632621
H           46.59761708711074       41.01127689759073       58.15826077825642
H           46.36328433563875       41.62644429573157       56.52219419426152
H           46.08499308013450       42.67820492883459       57.89997321119363
H           43.28971995458384       39.49337419453513       57.25434565183541
H           44.88621655217781       39.14555634511778       57.90876762454343
H           45.86439313458678       39.73838186073851       55.65440435523678
H           45.47494649676535       37.42775805593627       56.49064219856754
H           43.86814610336278       37.43930652543303       55.76315280128036
H           45.30779254783377       37.51903532283070       54.74446358504217
H           43.88768259838355       41.05920740681724       54.85164456357603
H           42.94383381439938       39.57465241074578       54.82985332446513
H           44.49126180468274       38.66028834550294       53.08620522520371
H           43.07520225815459       41.27058497220867       52.43225409052313
H           43.46575779149221       39.98741531511792       51.28473486471017
H           42.30513355393020       39.69043464632881       52.57601124415857
H           45.76988374214319       41.33817411542804       53.48855946968699
H           45.56051391670645       40.83452012442964       51.81996842578327
H           47.13088966131103       39.27345539994242       53.90439846076861
H           46.72908117120858       38.80037008736938       50.92085141328104
H           47.87838095002385       37.93707658164885       51.94309631417723
H           46.15339421906852       37.75224215278953       52.21487854793936
H           48.00099874151154       40.84702909612145       51.45278793780891
H           49.06718639796400       39.90382413005252       52.48938994823034
H           47.57165154313245       42.40359747919295       53.37528408375886
H           48.04417667216771       40.80819906222721       55.23542366260472
H           49.73960289957193       40.79276465416573       54.77457717483768
H           48.99939318949598       42.28205316872739       55.36879258196798
H           50.47054662338039       41.92419926090522       52.60563869903546
H           49.89949026688788       43.36418116059731       53.44646678381219
H           49.00188196142837       42.52571860322202       50.66149104321491
H           48.00911672265857       44.80153519300593       50.58873829335356
H           47.27568504558155       43.81927303431556       51.84656391477141
H           48.46472099874772       45.05475643793580       52.27146439375855
H           51.02538469291869       44.54742053712931       51.66361343624492
H           50.28928047739364       44.68495011365117       50.07198337268674
H           51.84223422296732       42.22233203099976       50.94838050492225
H           50.85456302192459       43.19743179204917       48.23735493123554
H           51.91660796522816       41.81057428684337       48.48471400007531
H           50.27720797082549       41.77987072381940       49.11238003192476
H           52.74519260394753       44.54686504192829       49.21925271868327
H           53.63626759181987       43.05077909355799       49.49086568365173
H           53.11484069926387       45.27100406545128       51.49697745293756
H           52.88063400781935       43.16641155022201       52.73130483396643
H           54.33048864860717       42.51415427381526       51.96734901892663
H           54.45237373407115       43.87060154151784       53.08887001908936
H           55.59635228435805       44.04552570838228       50.25614630283312
H           55.64772313115202       45.16492836025283       51.60963726194436
H           54.33042402013952       45.95457922370550       48.99851652452931
H           54.77457866478489       48.22239568495304       49.80782657328236
H           53.87648072889027       47.32773194922256       51.03202861501676
H           55.61028392065747       47.58901620550002       51.22548113369564
H           57.25079623372289       46.08508927281238       49.80777927696444
H           56.56481556191150       47.18385291612547       48.61470756063734
H           56.51445162302048       44.15975516168355       48.30815324949847
H           55.96910654078549       44.69509201274391       45.95303277470107
H           54.76826168391937       45.38915358508205       47.02728853197454
H           56.01166872402007       46.42210627049666       46.32450479867954
H           58.81941846376431       45.18836738617892       48.42486371722357
H           58.37047135572044       46.21911895349285       47.07049553389736
H           58.00805692659134       44.15013525419904       45.69104690975404
H           60.02662351585332       45.52634329398595       45.52151583344195
H           60.77941114074884       44.63001869645834       46.84203131872093
H           60.42986040724401       43.82431251669610       45.30595841373176
H           58.59715275590503       42.86751940046457       48.26149254663893
H           59.72920956492788       42.33240223675821       47.03022147979583
H           56.70298991895782       42.19251861891222       46.76241614326017
H           58.92099721768506       41.07373508976554       44.99385963772291
H           57.19394765361849       40.78586385851009       44.78334845828617
H           57.84920192668715       42.40198531430487       44.55994564775928
H           58.77761403147529       40.01088183288722       47.19659893481576
H           57.05863026934649       39.74270676977422       46.92472819304656
H           58.28389087375303       41.05996768560367       49.38208193675980
H           56.07520293232305       42.04346591122388       48.91953053123801
H           55.37694486464061       40.43715812547213       48.71447849678057
H           55.97065147140270       40.94928343672417       50.29646991204817
H           56.83235930712754       38.41036744248725       49.02968121716548
H           57.42376128684987       39.07840296828071       50.54641653226050
H           59.11773904151185       38.10161337930248       48.21488362774660
H           59.98453223583271       39.31486747968100       50.87802063594853
H           61.05484664409869       38.48395266056615       49.75157546026034
H           60.28509950814101       39.99477676262523       49.27509419346516
H           47.52004260026321       34.34952562562739       58.11889160670739
H           47.42604617839146       32.63267082016369       58.51170765736349
C           55.51382842402028       61.94018015696291       47.19828500478505
C           54.57700602457189       62.21225069717206       46.02518635645136
C           55.36903815763883       62.78010120888334       44.84754833273000
C           53.44915608567052       63.18759081533842       46.38587320012221
C           52.51107779635489       62.77567557163849       47.53241084059655
C           51.93142017640292       61.38171703753573       47.31809762861963
C           51.39003094352027       63.82253164656680       47.62430729754479
C           50.41319049830516       63.71573183845291       48.80759170231553
C           49.26314982353734       64.69431344116121       48.56336460593685
C           51.11866426638082       64.01699957254247       50.13482447439458
C           50.26992970697262       63.88102921054037       51.41027460934811
C           51.03582293646078       64.50787599694247       52.57488223447940
C           49.93220732489997       62.41052436359326       51.68716389894068
C           49.09631961153296       62.11342229095343       52.94477874238151
C           48.90024959330405       60.60076241663793       53.04432375933743
C           47.75956151523708       62.86431239292334       52.89416535156546
C           46.71222704170165       62.52922426904911       53.96887316246593
C           45.42121723782181       63.27238470861254       53.62186428309191
C           47.20127244561852       62.89018663524025       55.37651583061427
C           46.26294811665163       62.50834041566017       56.53600048865100
C           46.77433330866474       63.15613523886008       57.82299636019741
C           46.16752357781067       60.98344868863246       56.67783526398927
C           45.27091033642266       60.44129684074045       57.80504877050914
C           45.34521593678534       58.91360112614603       57.78735479174003
C           43.82995378033019       60.94548308045796       57.63999356971897
C           42.75128219630302       60.31108806333256       58.53401820938538
C           41.39863563519969       60.90668856313329       58.13793225801361
C           43.03285119885581       60.54040912999944       60.02394436914821
C           42.13452333570660       59.75205895649145       60.99311911446210
C           42.24254232196881       60.36613552149157       62.38848307859644
C           42.52694488430634       58.26971666440892       61.01484405933661
C           41.52217348260994       57.31937570232281       61.68784339883494
C           42.21275285047875       55.97165208705943       61.90523218472440
C           40.23974089728716       57.16270969995940       60.85009806788732
C           38.93877458295066       57.08874956222562       61.65857141710693
C           38.86411582986028       55.81621005102426       62.50352415181764
C           37.70881754389818       57.13821577282441       60.73637892751186
C           37.43130647631592       58.46143376447409       60.01027038141501
C           37.39816033374878       59.64014436164027       60.98449859131653
C           36.09098612683034       58.39993756932945       59.25554914156867
C           36.09143387026315       57.56379464504501       57.95843075236985
C           35.36016335137764       58.32670083779614       56.85252735076531
C           35.45547532993199       56.18516723376341       58.18475941443238
C           35.38688159507569       55.24666224574705       56.96635757457673
C           34.81203388073021       53.90578889104151       57.42496415436582
C           36.76534873085593       55.07317993819977       56.32009242445843
C           36.86724889295655       54.07787966448485       55.15284155048342
C           38.30933400186524       54.09031268436755       54.64616700488768
C           35.88245511865689       54.43110148707871       54.03161352873300
C           35.96835496825592       53.57725378973064       52.75696896520605
C           35.06472600899136       54.19886917999091       51.69116362043489
C           35.57215843851028       52.11792414171889       53.01535126089315
C           36.00904027912215       51.13276510991422       51.91832966334944
C           35.15370594579279       49.86854684691998       52.00007861474507
C           37.49422043192070       50.77739994967958       52.07090364722546
C           38.14409497963324       50.10391752281797       50.84766397739948
C           39.03366073063044       48.94325426878262       51.29892068834754
C           38.99240907363923       51.07858699708208       50.01732570492663
C           38.22405176883928       52.23135785893204       49.36393294726670
C           37.27677497195653       51.71362597650554       48.28025557850344
C           39.17275917080499       53.25339363500053       48.71755089915978
C           40.15474642235846       53.98378671303915       49.64337781067865
C           39.47074092563869       54.48179400745113       50.91618432267749
C           40.80282976141325       55.18919941948700       48.94365716439322
C           41.81195806472849       54.87736973692537       47.82366312776026
C           42.93558975348619       55.91420898984631       47.86070769203635
C           41.13569711668433       54.86891031312071       46.44673700130435
C           42.00553662924665       54.37016158415224       45.28444487995547
C           41.22703025063681       54.53059287661375       43.97802802295573
C           42.46467976233370       52.91087069191941       45.47534985743753
C           43.98888021603924       52.76651391710152       45.57266822269677
C           44.62174534406903       52.98077460399495       44.19731611301454
C           44.40707674437230       51.39107126648493       46.10972149429560
C           44.13054732861460       51.13032889080573       47.59602312637892
C           44.98152434716827       52.03685087486124       48.48473471484871
C           44.43092282410967       49.66263164882296       47.93867141069821
C           43.37680109396131       48.65759913965393       47.45716902257370
C           42.15801769591804       48.67470903656223       48.38005107320977
C           43.95840645915526       47.23640839472979       47.40104540253619
C           44.89218357160158       46.95891682639353       46.21619804665045
C           44.11395788070460       46.92996845110886       44.89993787099216
C           45.61439742678429       45.61176529573801       46.37687989575483
C           46.60494289277579       45.49133242213883       47.54143945165008
C           47.65357431755903       46.60249741890882       47.49528356940382
C           47.32761126084785       44.13493371623726       47.50289886096490
C           46.44350417323713       42.88385927628866       47.57974290163735
C           45.52054464839622       42.91522756695409       48.79779376999807
C           47.30475445306340       41.61454562801028       47.64694742831190
C           48.19109935096580       41.37897369990768       46.42588514380056
C           48.85115917971337       40.00570353472984       46.47357411816093
H           54.99838856454116       61.41267103766390       47.99602499734232
H           56.35292375407479       61.32632824499758       46.87623370020150
H           55.90677075110265       62.87379881812142       47.59348743683107
H           48.10052396714589       39.21823450252554       46.49130805400523
H           49.48450626190770       39.85510927611594       45.60241468037074
H           49.46813340916811       39.91011947312384       47.36443466804781
H           47.93025072988414       41.65742219121024       48.54181765903250
H           46.63763721522164       40.75512218854477       47.75630493725515
H           47.90984935143320       44.09367486322061       46.58001218954104
H           48.03335873225046       44.09863249629609       48.33680740574201
H           46.06851352497037       45.57031233701692       48.49087451617594
H           48.11258035035207       46.64948469365446       46.50976409547515
H           47.21394907204613       47.57118954009403       47.71581946884796
H           48.43501358367839       46.41620738435104       48.22919533256025
H           44.85258101940609       44.83674097703432       46.47962915463778
H           46.16250269401441       45.41092591720621       45.45199601979684
H           44.49616089879078       47.05971297701907       48.33468950205939
H           43.13475346259848       46.51931733816084       47.35834329064439
H           45.82946821443357       42.82360691953381       46.67519115039594
H           44.96478188127683       41.98260468865836       48.87379101511911
H           46.10250220210922       43.04214540977417       49.70746878908449