3258
 energy: -3427.621465052693 gnorm: 0.000673005529 xtb: 6.6.1 (8d0f1dd)
C           95.31933485089122      101.30305870920520      107.85683368609527
C           95.83723811083556      102.10267920355169      109.04348760422339
C           97.26172072322508      102.60075111544168      108.82422210844365
C           97.78683657701347      103.37934942813624      110.02590120129433
C           99.22389009058554      103.84962676617693      109.82785851240878
C           99.74706165041282      104.62561763550147      111.03232509396334
C          101.19434350694512      105.06906656922060      110.84589484591368
C          101.70983680899664      105.87724856063052      112.03231429083306
C          103.15807371112358      106.31689838366033      111.84126319480762
C          103.65364829518381      107.18935366975433      112.98985994297004
C          105.10135011309444      107.63086327322587      112.79779176318731
C          105.56536706101646      108.56727309896756      113.90825915104772
C          107.01171079711695      109.02015000238609      113.73014576276498
C          107.42290679822982      110.01677144622946      114.80897513796614
C          108.84751112705597      110.53531747455541      114.63401872813510
C          109.16488245913467      111.62374188920046      115.65591685289526
C          110.55099277075134      112.24662977750235      115.49682241157225
C          110.70050219156828      113.04595463664572      114.20462231653599
C          111.94338233291808      113.93087244024261      114.20866582594674
C          112.11627737930425      114.66037282638668      112.88024641989595
C          113.37555763284935      115.51950488437700      112.84587431828517
C          113.55260447211207      116.22144865301684      111.50271936404334
C          114.85920974833127      117.00408589925040      111.43369774293157
C          115.08056366005164      117.65298016098137      110.06981007707202
C          116.42084480877743      118.37959474302922      110.02049152943698
C          116.76652280870755      118.97287470070646      108.65657630575311
C          115.86690381152779      120.12278797139012      108.20585161482005
C          115.99528728624905      121.37191294421837      109.07369715069588
C          115.25913569157505      122.57833884220133      108.49103707978999
C          113.73914349997267      122.43312997504471      108.50983440237499
C          113.04125845355190      123.69031900640765      107.99486582436828
C          111.52084740721121      123.55111596334905      108.00339210249719
C          110.82158146322064      124.86274822817334      107.65637233229775
C          109.29614381535143      124.77030451217460      107.72182255301705
C          108.67511383357233      124.02895482014877      106.54001139643525
C          107.15196923967119      123.97612526766457      106.64663508840658
C          106.50710002605497      123.38553984399741      105.39447285996138
C          104.97855362303686      123.34819290298235      105.46138078763748
C          104.44507131276197      122.25176349691375      106.37948469635354
C          102.92246529135849      122.27737486668228      106.49900319409620
C          102.41175111575915      121.10933258773883      107.33984184589904
C          100.95557002602371      121.26198963218953      107.77077636246148
C          100.50288227153892      120.07944959580448      108.62519684268800
C           99.14472838861879      120.30973679544759      109.28276113038885
C           98.70319979608799      119.10508273529663      110.11007867047702
C           97.39818323459249      119.35667864931069      110.86112725624830
C           96.88968486253715      118.11620920257350      111.59926714481577
C           96.30245197482901      117.06944953176399      110.65639902483885
C           95.88078321988759      115.79198190918252      111.37639327119069
C           95.29782476192850      114.77707240501867      110.39632425681987
C           95.01697762702742      113.42710879042865      111.04998329487289
C           94.42230634765593      112.40684609075100      110.07938561371640
C           95.44337142495579      111.88165421439743      109.07623040714134
C           94.83034962353715      110.90572090560882      108.07662118910807
C           95.83138906232982      110.53310198650851      106.98833339664478
C           95.21875171540664      109.71675382771369      105.85292475837461
C           96.18238532338516      109.64034059683584      104.67231224284809
C           95.64668052982422      108.82842744909188      103.49275707876478
C           96.31571424044525      109.21239667504040      102.17292717907981
C           97.82942451221504      109.01244884331363      102.17681429711587
C           98.48881108016704      109.65571006088732      100.96078226296939
C          100.01054193473591      109.66988992847810      101.06185873339408
C          100.64931643957541      110.50692207922054       99.95759694519168
C          102.16023110967241      110.60573224464740      100.12987209922697
C          102.81472439935206      111.51614622841139       99.09642617787158
C          104.31185498039984      111.65159105267341       99.34912076235736
C          105.01210736355205      112.54035264433351       98.32756139284311
C          106.50752169284307      112.63318809220769       98.61449189147788
C          107.25707076118515      113.42891933749772       97.55065479208251
C          108.76639459100051      113.50906605246519       97.79648836357028
C          109.45510067963586      112.15785130434976       98.00301648168463
C          109.24750273984752      111.17799017073168       96.85002281861259
C          109.74055884980686      109.77484140652841       97.19348774042835
C          109.46892589058154      108.78533696937025       96.06278590101317
C          109.61286451350658      107.33030240121967       96.50221234661096
C          109.34649460828321      106.37120685186967       95.34484684105364
C          109.25869938217815      104.91104811221649       95.78259779957342
C          109.07453548686412      103.99076670137505       94.57813827088366
C          108.93980787474368      102.51125287791621       94.93753222985504
C          107.66465563887481      102.13985017836541       95.69616096314654
C          106.37294349985979      102.52642942999468       94.97437486202581
C          105.17425202346180      101.76905544939076       95.54472690598934
C          103.82339077902307      102.25075801476162       95.01108466934328
C          103.37329404363327      103.58430996301850       95.60775496167992
C          101.94334965978973      103.93497722963397       95.20095314912665
C          101.46226277085206      105.24519500527580       95.82220242808540
C          100.02486191672203      105.56496237157478       95.41682191672889
C           99.46999536157587      106.84193336887864       96.05005536636436
C          100.21246076876463      108.10305551621454       95.61331116977469
C           99.45114098450797      109.38029462751491       95.96284659094549
C          100.23452416258590      110.62328765200827       95.54750255021384
C           99.45999875109528      111.91664490916824       95.77977748397076
C          100.15037944135155      113.14622536166250       95.18855293327687
C          101.44456057365521      113.53099727129872       95.90118527338109
C          102.04686021739660      114.80610325167163       95.31638044211901
C          103.38581451422887      115.16759274713699       95.95242426124565
C          103.98873915796332      116.42727727675779       95.33682909700597
C          105.36038824975671      116.76191802301260       95.91716703522411
C          105.96536725078538      117.99835734172169       95.25716241717478
C          107.26877611685167      118.46491534786706       95.90521769971502
C          108.44419589575425      117.51398405231470       95.69326880454690
C          109.72830811914814      118.07065803317123       96.30434031020636
C          110.94057558592905      117.18662740561888       96.02166068124495
C          112.22658703927303      117.79313000894787       96.57869957745434
C          113.49569878339612      117.08037119625754       96.11073083499947
C          113.70542888951701      115.70558837533889       96.74012917192194
C          115.03361976632409      115.09623551666431       96.29613530884093
C          115.28243689139427      113.71553490252742       96.89676922493292
C          116.56854202555469      113.08797192055087       96.36357747669402
C          116.79594267191526      111.66757085542885       96.87795431042045
C          118.04877744446462      111.04838119918419       96.26240815144084
C          118.38593499592083      109.65426270828998       96.79471686779502
C          117.43260087775366      108.55856703890318       96.31847939074217
C          117.96392665693851      107.16662569003348       96.65747403616709
C          117.06965354186306      106.04589886133468       96.13050720201458
C          117.65041030341852      104.66663216384306       96.43643498857418
C          116.79815464902775      103.53154125487224       95.87294374322310
C          117.37359946323630      102.15880741309387       96.21453749458527
C          116.54573984483872      101.01954578562585       95.62489685288222
C          117.08882382429152       99.65258040213192       96.02296107911640
H          115.51308015262099      101.10942130270219       95.97049562072573
H          116.53528174887889      101.10453364964195       94.53557080388768
H          118.39787969393944      102.09130277784504       95.83875674302638
H          117.41660768846218      102.04597984235772       97.30095703598840
H          115.78442986020760      103.60470217172903       96.27487544190609
H          116.72863644128600      103.63471564554006       94.78684058955389
H          118.65738397617901      104.60014102441160       96.01573807996036
H          117.74118034298490      104.54730621095683       97.51863232549277
H          116.07667559663112      106.12837001140730       96.57983498466263
H          116.95222414161866      106.15548920410281       95.04889659170814
H          118.96277862127630      107.05322020875516       96.22677329033935
H          118.06341862928095      107.07145189698331       97.74074036784990
H          116.45069198023913      108.69197137739124       96.77716477482230
H          117.30947519044565      108.63705429660067       95.23455646175263
H          119.39581154071381      109.39802705992912       96.46147182810171
H          118.39714316419396      109.67668995976400       97.88584517823325
H          117.93099323701490      110.99880457596140       95.17632898043247
H          118.89560320908038      111.70987581963487       96.46667199827473
H          116.90681135572549      111.69142738904152       97.96332111230272
H          115.92399151093906      111.05559748188821       96.64207667033506
H          116.53121433250344      113.06916161765845       95.27020682161910
H          117.41883678961385      113.71464416350857       96.64606617967155
H          115.34399699277880      113.80450462033920       97.98289630874316
H          114.43721136446418      113.06309596427768       96.66665939283683
H          115.04471428438912      115.02114421960360       95.20473648064181
H          115.85045706188612      115.76466208527638       96.58156315777407
H          113.69471990787628      115.80100632955634       97.82799027718933
H          112.89008052986031      115.03958594812349       96.45286541991508
H          113.46863211272051      116.97849943277316       95.02238874688982
H          114.35798768735374      117.70587339556641       96.35653572386524
H          112.28096364598674      118.83646353706142       96.25357270279024
H          112.18900594149162      117.78898961289083       97.67016854361030
H          110.77639333072671      116.19848683795534       96.45348076649877
H          111.04412839279694      117.06385372399399       94.94059542784345
H          109.91280520810488      119.06782564534164       95.89471604075703
H          109.59947493427606      118.17968260232762       97.38342647956576
H          108.22664439469415      116.54213677699444       96.13897367955302
H          108.59245503926859      117.35914749918857       94.62137318323738
H          107.53387375315918      119.44091423859446       95.48910642086916
H          107.10751260198373      118.60120935861579       96.97535675834902
H          106.14009456891122      117.79354126905058       94.19746081846510
H          105.23906812700019      118.81348640606380       95.31557244108510
H          105.26471677303645      116.93821775352080       96.99117767467615
H          106.02471153425242      115.90839112132251       95.77312193492487
H          104.08245184363328      116.28820280433567       94.25694602822668
H          103.31103234121194      117.26861672940255       95.50107801118747
H          103.24636923502960      115.31892502431002       97.02563131993428
H          104.08081760279035      114.33484982569935       95.82323220496680
H          102.18734403423547      114.67359177674405       94.23983193071967
H          101.34620342141764      115.63348445118535       95.45335751616716
H          101.24112864323304      113.67890632409070       96.96375466175263
H          102.17192620082490      112.72195879452792       95.81314001740519
H          100.36136725291034      112.96471469137600       94.13082244912179
H           99.46174735485123      113.99406155917585       95.24007094737104
H           98.47299893384117      111.81914805869273       95.31928074631051
H           99.31277064628982      112.06268875908179       96.85069871788647
H          101.16766615271537      110.65365414431072       96.11291398185183
H          100.48659739822149      110.54348229741326       94.48645390453838
H           98.48244448420337      109.37476645271661       95.45614320955551
H           99.25615633198559      109.41013396660000       97.03758838479318
H          101.19477246049405      108.13452800282028       96.08746277592836
H          100.36715581322503      108.07165208877905       94.53141728874904
H           98.41903910569002      106.93601964802843       95.76273401122799
H           99.50577847342950      106.75692995233460       97.13800370810426
H           99.97332968612601      105.65583613770895       94.32836204971655
H           99.38499487246175      104.72517578847895       95.70299146621659
H          101.52463946717798      105.17353032070511       96.91095141821464
H          102.12167221872411      106.05420661265244       95.50277094555449
H          101.88394501241697      104.00955015997127       94.11180897096121
H          101.27544164328857      103.12623207234058       95.50969081905140
H          103.42611661770017      103.52389747013349       96.69683922136298
H          104.04428644478409      104.38301057323720       95.28553700757658
H          103.86772422402332      102.33296190588925       93.92205452376967
H          103.06866437329310      101.49674031816838       95.25069632423424
H          105.29012238001673      100.70815220925620       95.30659278556206
H          105.17551132916486      101.86079439058778       96.63130947407903
H          106.20622626301727      103.59944726125515       95.07308672338183
H          106.46610049449201      102.29891697992369       93.90908042070642
H          107.66950421961458      101.05607511889130       95.84301517686518
H          107.67575561740625      102.60206781693360       96.68450342235641
H          108.97539409657831      101.92872810782127       94.01261105726388
H          109.80024956677497      102.21625807983649       95.54519049709677
H          108.19595211190412      104.30795890257576       94.01274022775816
H          109.93935564169163      104.10530259221026       93.91886067683937
H          110.16807853291991      104.63185133253310       96.32121531622461
H          108.41849983867587      104.79479034781522       96.47000377255554
H          108.40561807758169      106.64937651230716       94.86039894670979
H          110.13746224529892      106.47822060840670       94.59836766226479
H          110.61571516905265      107.15977317096058       96.89995564846910
H          108.90211045906011      107.12979465137705       97.30689950319942
H          108.45008886777660      108.93767904349917       95.69458237262056
H          110.14976945697244      108.98560625641532       95.23142476268832
H          110.80831045399276      109.79638907790985       97.41783846376224
H          109.22501705467292      109.43462528581628       98.09579950292481
H          108.18488616776040      111.11146245225939       96.61110128801366
H          109.76105182603595      111.54367890070203       95.95793405906828
H          110.52551865804459      112.33075557065835       98.13756677551297
H          109.08910997514062      111.70683107492015       98.92760973639697
H          109.22670274361622      114.02093992953795       96.94580031772500
H          108.94733479313680      114.12359302612050       98.68214454627892
H          107.06821292955860      112.98488753095174       96.56965299433598
H          106.85684690192670      114.44607840804051       97.52099752421347
H          106.66122916362329      113.09996278026490       99.58988119952122
H          106.90788917155473      111.61986530297327       98.66626452211318
H          104.85770521532388      112.12916280728230       97.32569296040320
H          104.56843558567152      113.53797654806226       98.34324865303208
H          104.46752152688558      112.06607607375679      100.34789175442482
H          104.76799396558640      110.65812580128852       99.32815853549252
H          102.64455684628950      111.11516355552375       98.09376779386790
H          102.34809899588137      112.50352438598196       99.13621497254610
H          102.37511584645067      110.99468395061837      101.12872612066498
H          102.59824026637793      109.60611011011699      100.06603592324751
H          100.41826332332847      110.07117913494548       98.98252313805258
H          100.21966892256474      111.51257917046139       99.97985002997240
H          100.29787710906076      110.08756590993916      102.03090137618265
H          100.39686358151228      108.64845980500792      101.01819961647111
H           98.18701984219349      109.12851456313371      100.05264506919481
H           98.13337747834098      110.68624561305970      100.87365980395649
H           98.25156272918998      109.46754029663893      103.07397166405819
H           98.06069137544546      107.94511206349323      102.20705548905309
H           95.87701872960275      108.62776819128929      101.36045162307100
H           96.10120280008353      110.26545559155757      101.96827870583125
H           95.79199037958026      107.76376307952646      103.67941126393220
H           94.57162109321897      109.00380712546006      103.39585824886854
H           96.38501615176543      110.66030294693181      104.33392259932540
H           97.12690783384591      109.21429917650160      105.01763380230987
H           94.96944196242194      108.71335454120008      106.20425716612084
H           94.28762750420996      110.18921289695562      105.52603811030140
H           96.24415371330403      111.45411634356665      106.56971735081484
H           96.66156626535218      109.97857204239409      107.42994309484563
H           94.48583989781037      110.00702939885591      108.59471374126315
H           93.95675081720205      111.37405863210849      107.61547713594608
H           95.86869602630880      112.71986745485050      108.52054926194860
H           96.26083343036943      111.39160931459439      109.61219014117962
H           94.02003248949902      111.56397553655948      110.64524192208488
H           93.59209575358683      112.86676864955712      109.53894723075220
H           95.94573048441620      113.02921897985142      111.46562438333555
H           94.32417009328746      113.57759292668477      111.88174740845744
H           94.37163795767620      115.17774073611918      109.97470864221188
H           96.00352331891079      114.64670222812812      109.57358680009676
H           96.75115037225733      115.35552296091259      111.87297000934687
H           95.14319280622516      116.02708838708729      112.14864161000581
H           95.43696427497918      117.49552596248468      110.14170204481498
H           97.04077075910200      116.80446006796552      109.89803401929989
H           97.71226910656678      117.67517476478892      112.16673351573264
H           96.12175532141099      118.41595239547799      112.31710118960679
H           97.56036772634455      120.16166618174560      111.58249293571043
H           96.63154239653798      119.69683853222149      110.15948834999557
H           98.58370368976097      118.24723918607344      109.44727373859853
H           99.48418575510647      118.85543482015159      110.83099093481735
H           99.20353837566385      121.18986664570961      109.92839614395699
H           98.39588269802148      120.51598112461551      108.51337322882334
H          100.45919538867346      119.18370002032266      108.00375515169951
H          101.24668472310366      119.90091604662931      109.40525022387982
H          100.85040748833951      122.18460499351396      108.34753679506882
H          100.31320827421096      121.35030374212342      106.89085512346823
H          102.52976927667953      120.17884302803412      106.77874899750707
H          103.02965962337041      121.03016522429024      108.23636980778234
H          102.61659593464657      123.21877935543178      106.96310080044346
H          102.47294989597734      122.24119244730716      105.50349986730681
H          104.75943804210260      121.27982586293491      105.99243824872407
H          104.87438017153646      122.36579464969118      107.37666504603936
H          104.60968777658589      124.31962191549641      105.80134723349457
H          104.58270160827932      123.18297118742861      104.45575767725796
H          106.80725926601313      123.99035400584462      104.53425551093920
H          106.88616692748028      122.37488440063527      105.23241580029934
H          106.87730250251703      123.38514865704349      107.52266579075419
H          106.76841614956840      124.98866559871310      106.80002768582627
H          108.95481913453426      124.53631952065763      105.61278276520495
H          109.06740235777893      123.01133641049101      106.48928491603530
H          109.00656265954989      124.27624174241787      108.65163194047078
H          108.88357496728651      125.78281070969912      107.74758194518873
H          111.15587221066158      125.62742798323391      108.36288456712433
H          111.12327893086243      125.18684110856422      106.65695341402531
H          111.22637733398756      122.77179824555989      107.29785242995432
H          111.19730849805782      123.23443625670448      108.99767187985768
H          113.32641309079935      124.54328343447801      108.61749720661143
H          113.38013299680220      123.90444578605636      106.97756095140841
H          113.43963982403832      121.58405264772732      107.89272042328577
H          113.41106524713047      122.23330798364277      109.53357859603578
H          115.53301882136606      123.46644280765875      109.06806253935194
H          115.59281454407099      122.74422833609540      107.46325924955489
H          115.61249637501165      121.17544106302363      110.07628646170710
H          117.05470188800987      121.62465908221918      109.16681460543481
H          116.14156562696928      120.38803096592066      107.18228602622699
H          114.82918574712166      119.78871398095272      108.18852063297361
H          117.79914263840958      119.33082977929641      108.68528426365047
H          116.71787633445912      118.17566319195268      107.90947217904016
H          116.43539664719358      119.16578755208886      110.77678494309674
H          117.20393394548000      117.66355209788577      110.28257165582555
H          115.05728069236841      116.88282961859747      109.29485344420137
H          114.26496495915481      118.35070101788719      109.86882744829559
H          114.85884618121720      117.77670566876787      112.20773056817903
H          115.69222991749241      116.32926522999830      111.65039149234623
H          113.53583753474200      115.47670684722793      110.70330745788219
H          112.71264760430014      116.89700413677483      111.32810845279137
H          113.33066062391946      116.26589692963728      113.64383615945147
H          114.24652108777860      114.88772255527370      113.04028089416344
H          112.16294222155865      113.92592348136904      112.07174769207238
H          111.24253826071248      115.29034074052250      112.69775978452238
H          111.86720237042795      114.66482255151097      115.01516252943817
H          112.82671724820540      113.31937674575647      114.40473299355631
H          110.75555551611235      112.36316583781952      113.35548432966633
H          109.81714042480002      113.67347724917713      114.06500040499489
H          110.72727485726124      112.91535196078527      116.34397849407553
H          111.31393073153869      111.46467195299350      115.53251979955063
H          108.41378528093352      112.41416160443177      115.57575579045526
H          109.08152442075868      111.19640801387878      116.65955854597449
H          109.55756374286749      109.71144160292495      114.73974667098679
H          108.95754828547487      110.93751262021236      113.62604327847713
H          106.73424573985554      110.86455454038276      114.78667984744985
H          107.32487814362428      109.54626448849464      115.79126377147540
H          107.67398988658529      108.15200773845565      113.75609588677126
H          107.12534952087552      109.48718948595113      112.74848134281746
H          104.91539708024136      109.44497348339786      113.93070040173347
H          105.46083156209467      108.06267002359371      114.87287486246791
H          105.74947545648354      106.75244000087604      112.76235134598585
H          105.19503619357394      108.14334681396956      111.83661151592641
H          103.01525821638565      108.07173314025023      113.07283059960362
H          103.56535413637609      106.63596479688316      113.92903123240617
H          103.79653545486978      105.43536741362544      111.74937702073407
H          103.24081040871617      106.87807484846377      110.90627265400101
H          101.07810527952911      106.75741681382556      112.17124307881291
H          101.63165843730472      105.27488176441135      112.94174631907774
H          101.82709071329589      104.19059928858913      110.70106653090264
H          101.26808115752348      105.67749002373787      109.94008472923542
H           99.11650407309845      105.50134830585338      111.20052187224410
H           99.67527446296734      103.99676849234881      111.92421583578010
H           99.86539135896565      102.98450191784077      109.64694839138781
H           99.27590746624840      104.48592359285244      108.93992069098813
H           97.14232516221934      104.24180960292453      110.20878623479047
H           97.73804036490451      102.74237798181927      110.91365442875306
H           97.91601956607758      101.74852656913956      108.62954933054451
H           97.28799642659376      103.24151520045244      107.93849317941486
H           95.17928507343716      102.95479823169066      109.22300565831019
H           95.81202382275404      101.47482949188991      109.93847226567338
H           95.94388913032880      100.43174427566618      107.67790236696665
H           94.30052693088400      100.96607656122764      108.03732299368534
H           95.32275983695452      101.91253646221450      106.95572956048743
H          117.07236029270570       99.53459442972694       97.10483160179228
H          116.48957677050902       98.85824020511683       95.58280501480662
H          118.11558969035779       99.53477084097487       95.68301329483896
C          124.75810118031299      116.15525302744811      125.47846904106686
C          124.44404774684546      117.60357268292191      125.83291423609050
C          124.16544654840568      118.44141448309571      124.58794334490528
C          123.88226387164926      119.90494170348110      124.91690202108039
C          123.48172367215379      120.69272128605999      123.67210924860369
C          123.29570422980694      122.18146042183466      123.95337382721316
C          122.94122173987451      122.98293934174185      122.69836191812884
C          121.48367885426710      122.82257921907720      122.27064240374648
C          121.17921362903351      123.60487995341236      120.99409897793919
C          119.68458515090180      123.73059837085199      120.69675600612139
C          119.00350827338515      122.39620848441790      120.40518696406160
C          117.55622320969530      122.58155987739747      119.95379996937385
C          116.89592072543670      121.24848950601523      119.61580428061917
C          115.46337714918309      121.39957704156569      119.10991668640591
C          114.93480162684726      120.08929847809726      118.53399199673736
C          113.47627484332975      120.17517880547052      118.09853583838543
C          113.02137239794018      118.91343522443630      117.36858056836117
C          111.53409101943805      118.95470098406551      117.03768783664205
C          111.07210658899841      117.76005596380149      116.20630207592396
C          109.55207430563067      117.75161832842416      116.07317043211394
C          109.03916766334851      116.74462267845992      115.04961498972409