3258
 energy: -3427.620154357036 gnorm: 0.000998126540 xtb: 6.6.1 (8d0f1dd)
C           95.31930544022636      101.30239219208111      107.85723856345152
C           95.83678809341495      102.10252468431707      109.04404882526971
C           97.26162763386742      102.60047794434898      108.82422017670301
C           97.78644549900304      103.37934890402330      110.02629225573850
C           99.22389170444406      103.84942678506754      109.82776783078084
C           99.74667582706057      104.62567473893088      111.03270559469762
C          101.19438212187981      105.06890693664145      110.84580220423936
C          101.70945423405327      105.87737802972686      112.03271058090895
C          103.15814566003549      106.31675015717100      111.84118847951795
C          103.65326824435594      107.18953228713782      112.99026687823780
C          105.10144783057041      107.63072550105434      112.79776343342971
C          105.56497188720358      108.56754231543238      113.90865590152004
C          107.01177819985557      109.02013701224831      113.73006873559521
C          107.42244743936401      110.01724717865007      114.80920763960739
C          108.84746519573032      110.53561214024090      114.63356001301881
C          109.16425316497110      111.62450252323343      115.65572755811819
C          110.55090189567227      112.24683635362366      115.49661482364995
C          110.69999036396648      113.04623776368994      114.20400491580084
C          111.94337835409121      113.93115579541364      114.20895485782302
C          112.11596806134854      114.66067750707819      112.88008536285250
C          113.37571778689001      115.51983714416804      112.84628312382431
C          113.55222438057645      116.22172992710455      111.50260500180485
C          114.85927355608486      117.00443886784363      111.43429483359034
C          115.08015949286606      117.65340185335305      110.06994666214669
C          116.42071965941872      118.38030776561841      110.02093389126921
C          116.76586521895521      118.97325320350056      108.65638162062332
C          115.86547505534703      120.12300422560185      108.20587804944245
C          115.99452382951854      121.37250380068731      109.07375973187746
C          115.25824414483803      122.57872228389054      108.49028796517305
C          113.73802421931283      122.43316287090116      108.50945516751453
C          113.04056415929762      123.69079819856987      107.99430312318947
C          111.52003897322390      123.55092225441845      108.00320307618492
C          110.82071334281589      124.86279044536749      107.65639154831339
C          109.29536238895969      124.76965683869474      107.72223926501164
C          108.67462766257020      124.02806983150265      106.54019413952697
C          107.15135642728094      123.97548227827284      106.64741213559373
C          106.50688863723913      123.38467050802996      105.39494336302101
C          104.97830547396396      123.34751412275732      105.46158765727472
C          104.44477220551040      122.25122413277960      106.38009193922915
C          102.92193380424740      122.27723899626641      106.49904728622334
C          102.41146962479517      121.10913162940541      107.34028276631720
C          100.95499043600827      121.26202496596618      107.77086123034418
C          100.50268082183406      120.07940961323466      108.62572476093483
C           99.14418359478918      120.30981905007785      109.28304280298330
C           98.70327441755438      119.10470545889945      110.11040913174278
C           97.39796717615778      119.35611335054926      110.86137687193256
C           96.89022203600871      118.11560394233031      111.59993691348269
C           96.30279479022707      117.06905819113909      110.65667909270296
C           95.88096016272385      115.79179147827681      111.37736630815208
C           95.29817845877335      114.77735367392474      110.39629082296179
C           95.01747852701187      113.42711139090368      111.05008877209315
C           94.42215865319123      112.40687169941472      110.07943021023668
C           95.44372383837033      111.88181552885594      109.07615315347614
C           94.83015284290531      110.90572926441587      108.07655772392734
C           95.83149596141898      110.53318179246347      106.98806734799503
C           95.21809959389262      109.71652793869599      105.85279790417543
C           96.18242539079807      109.64046125107176      104.67230495092856
C           95.64654417491705      108.82862563774567      103.49238574908544
C           96.31599833826509      109.21382908352632      102.17293088178977
C           97.82998624651300      109.01318117450710      102.17755052801076
C           98.48919303417543      109.65619535451489      100.96092237942500
C          100.01123001411980      109.66934690275434      101.06221418146976
C          100.64953440282618      110.50655646967095       99.95739599836627
C          102.16070386139657      110.60539153356812      100.13016828691951
C          102.81467502274860      111.51591797804224       99.09597679452105
C          104.31216258725497      111.65135209568986       99.34871799922900
C          105.01203573826757      112.54018308186670       98.32639275111612
C          106.50776540518522      112.63276478177107       98.61377491396902
C          107.25740359229160      113.42856259946853       97.54957933559426
C          108.76679704463002      113.50901517300395       97.79601531818093
C          109.45536521720155      112.15726101960496       98.00173913638234
C          109.24696815821181      111.17790018202913       96.84804916760989
C          109.74025724007596      109.77462217584176       97.19204117783030
C          109.46841307266624      108.78511527169411       96.06103214195625
C          109.61264899634747      107.33003338964066       96.50120845487815
C          109.34630978731427      106.37084016284530       95.34355962781254
C          109.25823185016169      104.91078095509776       95.78239206489221
C          109.07454695217679      103.99048895651244       94.57754966137657
C          108.94019225957400      102.51107288300841       94.93750849807215
C          107.66477887649431      102.13988866085333       95.69624533287367
C          106.37309015979227      102.52751741003242       94.97469152584149
C          105.17453165778451      101.76968566723555       95.54509564558923
C          103.82384640376962      102.25184795060237       95.01153552997184
C          103.37384380038594      103.58533182027590       95.60859091650090
C          101.94384248119114      103.93554628629464       95.20127200898635
C          101.46327486227288      105.24601519385483       95.82259421552254
C          100.02565720340370      105.56554684628347       95.41737497370345
C           99.47060303282980      106.84243596914659       96.05071199495340
C          100.21332252528303      108.10342338179521       95.61339992950228
C           99.45146647859472      109.38059772391570       95.96274010243992
C          100.23522166076097      110.62350216443572       95.54717419030980
C           99.46047726707481      111.91693406615825       95.77962304487114
C          100.15086479349364      113.14633561934467       95.18788728204174
C          101.44511173883527      113.53130612751887       95.90071830722509
C          102.04696292201726      114.80657269502746       95.31524771358826
C          103.38616675681821      115.16786697366450       95.95138512073430
C          103.98896274268830      116.42775209135054       95.33554881405824
C          105.36081710024393      116.76193113758160       95.91624657453896
C          105.96593582343425      117.99847855154258       95.25612889062387
C          107.26921095507009      118.46516183825918       95.90447072905913
C          108.44458535357190      117.51382289045684       95.69260727535837
C          109.72861488171395      118.07067181676358       96.30415452913124
C          110.94070648297023      117.18604387089296       96.02169134672330
C          112.22664773611605      117.79301327172291       96.57891877593256
C          113.49563423514678      117.08032014604784       96.11038981814575
C          113.70540078025326      115.70538561798452       96.73990816074178
C          115.03397453204330      115.09659162798135       96.29562179298225
C          115.28253115855739      113.71563562842066       96.89626048519172
C          116.56898437280464      113.08824353544949       96.36319051018690
C          116.79552642855835      111.66758724235656       96.87773474459779
C          118.04861576408413      111.04831850121290       96.26240248901959
C          118.38555346360951      109.65427845077153       96.79489009055966
C          117.43210918858114      108.55864119658173       96.31829621183518
C          117.96384945643622      107.16670951621342       96.65739097329620
C          117.06938986066992      106.04607109039775       96.13014709765164
C          117.65046642487451      104.66682580682009       96.43628565937797
C          116.79782728656870      103.53196280728956       95.87257481303020
C          117.37336347347707      102.15918880918643       96.21430496777850
C          116.54488612428389      101.02033642199079       95.62453083055183
C          117.08801347506704       99.65357483344867       96.02287794924094
H          115.51196439471661      101.11075280709149       95.96938586268990
H          116.53545183597720      101.10526991484619       94.53554097515065
H          118.39669270278418      102.09196176200973       95.83740815131192
H          117.41729350950284      102.04634644409083       97.30067888094122
H          115.78369466705358      103.60545694501265       96.27383044939559
H          116.72925578833841      103.63530829414293       94.78687312073149
H          118.65636855784409      104.60072761852817       96.01455719565665
H          117.74204508770195      104.54756092581482       97.51844111346760
H          116.07590950408810      106.12873410571537       96.57878916096415
H          116.95297954113252      106.15569445833552       95.04892017220182
H          118.96162153493070      107.05368602557493       96.22573050520607
H          118.06404837691289      107.07146194323560       97.74063193219087
H          116.44964342436661      108.69200609134072       96.77631241555933
H          117.31011221055142      108.63707890121258       95.23476479005697
H          119.39451033259549      109.39776391297772       96.46092129382626
H          118.39732426086971      109.67654438994445       97.88606526587961
H          117.92997924391213      110.99853835563772       95.17701085883331
H          118.89465225973598      111.70975100413709       96.46764117162132
H          116.90539637861606      111.69127582996246       97.96337871333220
H          115.92321737508149      111.05597844945535       96.64192093050781
H          116.53112856531682      113.06908605055995       95.27052328064966
H          117.41858344306006      113.71437252643977       96.64696093769167
H          115.34343876166282      113.80425477791729       97.98267246790829
H          114.43713889318920      113.06322671356581       96.66631827340667
H          115.04437763748402      115.02099076927688       95.20494803894124
H          115.85022579819628      115.76449490074813       96.58205710220795
H          113.69441569437768      115.80052633918166       97.82798414831638
H          112.89010845229960      115.03897785437167       96.45326729841607
H          113.46753773536885      116.97768313599397       95.02274109571999
H          114.35780800287934      117.70517118271135       96.35651283193714
H          112.28052238055199      118.83564117268783       96.25319220677898
H          112.18885664473937      117.78896225659996       97.67054753012562
H          110.77639537992108      116.19793178488531       96.45401157574102
H          111.04444560111250      117.06366741534607       94.94114154211120
H          109.91337151208438      119.06687322123459       95.89383700057299
H          109.59990314166446      118.18000582821128       97.38334304923663
H          108.22707557482323      116.54163209674174       96.13789627053798
H          108.59319527978926      117.36005053226437       94.62119328353801
H          107.53471975810331      119.44011453359161       95.48758168627674
H          107.10808911768423      118.60210498388273       96.97464673435046
H          106.14121101862395      117.79265560655456       94.19734564920876
H          105.23968864934999      118.81304351301520       95.31502025524797
H          105.26523550910714      116.93768802079765       96.99053261275556
H          106.02486864249006      115.90814424807347       95.77244609691557
H          104.08328988841471      116.28795487922170       94.25639504948045
H          103.31167655983576      117.26869600952766       95.50055971216858
H          103.24716579665647      115.31890038750836       97.02484846364641
H          104.08125010191068      114.33517738700839       95.82237168464910
H          102.18792169411725      114.67328736605467       94.23949568097954
H          101.34685510447275      115.63367211147505       95.45304374006768
H          101.24210673449727      113.67927040975802       96.96348170836025
H          102.17276181626946      112.72255652505291       95.81304899387018
H          100.36276043922878      112.96389505259290       94.13110786954337
H           99.46267710429427      113.99399010376825       95.23957837647079
H           98.47422200275372      111.81903793233082       95.31876181121757
H           99.31311697179167      112.06292895373279       96.85060698415964
H          101.16864042816674      110.65382449455392       96.11229877588347
H          100.48627820057108      110.54373234836689       94.48639138577167
H           98.48365369509673      109.37514074839702       95.45542845887445
H           99.25605376471108      109.41055566243654       97.03745613737416
H          101.19558190707681      108.13513407382789       96.08778123463760
H          100.36741820478127      108.07188075435214       94.53193621281733
H           98.42020971541729      106.93684427568051       95.76292206350324
H           99.50638244109334      106.75837706603883       97.13885597887962
H           99.97487245979059      105.65731431285565       94.32949171927635
H           99.38601682735039      104.72598123198448       95.70355480306961
H          101.52664005308607      105.17494178058473       96.91150846482759
H          102.12240416635508      106.05476541015322       95.50236537406856
H          101.88509089855611      104.01057529887136       94.11269383547985
H          101.27626051468005      103.12712677409112       95.51045765569540
H          103.42622930340454      103.52497737311506       96.69791033837429
H          104.04479299685858      104.38426100278528       95.28705130109867
H          103.86882020879662      102.33483630030800       93.92316704784018
H          103.06934700779833      101.49812896588833       95.25137199585750
H          105.29057768810020      100.70925345939767       95.30638727789091
H          105.17588533155217      101.86043643020891       96.63190870433237
H          106.20680890934784      103.60044171803446       95.07407230361304
H          106.46654326225814      102.29942713342668       93.91020902295529
H          107.66930222393196      101.05622005004858       95.84218211531075
H          107.67698422634734      102.60125572973006       96.68519339860740
H          108.97532583158952      101.92876556791410       94.01307728169442
H          109.80014822732348      102.21623121883050       95.54595556543372
H          108.19571042204615      104.30752951972140       94.01347784651524
H          109.93936358458690      104.10532024963018       93.91910237896015
H          110.16688006807819      104.63187767593874       96.32253413703152
H          108.41764912840902      104.79503942430551       96.46938921060848
H          108.40558893664051      106.64891555090060       94.86024688958648
H          110.13777540234599      106.47770873827152       94.59850148364404
H          110.61543824508134      107.16021422386076       96.89933762798002
H          108.90235896874226      107.12972533734001       97.30640309430730
H          108.44980721715523      108.93759161333311       95.69401469736428
H          110.14986830385524      108.98543109193407       95.23120353579739
H          110.80784067699526      109.79695404118726       97.41656001123802
H          109.22530067437789      109.43502503188874       98.09504975680737
H          108.18457909995708      111.11170075724638       96.60980610580954
H          109.76141132841229      111.54373771201365       95.95739725141112
H          110.52569833918692      112.33050911927516       98.13549241753536
H          109.09053319367968      111.70619366435579       98.92694619870279
H          109.22688734247313      114.01984141689360       96.94538347671393
H          108.94867419898485      114.12273766488714       98.68210238561832
H          107.06943333448767      112.98346511638739       96.56965443274535
H          106.85700418944020      114.44521909764948       97.52039036790374
H          106.66146128384490      113.09940754404182       99.58921981981197
H          106.90791376577823      111.61949659537619       98.66585416206163
H          104.85800480702204      112.12808804913534       97.32565068775236
H          104.56878207076457      113.53755942092766       98.34256981593363
H          104.46812728407063      112.06594278170263      100.34739785168082
H          104.76840758836609      110.65816653234552       99.32774237905177
H          102.64503798651053      111.11438773103096       98.09419748079941
H          102.34854455892761      112.50304667381950       99.13642392039715
H          102.37554542908730      110.99486201684982      101.12878011884025
H          102.59881550663455      109.60598901064610      100.06685808078993
H          100.41949068004153      110.06975019473424       98.98318328569815
H          100.22034129097968      111.51196500937996       99.97976460762131
H          100.29931512970320      110.08613122509256      102.03140428951900
H          100.39728465333422      108.64812100950411      101.01772855762171
H           98.18785966304353      109.12835648734900      100.05371324284005
H           98.13458801743018      110.68662633855068      100.87406920779790
H           98.25288081372197      109.46791495400825      103.07459943943446
H           98.06088850591864      107.94603657000226      102.20736159061316
H           95.87839716484430      108.62920916799698      101.36067665553597
H           96.10209630862623      110.26683122043396      101.96958862648121
H           95.79239910946769      107.76422490775343      103.67897926058923
H           94.57209997438022      109.00476998187396      103.39582952745639
H           96.38432755756678      110.66034497792850      104.33422776816963
H           97.12713788219440      109.21495415533674      105.01777862366394
H           94.96878769100634      108.71351373562061      106.20439691318782
H           94.28815608709905      110.18970899099091      105.52597609736790
H           96.24361048355674      111.45411388862668      106.56916023466664
H           96.66219366257705      109.97913794303517      107.42929133280271
H           94.48612011556912      110.00713014365576      108.59434539121642
H           93.95778050071111      111.37464547828223      107.61515364803722
H           95.86863764364405      112.71975397934659      108.52025172761662
H           96.26128106945625      111.39185834986573      109.61190285399438
H           94.02061254442067      111.56360190849257      110.64476788166307
H           93.59283463135058      112.86676921150442      109.53853998943138
H           95.94610423278387      113.02851774083817      111.46530434312352
H           94.32449021458669      113.57732499096998      111.88109136982531
H           94.37195373927069      115.17755260509188      109.97580948108573
H           96.00364775782393      114.64693082412134      109.57334403320930
H           96.75059053595609      115.35477408619731      111.87479916289166
H           95.14264435117198      116.02703168580928      112.14798865840199
H           95.43708626832405      117.49451449202628      110.14294393715763
H           97.04066548580509      116.80370262286728      109.89796468406561
H           97.71279806559023      117.67423339119020      112.16702989147822
H           96.12228730182807      118.41466658280578      112.31720977594455
H           97.56040815305236      120.16059536256748      111.58240484318405
H           96.63183131636150      119.69484956849195      110.15937900641308
H           98.58442499544113      118.24658662691714      109.44776179583552
H           99.48450649373201      118.85514275931382      110.83110319926342
H           99.20349748837369      121.18909714552314      109.92880981434010
H           98.39606532907132      120.51496301789656      108.51348261310774
H          100.45965943146659      119.18320621761004      108.00480796011870
H          101.24661785509221      119.90102632198605      109.40577046941328
H          100.85042271612163      122.18398144641286      108.34769417062164
H          100.31332915639146      121.34894893137712      106.89099562548763
H          102.53006560596531      120.17813280187129      106.78001590054988
H          103.02930968450661      121.03039111361915      108.23694357606497
H          102.61687369087741      123.21782403563510      106.96388575521345
H          102.47277381722365      122.24019141906896      105.50393651257170
H          104.75948143280515      121.27876280259994      105.99415653512700
H          104.87356936301391      122.36583563913759      107.37732757234716
H          104.60998273763430      124.31818019235784      105.80231173288271
H          104.58271253997269      123.18177858082781      104.45633913153802
H          106.80696761988432      123.98979210576383      104.53549477220393
H          106.88639234775111      122.37410762991813      105.23267870337378
H          106.87648831599027      123.38496989130911      107.52364444347495
H          106.76851216018930      124.98779955995356      106.79973380826515
H          108.95371010044515      124.53579874867896      105.61352262354369
H          109.06728511024083      123.01051513437589      106.48877275892652
H          109.00586016266327      124.27578692625511      108.65213062201039
H          108.88301209238622      125.78160176125273      107.74706084758836
H          111.15528337584408      125.62651166844006      108.36313249239240
H          111.12220421513463      125.18549995673315      106.65709172201881
H          111.22587608208248      122.77118398206204      107.29807992102837
H          111.19732401270637      123.23368463352806      108.99765585014833
H          113.32572391056355      124.54250939575273      108.61761693445735
H          113.37957714000515      123.90369626602502      106.97744181323343
H          113.43821359919264      121.58334595180919      107.89331349532431
H          113.41072459349439      122.23324501606781      109.53346071250991
H          115.53177292737823      123.46576147878618      109.06791840545792
H          115.59209355587508      122.74331938599779      107.46300023249063
H          115.61182757610759      121.17547034011777      110.07620708405949
H          117.05389857021973      121.62404936017191      109.16613161828629
H          116.14023354373569      120.38770268272998      107.18265837655829
H          114.82797897148639      119.78856281789366      108.18912078281035
H          117.79777878916846      119.33168882367870      108.68609342067946
H          116.71775512213297      118.17511166548530      107.91055813876594
H          116.43433639206920      119.16627837615876      110.77696398234211
H          117.20323179029656      117.66401728530842      110.28289270539814
H          115.05715391307862      116.88302662340755      109.29559169002128
H          114.26468864715872      118.35078360917080      109.86966578694613
H          114.85795255356695      117.77633113841311      112.20834884688958
H          115.69171758100795      116.32935497017597      111.65082793826367
H          113.53527906652700      115.47701307317745      110.70349530158663
H          112.71263857459027      116.89728477658930      111.32884432533946
H          113.33037766787585      116.26611163664467      113.64357603849389
H          114.24619422275161      114.88787294482870      113.04037543196736
H          112.16270917345662      113.92620282699416      112.07200677305666
H          111.24259457231123      115.29057601964797      112.69832678129205
H          111.86629541561618      114.66496149650048      115.01473574461220
H          112.82622339422984      113.31952233395089      114.40483986519486
H          110.75512591415618      112.36371034244355      113.35495496205999
H          109.81711195209185      113.67391096857399      114.06497095490887
H          110.72678847240020      112.91584980132340      116.34293620554266
H          111.31325917904094      111.46491918893312      115.53164375091710
H          108.41363336100203      112.41474954085238      115.57466089633743
H          109.08122907917843      111.19688337186818      116.65866740184894
H          109.55709008950856      109.71198356619075      114.73989739698901
H          108.95731710574708      110.93753299149046      113.62570259134741
H          106.73409246719200      110.86477662577089      114.78617281868387
H          107.32502366816595      109.54667002839163      115.79088393865932
H          107.67375810068111      108.15224322688489      113.75659775120417
H          107.12535588735111      109.48708394481410      112.74869045989796
H          104.91549429737159      109.44515601071910      113.93029844321224
H          105.46088360436617      108.06291393163976      114.87263592071305
H          105.74936088830187      106.75256459115819      112.76288042898034
H          105.19518237709327      108.14322053128333      111.83691317441622
H          103.01548287649496      108.07196733231787      113.07255295380327
H          103.56551146296958      106.63618335662419      113.92880969727274
H          103.79644394014252      105.43549086939032      111.74993623269026
H          103.24100630218948      106.87799829089371      110.90658018325036
H          101.07831522156890      106.75765332172502      112.17109606267671
H          101.63193329493569      105.27511659637537      112.94155953892925
H          101.82705203821114      104.19071002475312      110.70169836895437
H          101.26832645176904      105.67743770365311      109.94042427091658
H           99.11675845621191      105.50159496994637      111.20051075718595
H           99.67564890518378      103.99704011206968      111.92412619987323
H           99.86542108865216      102.98459273405999      109.64770899009164
H           99.27626554858281      104.48589605858086      108.94033507595771
H           97.14266055145038      104.24210686176484      110.20895084171651
H           97.73852737183854      102.74275675025362      110.91373448574396
H           97.91610153418016      101.74863489974076      108.63047276236009
H           97.28839401216561      103.24149313833469      107.93905167023162
H           95.17967649289346      102.95510258491487      109.22337742844043
H           95.81274805988910      101.47539278355974      109.93901079768060
H           95.94470696845754      100.43178117092616      107.67916879100206
H           94.30094306702310      100.96556638250895      108.03866450881050
H           95.32280824361247      101.91230250610329      106.95659026904778
H          117.07199361653865       99.53472053995175       97.10472656571262
H          116.48909326805064       98.85931031916472       95.58226040101066
H          118.11458025200166       99.53668061380746       95.68262829379059
C          124.75685928106617      116.15627103953832      125.47765392075240
C          124.44331361732874      117.60457286839160      125.83227741823225
C          124.16479225214006      118.44233610428736      124.58728111033044
C          123.88227774859382      119.90589944092942      124.91682106571376
C          123.48141996304997      120.69328444873265      123.67186328104565
C          123.29542898232631      122.18202724848702      123.95316568227668
C          122.94126836410234      122.98322117063719      122.69806816132565
C          121.48359325014079      122.82262739632560      122.27061862342553
C          121.17971239842241      123.60498830915085      120.99387615015934
C          119.68514464094552      123.73140638930006      120.69679359064982
C          119.00404491789314      122.39676004553633      120.40540468981058
C          117.55664209286211      122.58300598433658      119.95402926978264
C          116.89639546801834      121.24952609397964      119.61631446199654
C          115.46361916101397      121.40101480772304      119.11024680860615
C          114.93514145578995      120.09011164031378      118.53473727842035
C          113.47630147005596      120.17641634898867      118.09911980476571
C          113.02157893280912      118.91408182616581      117.36930429090630
C          111.53389875494877      118.95602180183552      117.03850299801179
C          111.07208002184834      117.76076960502107      116.20723298484023
C          109.55165494450155      117.75279832757224      116.07435714403488
C          109.03911107932691      116.74513212997418      115.05073262174363