      -----------------------------------------------------------      
     |                   =====================                   |     
     |                           x T B                           |     
     |                   =====================                   |     
     |                         S. Grimme                         |     
     |          Mulliken Center for Theoretical Chemistry        |     
     |                    University of Bonn                     |     
      -----------------------------------------------------------      

   * xtb version 6.6.1 (8d0f1dd) compiled by 'stahn@M-Bot' on 2023-08-01

   xtb is free software: you can redistribute it and/or modify it under
   the terms of the GNU Lesser General Public License as published by
   the Free Software Foundation, either version 3 of the License, or
   (at your option) any later version.
   
   xtb is distributed in the hope that it will be useful,
   but WITHOUT ANY WARRANTY; without even the implied warranty of
   MERCHANTABILITY or FITNESS FOR A PARTICULAR PURPOSE.  See the
   GNU Lesser General Public License for more details.
   
   Cite this work as:
   * C. Bannwarth, E. Caldeweyher, S. Ehlert, A. Hansen, P. Pracht,
     J. Seibert, S. Spicher, S. Grimme, WIREs Comput. Mol. Sci., 2020, 11,
     e01493. DOI: 10.1002/wcms.1493
   
   for GFN2-xTB:
   * C. Bannwarth, S. Ehlert and S. Grimme., J. Chem. Theory Comput., 2019,
     15, 1652-1671. DOI: 10.1021/acs.jctc.8b01176
   for GFN1-xTB:
   * S. Grimme, C. Bannwarth, P. Shushkov, J. Chem. Theory Comput., 2017,
     13, 1989-2009. DOI: 10.1021/acs.jctc.7b00118
   for GFN0-xTB:
   * P. Pracht, E. Caldeweyher, S. Ehlert, S. Grimme, ChemRxiv, 2019, preprint.
     DOI: 10.26434/chemrxiv.8326202.v1
   for GFN-FF:
   * S. Spicher and S. Grimme, Angew. Chem. Int. Ed., 2020, 59, 15665-15673.
     DOI: 10.1002/anie.202004239
   
   for ALPB and GBSA implicit solvation:
   * S. Ehlert, M. Stahn, S. Spicher, S. Grimme, J. Chem. Theory Comput.,
     2021, 17, 4250-4261. DOI: 10.1021/acs.jctc.1c00471
   
   for DFT-D4:
   * E. Caldeweyher, C. Bannwarth and S. Grimme, J. Chem. Phys., 2017,
     147, 034112. DOI: 10.1063/1.4993215
   * E. Caldeweyher, S. Ehlert, A. Hansen, H. Neugebauer, S. Spicher,
     C. Bannwarth and S. Grimme, J. Chem. Phys., 2019, 150, 154122.
     DOI: 10.1063/1.5090222
   * E. Caldeweyher, J.-M. Mewes, S. Ehlert and S. Grimme, Phys. Chem. Chem. Phys.
     2020, 22, 8499-8512. DOI: 10.1039/D0CP00502A
   
   for sTDA-xTB:
   * S. Grimme and C. Bannwarth, J. Chem. Phys., 2016, 145, 054103.
     DOI: 10.1063/1.4959605
   
   in the mass-spec context:
   * V. Asgeirsson, C. Bauer and S. Grimme, Chem. Sci., 2017, 8, 4879.
     DOI: 10.1039/c7sc00601b
   * J. Koopman and S. Grimme, ACS Omega 2019, 4, 12, 15120-15133.
     DOI: 10.1021/acsomega.9b02011
   
   for metadynamics refer to:
   * S. Grimme, J. Chem. Theory Comput., 2019, 155, 2847-2862
     DOI: 10.1021/acs.jctc.9b00143
   
   for SPH calculations refer to:
   * S. Spicher and S. Grimme, J. Chem. Theory Comput., 2021, 17, 1701-1714
     DOI: 10.1021/acs.jctc.0c01306
   
   with help from (in alphabetical order)
   P. Atkinson, C. Bannwarth, F. Bohle, G. Brandenburg, E. Caldeweyher
   M. Checinski, S. Dohm, S. Ehlert, S. Ehrlich, I. Gerasimov, C. Hölzer
   A. Katbashev, J. Koopman, C. Lavigne, S. Lehtola, F. März, M. Müller,
   F. Musil, H. Neugebauer, J. Pisarek, C. Plett, P. Pracht, F. Pultar,
   J. Seibert, P. Shushkov, S. Spicher, M. Stahn, M. Steiner, T. Strunk,
   J. Stückrath, T. Rose, and J. Unsleber
   
 * started run on 2024/10/03 at 21:22:59.670     

           -------------------------------------------------
          |                Calculation Setup                |
           -------------------------------------------------

          program call               : /home/abt-grimme/AK-bin/xtb input.xyz --input input.inp --opt
          hostname                   : boar013.thch.uni-bonn.de
          coordinate file            : input.xyz
          omp threads                :                     8

   ID    Z sym.   atoms
    1    6 C      1-120, 363-482, 725-844, 1087-1206, 1449-1568, 1811-1930,
                  2173-2292, 2535-2654, 2897-3016
    2    1 H      121-362, 483-724, 845-1086, 1207-1448, 1569-1810,
                  1931-2172, 2293-2534, 2655-2896, 3017-3258

molecular fragmentation (1/2 indicates fragments):
111111111111111111111111111111111111111111111111111111111111111111111111
111111111111111111111111111111111111111111111111111111111111111111111111
111111111111111111111111111111111111111111111111111111111111111111111111
111111111111111111111111111111111111111111111111111111111111111111111111
111111111111111111111111111111111111111111111111111111111111111111111111
112222222222222222222222222222222222222222222222222222222222222222222222
222222222222222222222222222222222222222222222222222222222222222222222222
222222222222222222222222222222222222222222222222222222222222222222222222
222222222222222222222222222222222222222222222222222222222222222222222222
222222222222222222222222222222222222222222222222222222222222222222222222
222222222222222222222222222222222222222222222222222222222222222222222222
222222222222222222222222222222222222222222222222222222222222222222222222
222222222222222222222222222222222222222222222222222222222222222222222222
222222222222222222222222222222222222222222222222222222222222222222222222
222222222222222222222222222222222222222222222222222222222222222222222222
222222222222222222222222222222222222222222222222222222222222222222222222
222222222222222222222222222222222222222222222222222222222222222222222222
222222222222222222222222222222222222222222222222222222222222222222222222
222222222222222222222222222222222222222222222222222222222222222222222222
222222222222222222222222222222222222222222222222222222222222222222222222
222222222222222222222222222222222222222222222222222222222222222222222222
222222222222222222222222222222222222222222222222222222222222222222222222
222222222222222222222222222222222222222222222222222222222222222222222222
222222222222222222222222222222222222222222222222222222222222222222222222
222222222222222222222222222222222222222222222222222222222222222222222222
222222222222222222222222222222222222222222222222222222222222222222222222
222222222222222222222222222222222222222222222222222222222222222222222222
222222222222222222222222222222222222222222222222222222222222222222222222
222222222222222222222222222222222222222222222222222222222222222222222222
222222222222222222222222222222222222222222222222222222222222222222222222
222222222222222222222222222222222222222222222222222222222222222222222222
222222222222222222222222222222222222222222222222222222222222222222222222
222222222222222222222222222222222222222222222222222222222222222222222222
222222222222222222222222222222222222222222222222222222222222222222222222
222222222222222222222222222222222222222222222222222222222222222222222222
222222222222222222222222222222222222222222222222222222222222222222222222
222222222222222222222222222222222222222222222222222222222222222222222222
222222222222222222222222222222222222222222222222222222222222222222222222
222222222222222222222222222222222222222222222222222222222222222222222222
222222222222222222222222222222222222222222222222222222222222222222222222
222222222222222222222222222222222222222222222222222222222222222222222222
222222222222222222222222222222222222222222222222222222222222222222222222
222222222222222222222222222222222222222222222222222222222222222222222222
222222222222222222222222222222222222222222222222222222222222222222222222
222222222222222222222222222222222222222222222222222222222222222222222222
222222222222222222
# atoms in fragment 1/2:   362  2896
 fragment masses (1/2) :     1685.21    13481.68
CMA distance (Bohr)    :   9.505
constraining FC (au)   :  0.0500

           -------------------------------------------------
          |                 G F N 2 - x T B                 |
           -------------------------------------------------

        Reference                      10.1021/acs.jctc.8b01176
      * Hamiltonian:
        H0-scaling (s, p, d)           1.850000    2.230000    2.230000
        zeta-weighting                 0.500000
      * Dispersion:
        s8                             2.700000
        a1                             0.520000
        a2                             5.000000
        s9                             5.000000
      * Repulsion:
        kExp                           1.500000    1.000000
        rExp                           1.000000
      * Coulomb:
        alpha                          2.000000
        third order                    shell-resolved
        anisotropic                    true
        a3                             3.000000
        a5                             4.000000
        cn-shift                       1.200000
        cn-exp                         4.000000
        max-rad                        5.000000


          ...................................................
          :                      SETUP                      :
          :.................................................:
          :  # basis functions                6498          :
          :  # atomic orbitals                6498          :
          :  # shells                         4338          :
          :  # electrons                      6498          :
          :  max. iterations                   250          :
          :  Hamiltonian                  GFN2-xTB          :
          :  restarted?                      false          :
          :  GBSA solvation                  false          :
          :  PC potential                    false          :
          :  electronic temp.          300.0000000     K    :
          :  accuracy                    1.0000000          :
          :  -> integral cutoff          0.2500000E+02      :
          :  -> integral neglect         0.1000000E-07      :
          :  -> SCF convergence          0.1000000E-05 Eh   :
          :  -> wf. convergence          0.1000000E-03 e    :
          :  Broyden damping             0.4000000          :
          ...................................................

 iter      E             dE          RMSdq      gap      omega  full diag
   1  -3473.6274436 -0.347363E+04  0.244E+00   11.34       0.0  T
   2  -3478.6653530 -0.503791E+01  0.135E+00   11.47       1.0  T
   3  -3478.8726176 -0.207265E+00  0.595E-01   11.44       1.0  T
   4  -3478.8930992 -0.204816E-01  0.752E-02   11.48       1.0  T
   5  -3478.8941224 -0.102318E-02  0.392E-02   11.48       1.0  T
   6  -3478.8943344 -0.211949E-03  0.662E-03   11.47       1.0  T
   7  -3478.8943514 -0.170146E-04  0.123E-03   11.47       1.4  T
   8  -3478.8943525 -0.109694E-05  0.391E-04   11.48       4.5  T
   9  -3478.8943526 -0.662812E-07  0.143E-04   11.48      12.3  T
  10  -3478.8943526 -0.382715E-08  0.418E-05   11.48      41.9  T

   *** convergence criteria satisfied after 10 iterations ***

         #    Occupation            Energy/Eh            Energy/eV
      -------------------------------------------------------------
         1        2.0000           -0.6252655             -17.0143
       ...           ...                  ...                  ...
      3243        2.0000           -0.4021049             -10.9418
      3244        2.0000           -0.4020143             -10.9394
      3245        2.0000           -0.4018808             -10.9357
      3246        2.0000           -0.4017927             -10.9333
      3247        2.0000           -0.4015383             -10.9264
      3248        2.0000           -0.4013353             -10.9209
      3249        2.0000           -0.4005000             -10.8982 (HOMO)
      3250                          0.0212537               0.5783 (LUMO)
      3251                          0.0214408               0.5834
      3252                          0.0217745               0.5925
      3253                          0.0220495               0.6000
      3254                          0.0222981               0.6068
       ...                                ...                  ...
      6498                          0.3873524              10.5404
      -------------------------------------------------------------
                  HL-Gap            0.4217537 Eh           11.4765 eV
             Fermi-level           -0.1896232 Eh           -5.1599 eV

 SCC (total)                   0 d,  0 h, 14 min, 23.759 sec
 SCC setup                      ...        0 min,  0.433 sec (  0.050%)
 Dispersion                     ...        0 min,  3.602 sec (  0.417%)
 classical contributions        ...        0 min,  0.139 sec (  0.016%)
 integral evaluation            ...        0 min,  6.053 sec (  0.701%)
 iterations                     ...       10 min, 27.921 sec ( 72.696%)
 molecular gradient             ...        3 min, 37.159 sec ( 25.141%)
 printout                       ...        0 min,  8.453 sec (  0.979%)

         :::::::::::::::::::::::::::::::::::::::::::::::::::::
         ::                     SUMMARY                     ::
         :::::::::::::::::::::::::::::::::::::::::::::::::::::
         :: total energy           -3427.615190223341 Eh    ::
         :: gradient norm              0.019194456736 Eh/a0 ::
         :: HOMO-LUMO gap             11.476501067693 eV    ::
         ::.................................................::
         :: SCC energy             -3478.894352563797 Eh    ::
         :: -> isotropic ES            0.415170934194 Eh    ::
         :: -> anisotropic ES          1.120346725121 Eh    ::
         :: -> anisotropic XC          1.946983775035 Eh    ::
         :: -> dispersion             -4.093818367488 Eh    ::
         :: repulsion energy          50.612705766788 Eh    ::
         :: add. restraining           0.000000000000 Eh    ::
         :: total charge              -0.000000000012 e     ::
         :::::::::::::::::::::::::::::::::::::::::::::::::::::

      ----------------------------------------------------------- 
     |              Fast Inertial Relaxation Engine              |
      ----------------------------------------------------------- 

          ...................................................
          :                      SETUP                      :
          :.................................................:
          :   energy convergence        0.5000000E-05 Eh    :
          :   grad. convergence         0.1000000E-02 Eh/a0 :
          :   optimization log               true           :
          :   writing optlog all                1     steps :
          :   Hessian reset                    20     steps :
          :   time step scaling                 5     steps :
          :   maximium step len.        1.0000000     a0    :
          :   initial time step         0.2500000     fs    :
          :   maximum time step         1.2500000     fs    :
          :   power reset thr           0.0000000     au    :
          :   alpha parameter           0.1000000           :
          :   BFGS update                   false           :
          :   preconditioning               false           :
          ...................................................

........................................................................
.............................. CYCLE    1 ..............................
........................................................................

 iter      E             dE          RMSdq      gap      omega  full diag
   1  -3478.8980656 -0.347890E+04  0.282E-04   11.48       0.0  T
   2  -3478.8980656 -0.309287E-07  0.160E-04   11.48      10.9  T
   3  -3478.8980656 -0.570253E-09  0.510E-05   11.48      34.4  T
     SCC iter.                  ...        3 min,  0.688 sec
     gradient                   ...        3 min, 38.253 sec
 * total energy  : -3427.6152316 Eh     change    :  -0.4139216E-04 Eh
   gradient norm :     0.0176353 Eh/a0  converged?    E=F G=F D=F
   time step     :     0.2500000 fs     power     :   0.2105189E-08
   step length   :     0.0022495 a0     speed     :   0.2176560E-03

........................................................................
.............................. CYCLE    2 ..............................
........................................................................

 iter      E             dE          RMSdq      gap      omega  full diag
   1  -3478.9034692 -0.347890E+04  0.408E-04   11.48       0.0  T
   2  -3478.9034693 -0.646751E-07  0.232E-04   11.48       7.6  T
   3  -3478.9034693 -0.145474E-08  0.738E-05   11.48      23.7  T
     SCC iter.                  ...        2 min, 57.206 sec
     gradient                   ...        3 min, 36.847 sec
 * total energy  : -3427.6152858 Eh     change    :  -0.5419439E-04 Eh
   gradient norm :     0.0153920 Eh/a0  converged?    E=F G=F D=F
   time step     :     0.2500000 fs     power     :   0.2678359E-08
   step length   :     0.0032828 a0     speed     :   0.3176262E-03

........................................................................
.............................. CYCLE    3 ..............................
........................................................................

 iter      E             dE          RMSdq      gap      omega  full diag
   1  -3478.9103257 -0.347891E+04  0.518E-04   11.48       0.0  T
   2  -3478.9103258 -0.104058E-06  0.295E-04   11.48       5.9  T
   3  -3478.9103258 -0.237105E-08  0.935E-05   11.48      18.7  T
     SCC iter.                  ...        3 min,  2.649 sec
     gradient                   ...        3 min, 35.936 sec
 * total energy  : -3427.6153442 Eh     change    :  -0.5842144E-04 Eh
   gradient norm :     0.0125892 Eh/a0  converged?    E=F G=F D=F
   time step     :     0.2500000 fs     power     :   0.2780563E-08
   step length   :     0.0041836 a0     speed     :   0.4047826E-03

........................................................................
.............................. CYCLE    4 ..............................
........................................................................

 iter      E             dE          RMSdq      gap      omega  full diag
   1  -3478.9183288 -0.347892E+04  0.607E-04   11.48       0.0  T
   2  -3478.9183289 -0.141195E-06  0.346E-04   11.48       5.1  T
   3  -3478.9183289 -0.311456E-08  0.109E-04   11.48      16.1  T
     SCC iter.                  ...        3 min,  3.834 sec
     gradient                   ...        3 min, 36.849 sec
 * total energy  : -3427.6153978 Eh     change    :  -0.5359151E-04 Eh
   gradient norm :     0.0094259 Eh/a0  converged?    E=F G=F D=F
   time step     :     0.2500000 fs     power     :   0.2409215E-08
   step length   :     0.0049166 a0     speed     :   0.4757028E-03

........................................................................
.............................. CYCLE    5 ..............................
........................................................................

 iter      E             dE          RMSdq      gap      omega  full diag
   1  -3478.9271023 -0.347893E+04  0.669E-04   11.48       0.0  T
   2  -3478.9271025 -0.168493E-06  0.381E-04   11.48       4.6  T
   3  -3478.9271025 -0.381351E-08  0.118E-04   11.48      14.8  T
     SCC iter.                  ...        2 min, 58.855 sec
     gradient                   ...        3 min, 37.768 sec
 * total energy  : -3427.6154388 Eh     change    :  -0.4098380E-04 Eh
   gradient norm :     0.0062721 Eh/a0  converged?    E=F G=F D=F
   time step     :     0.2500000 fs     power     :   0.1649301E-08
   step length   :     0.0054515 a0     speed     :   0.5274623E-03

........................................................................
.............................. CYCLE    6 ..............................
........................................................................

 iter      E             dE          RMSdq      gap      omega  full diag
   1  -3478.9371078 -0.347894E+04  0.772E-04   11.48       0.0  T
   2  -3478.9371080 -0.215891E-06  0.441E-04   11.48       4.0  T
   3  -3478.9371080 -0.505497E-08  0.133E-04   11.48      13.2  T
     SCC iter.                  ...        2 min, 59.040 sec
     gradient                   ...        3 min, 36.838 sec
 * total energy  : -3427.6154634 Eh     change    :  -0.2463834E-04 Eh
   gradient norm :     0.0040502 Eh/a0  converged?    E=F G=F D=F
   time step     :     0.2750000 fs     power     :   0.5667581E-09
   step length   :     0.0063610 a0     speed     :   0.5595138E-03

........................................................................
.............................. CYCLE    7 ..............................
........................................................................

 iter      E             dE          RMSdq      gap      omega  full diag
   1  -3478.9472606 -0.347895E+04  0.814E-04   11.48       0.0  T
   2  -3478.9472609 -0.215035E-06  0.467E-04   11.48       3.8  T
   3  -3478.9472609 -0.515365E-08  0.129E-04   11.48      13.5  T
     SCC iter.                  ...        2 min, 55.687 sec
     gradient                   ...        3 min, 37.572 sec
 * total energy  : -3427.6154660 Eh     change    :  -0.2597787E-05 Eh
   gradient norm :     0.0052630 Eh/a0  converged?    E=T G=F D=F
   time step     :     0.3025000 fs     power     :  -0.4713967E-09
   step length   :     0.0068416 a0     speed     :   0.5470749E-03

........................................................................
.............................. CYCLE    8 ..............................
........................................................................
 * reset velocities

 iter      E             dE          RMSdq      gap      omega  full diag
   1  -3478.9471345 -0.347895E+04  0.142E-05   11.48       0.0  T
   2  -3478.9471345 -0.170076E-09  0.762E-06   11.48     230.0  T
   3  -3478.9471345  0.322871E-10  0.336E-06   11.48     521.5  T
     SCC iter.                  ...        2 min, 59.266 sec
     gradient                   ...        3 min, 37.391 sec
 * total energy  : -3427.6154666 Eh     change    :  -0.5918214E-06 Eh
   gradient norm :     0.0051968 Eh/a0  converged?    E=T G=F D=T
   time step     :     0.1512500 fs     power     :   0.5146544E-10
   step length   :     0.0001129 a0     speed     :   0.1805323E-04

........................................................................
.............................. CYCLE    9 ..............................
........................................................................

 iter      E             dE          RMSdq      gap      omega  full diag
   1  -3478.9468841 -0.347895E+04  0.288E-05   11.48       0.0  T
   2  -3478.9468841 -0.187356E-09  0.167E-05   11.48     104.7  T
   3  -3478.9468841  0.136424E-11  0.416E-06   11.48     421.3  T
     SCC iter.                  ...        3 min,  0.437 sec
     gradient                   ...        3 min, 42.908 sec
 * total energy  : -3427.6154678 Eh     change    :  -0.1152153E-05 Eh
   gradient norm :     0.0050743 Eh/a0  converged?    E=T G=F D=T
   time step     :     0.1512500 fs     power     :   0.9985936E-10
   step length   :     0.0002243 a0     speed     :   0.3587897E-04

........................................................................
.............................. CYCLE   10 ..............................
........................................................................

 iter      E             dE          RMSdq      gap      omega  full diag
   1  -3478.9465153 -0.347895E+04  0.423E-05   11.48       0.0  T
   2  -3478.9465153 -0.450200E-09  0.246E-05   11.48      71.3  T
   3  -3478.9465153 -0.318323E-11  0.614E-06   11.48     285.1  T
     SCC iter.                  ...        2 min, 59.309 sec
     gradient                   ...        3 min, 36.917 sec
 * total energy  : -3427.6154694 Eh     change    :  -0.1660587E-05 Eh
   gradient norm :     0.0048958 Eh/a0  converged?    E=T G=F D=T
   time step     :     0.1512500 fs     power     :   0.1430273E-09
   step length   :     0.0003332 a0     speed     :   0.5328290E-04

........................................................................
.............................. CYCLE   11 ..............................
........................................................................

 iter      E             dE          RMSdq      gap      omega  full diag
   1  -3478.9460363 -0.347895E+04  0.555E-05   11.48       0.0  T
   2  -3478.9460363 -0.739874E-09  0.322E-05   11.48      54.4  T
   3  -3478.9460363 -0.118234E-10  0.802E-06   11.48     218.5  T
     SCC iter.                  ...        2 min, 58.581 sec
     gradient                   ...        3 min, 37.784 sec
 * total energy  : -3427.6154715 Eh     change    :  -0.2092977E-05 Eh
   gradient norm :     0.0046666 Eh/a0  converged?    E=T G=F D=T
   time step     :     0.1512500 fs     power     :   0.1791154E-09
   step length   :     0.0004381 a0     speed     :   0.7006841E-04

........................................................................
.............................. CYCLE   12 ..............................
........................................................................

 iter      E             dE          RMSdq      gap      omega  full diag
   1  -3478.9454585 -0.347895E+04  0.679E-05   11.48       0.0  T
   2  -3478.9454585 -0.117552E-08  0.394E-05   11.48      44.4  T
   3  -3478.9454585 -0.650289E-10  0.971E-06   11.48     180.4  T
     SCC iter.                  ...        3 min,  0.193 sec
     gradient                   ...        3 min, 37.016 sec
 * total energy  : -3427.6154740 Eh     change    :  -0.2436706E-05 Eh
   gradient norm :     0.0043945 Eh/a0  converged?    E=T G=F D=T
   time step     :     0.1512500 fs     power     :   0.2067519E-09
   step length   :     0.0005381 a0     speed     :   0.8605137E-04

........................................................................
.............................. CYCLE   13 ..............................
........................................................................

 iter      E             dE          RMSdq      gap      omega  full diag
   1  -3478.9447964 -0.347894E+04  0.793E-05   11.48       0.0  T
   2  -3478.9447964 -0.162936E-08  0.461E-05   11.48      38.0  T
   3  -3478.9447964 -0.363798E-11  0.112E-05   11.48     156.4  T
     SCC iter.                  ...        2 min, 55.487 sec
     gradient                   ...        3 min, 35.803 sec
 * total energy  : -3427.6154766 Eh     change    :  -0.2667955E-05 Eh
   gradient norm :     0.0040897 Eh/a0  converged?    E=T G=F D=T
   time step     :     0.1512500 fs     power     :   0.2251598E-09
   step length   :     0.0006319 a0     speed     :   0.1010647E-03

........................................................................
.............................. CYCLE   14 ..............................
........................................................................

 iter      E             dE          RMSdq      gap      omega  full diag
   1  -3478.9439865 -0.347894E+04  0.996E-05   11.48       0.0  T
   2  -3478.9439865 -0.237378E-08  0.580E-05   11.48      30.2  T
   3  -3478.9439865 -0.777618E-10  0.139E-05   11.48     126.3  T
     SCC iter.                  ...        2 min, 57.590 sec
     gradient                   ...        3 min, 37.876 sec
 * total energy  : -3427.6154797 Eh     change    :  -0.3093312E-05 Eh
   gradient norm :     0.0037301 Eh/a0  converged?    E=T G=F D=T
   time step     :     0.1663750 fs     power     :   0.2345546E-09
   step length   :     0.0008003 a0     speed     :   0.1163569E-03

........................................................................
.............................. CYCLE   15 ..............................
........................................................................

 iter      E             dE          RMSdq      gap      omega  full diag
   1  -3478.9430291 -0.347894E+04  0.123E-04   11.48       0.0  T
   2  -3478.9430291 -0.342561E-08  0.714E-05   11.48      24.5  T
   3  -3478.9430291 -0.909495E-10  0.166E-05   11.48     105.4  T
     SCC iter.                  ...        2 min, 57.212 sec
     gradient                   ...        3 min, 36.332 sec
 * total energy  : -3427.6154832 Eh     change    :  -0.3440648E-05 Eh
   gradient norm :     0.0033321 Eh/a0  converged?    E=T G=F D=T
   time step     :     0.1830125 fs     power     :   0.2325979E-09
   step length   :     0.0009951 a0     speed     :   0.1315191E-03

........................................................................
.............................. CYCLE   16 ..............................
........................................................................

 iter      E             dE          RMSdq      gap      omega  full diag
   1  -3478.9419458 -0.347894E+04  0.147E-04   11.48       0.0  T
   2  -3478.9419458 -0.461250E-08  0.861E-05   11.48      20.4  T
   3  -3478.9419458 -0.129148E-09  0.193E-05   11.48      91.0  T
     SCC iter.                  ...        2 min, 56.520 sec
     gradient                   ...        3 min, 36.860 sec
 * total energy  : -3427.6154868 Eh     change    :  -0.3643243E-05 Eh
   gradient norm :     0.0029354 Eh/a0  converged?    E=T G=F D=F
   time step     :     0.2013138 fs     power     :   0.2182712E-09
   step length   :     0.0012150 a0     speed     :   0.1459922E-03

........................................................................
.............................. CYCLE   17 ..............................
........................................................................

 iter      E             dE          RMSdq      gap      omega  full diag
   1  -3478.9407950 -0.347894E+04  0.173E-04   11.48       0.0  T
   2  -3478.9407950 -0.581031E-08  0.101E-04   11.48      17.3  T
   3  -3478.9407950 -0.186446E-09  0.212E-05   11.48      82.5  T
     SCC iter.                  ...        2 min, 59.297 sec
     gradient                   ...        3 min, 42.146 sec
 * total energy  : -3427.6154905 Eh     change    :  -0.3649871E-05 Eh
   gradient norm :     0.0026136 Eh/a0  converged?    E=T G=F D=F
   time step     :     0.2214451 fs     power     :   0.1933658E-09
   step length   :     0.0014559 a0     speed     :   0.1590288E-03

........................................................................
.............................. CYCLE   18 ..............................
........................................................................

 iter      E             dE          RMSdq      gap      omega  full diag
   1  -3478.9396903 -0.347894E+04  0.196E-04   11.48       0.0  T
   2  -3478.9396903 -0.643195E-08  0.115E-04   11.48      15.2  T
   3  -3478.9396903 -0.124601E-09  0.219E-05   11.48      80.0  T
     SCC iter.                  ...        2 min, 59.045 sec
     gradient                   ...        3 min, 37.948 sec
 * total energy  : -3427.6154940 Eh     change    :  -0.3486929E-05 Eh
   gradient norm :     0.0024574 Eh/a0  converged?    E=T G=F D=F
   time step     :     0.2435896 fs     power     :   0.1640197E-09
   step length   :     0.0017088 a0     speed     :   0.1696847E-03

........................................................................
.............................. CYCLE   19 ..............................
........................................................................

 iter      E             dE          RMSdq      gap      omega  full diag
   1  -3478.9388079 -0.347894E+04  0.215E-04   11.48       0.0  T
   2  -3478.9388079 -0.598084E-08  0.127E-04   11.48      13.8  T
   3  -3478.9388079 -0.102773E-09  0.206E-05   11.48      85.2  T
     SCC iter.                  ...        2 min, 59.443 sec
     gradient                   ...        3 min, 37.465 sec
 * total energy  : -3427.6154973 Eh     change    :  -0.3342325E-05 Eh
   gradient norm :     0.0024960 Eh/a0  converged?    E=T G=F D=F
   time step     :     0.2679486 fs     power     :   0.1403416E-09
   step length   :     0.0019624 a0     speed     :   0.1771547E-03

........................................................................
.............................. CYCLE   20 ..............................
........................................................................

 iter      E             dE          RMSdq      gap      omega  full diag
   1  -3478.9383598 -0.347894E+04  0.229E-04   11.48       0.0  T
   2  -3478.9383598 -0.453565E-08  0.135E-04   11.48      12.9  T
   3  -3478.9383598 -0.782165E-10  0.177E-05   11.48      99.0  T
     SCC iter.                  ...        3 min,  2.182 sec
     gradient                   ...        3 min, 39.785 sec
 * total energy  : -3427.6155007 Eh     change    :  -0.3376450E-05 Eh
   gradient norm :     0.0026309 Eh/a0  converged?    E=T G=F D=F
   time step     :     0.2947435 fs     power     :   0.1315532E-09
   step length   :     0.0022156 a0     speed     :   0.1818265E-03
 * RMSD in coord.:     0.0005679 a0     energy gain  -0.3104544E-03 Eh

........................................................................
.............................. CYCLE   21 ..............................
........................................................................

 iter      E             dE          RMSdq      gap      omega  full diag
   1  -3478.9384687 -0.347894E+04  0.185E-04   11.48       0.0  T
   2  -3478.9384687 -0.178579E-08  0.109E-04   11.48      16.0  T
   3  -3478.9384687 -0.445652E-10  0.117E-05   11.48     149.7  T
     SCC iter.                  ...        3 min,  3.679 sec
     gradient                   ...        3 min, 39.342 sec
 * total energy  : -3427.6155036 Eh     change    :  -0.2898630E-05 Eh
   gradient norm :     0.0026870 Eh/a0  converged?    E=T G=F D=F
   time step     :     0.2500000 fs     power     :   0.1413254E-09
   step length   :     0.0018862 a0     speed     :   0.1824979E-03

........................................................................
.............................. CYCLE   22 ..............................
........................................................................

 iter      E             dE          RMSdq      gap      omega  full diag
   1  -3478.9390534 -0.347894E+04  0.179E-04   11.48       0.0  T
   2  -3478.9390534 -0.142882E-08  0.105E-04   11.48      16.6  T
   3  -3478.9390534  0.882210E-10  0.115E-05   11.48     152.9  T
     SCC iter.                  ...        2 min, 58.726 sec
     gradient                   ...        3 min, 36.687 sec
 * total energy  : -3427.6155067 Eh     change    :  -0.3138471E-05 Eh
   gradient norm :     0.0026156 Eh/a0  converged?    E=T G=F D=F
   time step     :     0.2500000 fs     power     :   0.1562672E-09
   step length   :     0.0019023 a0     speed     :   0.1840579E-03

........................................................................
.............................. CYCLE   23 ..............................
........................................................................

 iter      E             dE          RMSdq      gap      omega  full diag
   1  -3478.9400674 -0.347894E+04  0.179E-04   11.48       0.0  T
   2  -3478.9400674 -0.186583E-08  0.104E-04   11.48      16.8  T
   3  -3478.9400674 -0.591172E-11  0.126E-05   11.48     138.8  T
     SCC iter.                  ...        3 min,  1.582 sec
     gradient                   ...        3 min, 37.247 sec
 * total energy  : -3427.6155101 Eh     change    :  -0.3348338E-05 Eh
   gradient norm :     0.0024038 Eh/a0  converged?    E=T G=F D=F
   time step     :     0.2500000 fs     power     :   0.1669242E-09
   step length   :     0.0019352 a0     speed     :   0.1872444E-03

........................................................................
.............................. CYCLE   24 ..............................
........................................................................

 iter      E             dE          RMSdq      gap      omega  full diag
   1  -3478.9414387 -0.347894E+04  0.183E-04   11.48       0.0  T
   2  -3478.9414387 -0.277259E-08  0.106E-04   11.48      16.6  T
   3  -3478.9414387 -0.572982E-10  0.146E-05   11.48     119.9  T
     SCC iter.                  ...        3 min,  1.082 sec
     gradient                   ...        3 min, 35.908 sec
 * total energy  : -3427.6155134 Eh     change    :  -0.3379577E-05 Eh
   gradient norm :     0.0020748 Eh/a0  converged?    E=T G=F D=F
   time step     :     0.2500000 fs     power     :   0.1662362E-09
   step length   :     0.0019831 a0     speed     :   0.1918788E-03

........................................................................
.............................. CYCLE   25 ..............................
........................................................................

 iter      E             dE          RMSdq      gap      omega  full diag
   1  -3478.9430708 -0.347894E+04  0.188E-04   11.48       0.0  T
   2  -3478.9430708 -0.391992E-08  0.108E-04   11.48      16.2  T
   3  -3478.9430708 -0.918590E-10  0.169E-05   11.48     103.9  T
     SCC iter.                  ...        3 min,  0.605 sec
     gradient                   ...        3 min, 37.866 sec
 * total energy  : -3427.6155166 Eh     change    :  -0.3172066E-05 Eh
   gradient norm :     0.0016895 Eh/a0  converged?    E=T G=F D=F
   time step     :     0.2500000 fs     power     :   0.1513535E-09
   step length   :     0.0020389 a0     speed     :   0.1972745E-03

........................................................................
.............................. CYCLE   26 ..............................
........................................................................

 iter      E             dE          RMSdq      gap      omega  full diag
   1  -3478.9450190 -0.347895E+04  0.210E-04   11.48       0.0  T
   2  -3478.9450190 -0.579621E-08  0.121E-04   11.48      14.5  T
   3  -3478.9450190 -0.257387E-09  0.205E-05   11.48      85.3  T
     SCC iter.                  ...        2 min, 59.029 sec
     gradient                   ...        3 min, 36.459 sec
 * total energy  : -3427.6155196 Eh     change    :  -0.2941037E-05 Eh
   gradient norm :     0.0013427 Eh/a0  converged?    E=T G=F D=F
   time step     :     0.2750000 fs     power     :   0.1213524E-09
   step length   :     0.0023114 a0     speed     :   0.2033104E-03

........................................................................
.............................. CYCLE   27 ..............................
........................................................................

 iter      E             dE          RMSdq      gap      omega  full diag
   1  -3478.9470692 -0.347895E+04  0.226E-04   11.48       0.0  T
   2  -3478.9470693 -0.680438E-08  0.129E-04   11.48      13.5  T
   3  -3478.9470693 -0.108685E-09  0.219E-05   11.48      80.0  T
     SCC iter.                  ...        3 min,  0.170 sec
     gradient                   ...        3 min, 37.349 sec
 * total energy  : -3427.6155220 Eh     change    :  -0.2454044E-05 Eh
   gradient norm :     0.0012864 Eh/a0  converged?    E=T G=F D=F
   time step     :     0.3025000 fs     power     :   0.8491922E-10
   step length   :     0.0025971 a0     speed     :   0.2076707E-03

........................................................................
.............................. CYCLE   28 ..............................
........................................................................

 iter      E             dE          RMSdq      gap      omega  full diag
   1  -3478.9488304 -0.347895E+04  0.225E-04   11.48       0.0  T
   2  -3478.9488304 -0.535647E-08  0.129E-04   11.48      13.6  T
   3  -3478.9488304 -0.214641E-09  0.187E-05   11.48      93.6  T
     SCC iter.                  ...        2 min, 57.596 sec
     gradient                   ...        3 min, 35.327 sec
 * total energy  : -3427.6155240 Eh     change    :  -0.2024649E-05 Eh
   gradient norm :     0.0015329 Eh/a0  converged?    E=T G=F D=F
   time step     :     0.3327500 fs     power     :   0.6090859E-10
   step length   :     0.0028365 a0     speed     :   0.2061966E-03

........................................................................
.............................. CYCLE   29 ..............................
........................................................................

 iter      E             dE          RMSdq      gap      omega  full diag
   1  -3478.9499556 -0.347895E+04  0.211E-04   11.48       0.0  T
   2  -3478.9499556 -0.257660E-08  0.122E-04   11.48      14.4  T
   3  -3478.9499556 -0.128239E-09  0.128E-05   11.48     136.9  T
     SCC iter.                  ...        3 min,  1.067 sec
     gradient                   ...        3 min, 37.650 sec
 * total energy  : -3427.6155260 Eh     change    :  -0.1962802E-05 Eh
   gradient norm :     0.0017665 Eh/a0  converged?    E=T G=F D=F
   time step     :     0.3660250 fs     power     :   0.5935932E-10
   step length   :     0.0030271 a0     speed     :   0.2000484E-03

........................................................................
.............................. CYCLE   30 ..............................
........................................................................

 iter      E             dE          RMSdq      gap      omega  full diag
   1  -3478.9502272 -0.347895E+04  0.198E-04   11.48       0.0  T
   2  -3478.9502272 -0.112959E-08  0.116E-04   11.48      15.2  T
   3  -3478.9502272 -0.864020E-10  0.949E-06   11.48     184.6  T
     SCC iter.                  ...        3 min,  1.018 sec
     gradient                   ...        3 min, 35.728 sec
 * total energy  : -3427.6155284 Eh     change    :  -0.2425306E-05 Eh
   gradient norm :     0.0017799 Eh/a0  converged?    E=T G=F D=F
   time step     :     0.4026275 fs     power     :   0.7225398E-10
   step length   :     0.0032389 a0     speed     :   0.1945864E-03

........................................................................
.............................. CYCLE   31 ..............................
........................................................................

 iter      E             dE          RMSdq      gap      omega  full diag
   1  -3478.9495549 -0.347895E+04  0.198E-04   11.48       0.0  T
   2  -3478.9495549 -0.267619E-08  0.116E-04   11.48      15.0  T
   3  -3478.9495549 -0.115051E-09  0.122E-05   11.48     143.3  T
     SCC iter.                  ...        2 min, 58.067 sec
     gradient                   ...        3 min, 38.553 sec
 * total energy  : -3427.6155315 Eh     change    :  -0.3060087E-05 Eh
   gradient norm :     0.0015389 Eh/a0  converged?    E=T G=F D=F
   time step     :     0.4428903 fs     power     :   0.8182858E-10
   step length   :     0.0035315 a0     speed     :   0.1928754E-03

........................................................................
.............................. CYCLE   32 ..............................
........................................................................

 iter      E             dE          RMSdq      gap      omega  full diag
   1  -3478.9480628 -0.347895E+04  0.209E-04   11.48       0.0  T
   2  -3478.9480628 -0.650789E-08  0.123E-04   11.48      14.2  T
   3  -3478.9480628 -0.213277E-09  0.199E-05   11.48      87.8  T
     SCC iter.                  ...        3 min,  2.245 sec
     gradient                   ...        3 min, 37.210 sec
 * total energy  : -3427.6155347 Eh     change    :  -0.3263665E-05 Eh
   gradient norm :     0.0012523 Eh/a0  converged?    E=T G=F D=F
   time step     :     0.4871793 fs     power     :   0.7434488E-10
   step length   :     0.0039229 a0     speed     :   0.1947738E-03

........................................................................
.............................. CYCLE   33 ..............................
........................................................................

 iter      E             dE          RMSdq      gap      omega  full diag
   1  -3478.9463088 -0.347895E+04  0.206E-04   11.48       0.0  T
   2  -3478.9463088 -0.821910E-08  0.122E-04   11.48      14.4  T
   3  -3478.9463088 -0.181444E-09  0.233E-05   11.48      75.1  T
     SCC iter.                  ...        3 min,  0.665 sec
     gradient                   ...        3 min, 35.951 sec
 * total energy  : -3427.6155378 Eh     change    :  -0.3004983E-05 Eh
   gradient norm :     0.0013448 Eh/a0  converged?    E=T G=F D=F
   time step     :     0.5358972 fs     power     :   0.5853833E-10
   step length   :     0.0043673 a0     speed     :   0.1971256E-03

........................................................................
.............................. CYCLE   34 ..............................
........................................................................

 iter      E             dE          RMSdq      gap      omega  full diag
   1  -3478.9452486 -0.347895E+04  0.180E-04   11.48       0.0  T
   2  -3478.9452486 -0.366890E-08  0.107E-04   11.48      16.4  T
   3  -3478.9452486 -0.782165E-10  0.133E-05   11.48     132.1  T
     SCC iter.                  ...        3 min,  3.472 sec
     gradient                   ...        3 min, 35.314 sec
 * total energy  : -3427.6155409 Eh     change    :  -0.3141101E-05 Eh
   gradient norm :     0.0015954 Eh/a0  converged?    E=T G=F D=F
   time step     :     0.5894869 fs     power     :   0.6103784E-10
   step length   :     0.0047840 a0     speed     :   0.1963069E-03

........................................................................
.............................. CYCLE   35 ..............................
........................................................................

 iter      E             dE          RMSdq      gap      omega  full diag
   1  -3478.9455825 -0.347895E+04  0.189E-04   11.48       0.0  T
   2  -3478.9455825 -0.914497E-09  0.111E-04   11.48      15.8  T
   3  -3478.9455825 -0.613909E-10  0.686E-06   11.48     255.5  T
     SCC iter.                  ...        3 min,  4.074 sec
     gradient                   ...        3 min, 37.285 sec
 * total energy  : -3427.6155451 Eh     change    :  -0.4177752E-05 Eh
   gradient norm :     0.0015058 Eh/a0  converged?    E=T G=F D=F
   time step     :     0.6484356 fs     power     :   0.7954338E-10
   step length   :     0.0052789 a0     speed     :   0.1969192E-03

........................................................................
.............................. CYCLE   36 ..............................
........................................................................

 iter      E             dE          RMSdq      gap      omega  full diag
   1  -3478.9474742 -0.347895E+04  0.257E-04   11.48       0.0  T
   2  -3478.9474742 -0.754744E-08  0.149E-04   11.48      11.8  T
   3  -3478.9474742 -0.187811E-09  0.224E-05   11.48      78.2  T
     SCC iter.                  ...        2 min, 59.717 sec
     gradient                   ...        3 min, 36.734 sec
 * total energy  : -3427.6155502 Eh     change    :  -0.5131019E-05 Eh
   gradient norm :     0.0011197 Eh/a0  converged?    E=F G=F D=F
   time step     :     0.7132792 fs     power     :   0.8217440E-10
   step length   :     0.0059887 a0     speed     :   0.2030887E-03

........................................................................
.............................. CYCLE   37 ..............................
........................................................................

 iter      E             dE          RMSdq      gap      omega  full diag
   1  -3478.9500291 -0.347895E+04  0.299E-04   11.48       0.0  T
   2  -3478.9500291 -0.138130E-07  0.173E-04   11.48      10.1  T
   3  -3478.9500291 -0.370164E-09  0.319E-05   11.48      55.0  T
     SCC iter.                  ...        3 min,  3.762 sec
     gradient                   ...        3 min, 36.650 sec
 * total energy  : -3427.6155550 Eh     change    :  -0.4838130E-05 Eh
   gradient norm :     0.0012153 Eh/a0  converged?    E=T G=F D=F
   time step     :     0.7846071 fs     power     :   0.6451069E-10
   step length   :     0.0068752 a0     speed     :   0.2119560E-03

........................................................................
.............................. CYCLE   38 ..............................
........................................................................

 iter      E             dE          RMSdq      gap      omega  full diag
   1  -3478.9512257 -0.347895E+04  0.264E-04   11.48       0.0  T
   2  -3478.9512257 -0.646014E-08  0.155E-04   11.48      11.3  T
   3  -3478.9512257 -0.362434E-09  0.225E-05   11.48      77.7  T
     SCC iter.                  ...        2 min, 57.347 sec
     gradient                   ...        3 min, 35.645 sec
 * total energy  : -3427.6155601 Eh     change    :  -0.5082746E-05 Eh
   gradient norm :     0.0013535 Eh/a0  converged?    E=F G=F D=F
   time step     :     0.8630678 fs     power     :   0.6915170E-10
   step length   :     0.0077053 a0     speed     :   0.2159532E-03

........................................................................
.............................. CYCLE   39 ..............................
........................................................................

 iter      E             dE          RMSdq      gap      omega  full diag
   1  -3478.9502062 -0.347895E+04  0.288E-04   11.48       0.0  T
   2  -3478.9502062 -0.955606E-08  0.168E-04   11.48      10.4  T
   3  -3478.9502063 -0.419732E-09  0.286E-05   11.48      61.2  T
     SCC iter.                  ...        3 min,  0.098 sec
     gradient                   ...        3 min, 36.940 sec
 * total energy  : -3427.6155663 Eh     change    :  -0.6190572E-05 Eh
   gradient norm :     0.0010369 Eh/a0  converged?    E=F G=F D=F
   time step     :     0.9493746 fs     power     :   0.7377507E-10
   step length   :     0.0087141 a0     speed     :   0.2220246E-03

........................................................................
.............................. CYCLE   40 ..............................
........................................................................

 iter      E             dE          RMSdq      gap      omega  full diag
   1  -3478.9485903 -0.347895E+04  0.312E-04   11.48       0.0  T
   2  -3478.9485903 -0.113505E-07  0.181E-04   11.48       9.7  T
   3  -3478.9485903 -0.497494E-09  0.277E-05   11.48      63.2  T
     SCC iter.                  ...        3 min,  1.550 sec
     gradient                   ...        3 min, 37.442 sec
 * total energy  : -3427.6155724 Eh     change    :  -0.6094793E-05 Eh
   gradient norm :     0.0012844 Eh/a0  converged?    E=F G=F D=F
   time step     :     1.0443120 fs     power     :   0.6229105E-10
   step length   :     0.0099776 a0     speed     :   0.2311061E-03

........................................................................
.............................. CYCLE   41 ..............................
........................................................................

 iter      E             dE          RMSdq      gap      omega  full diag
   1  -3478.9495665 -0.347895E+04  0.310E-04   11.48       0.0  T
   2  -3478.9495665 -0.421960E-08  0.181E-04   11.48       9.7  T
   3  -3478.9495665 -0.417458E-09  0.127E-05   11.48     138.1  T
     SCC iter.                  ...        3 min,  1.529 sec
     gradient                   ...        3 min, 37.743 sec
 * total energy  : -3427.6155799 Eh     change    :  -0.7533123E-05 Eh
   gradient norm :     0.0011616 Eh/a0  converged?    E=F G=F D=F
   time step     :     1.1487432 fs     power     :   0.7927889E-10
   step length   :     0.0112466 a0     speed     :   0.2368179E-03

........................................................................
.............................. CYCLE   42 ..............................
........................................................................

 iter      E             dE          RMSdq      gap      omega  full diag
   1  -3478.9522260 -0.347895E+04  0.396E-04   11.48       0.0  T
   2  -3478.9522261 -0.202817E-07  0.230E-04   11.48       7.6  T
   3  -3478.9522261 -0.641649E-09  0.352E-05   11.48      49.7  T
     SCC iter.                  ...        3 min,  2.158 sec
     gradient                   ...        3 min, 35.888 sec
 * total energy  : -3427.6155884 Eh     change    :  -0.8471672E-05 Eh
   gradient norm :     0.0012035 Eh/a0  converged?    E=F G=F D=F
   time step     :     1.2500000 fs     power     :   0.7278337E-10
   step length   :     0.0128512 a0     speed     :   0.2486846E-03
 * RMSD in coord.:     0.0016597 a0     energy gain  -0.8773456E-04 Eh

........................................................................
.............................. CYCLE   43 ..............................
........................................................................

 iter      E             dE          RMSdq      gap      omega  full diag
   1  -3478.9523095 -0.347895E+04  0.597E-05   11.48       0.0  T
   2  -3478.9523095 -0.138243E-09  0.351E-05   11.48      49.9  T
   3  -3478.9523095 -0.295586E-10  0.226E-06   11.48     775.4  T
     SCC iter.                  ...        2 min, 59.943 sec
     gradient                   ...        3 min, 36.719 sec
 * total energy  : -3427.6155900 Eh     change    :  -0.1594510E-05 Eh
   gradient norm :     0.0012299 Eh/a0  converged?    E=T G=F D=F
   time step     :     0.2500000 fs     power     :   0.8379588E-10
   step length   :     0.0024759 a0     speed     :   0.2395558E-03

........................................................................
.............................. CYCLE   44 ..............................
........................................................................

 iter      E             dE          RMSdq      gap      omega  full diag
   1  -3478.9519847 -0.347895E+04  0.580E-05   11.48       0.0  T
   2  -3478.9519847 -0.312866E-09  0.338E-05   11.48      51.8  T
   3  -3478.9519847 -0.104592E-10  0.439E-06   11.48     399.5  T
     SCC iter.                  ...        3 min,  5.062 sec
     gradient                   ...        3 min, 36.591 sec
 * total energy  : -3427.6155918 Eh     change    :  -0.1780008E-05 Eh
   gradient norm :     0.0011463 Eh/a0  converged?    E=T G=F D=F
   time step     :     0.2500000 fs     power     :   0.9311580E-10
   step length   :     0.0024096 a0     speed     :   0.2331407E-03

........................................................................
.............................. CYCLE   45 ..............................
........................................................................

 iter      E             dE          RMSdq      gap      omega  full diag
   1  -3478.9513384 -0.347895E+04  0.686E-05   11.48       0.0  T
   2  -3478.9513384 -0.799901E-09  0.398E-05   11.48      44.1  T
   3  -3478.9513384 -0.454747E-10  0.785E-06   11.48     223.1  T
     SCC iter.                  ...        2 min, 58.247 sec
     gradient                   ...        3 min, 37.437 sec
 * total energy  : -3427.6155936 Eh     change    :  -0.1846378E-05 Eh
   gradient norm :     0.0010020 Eh/a0  converged?    E=T G=F D=F
   time step     :     0.2500000 fs     power     :   0.9612598E-10
   step length   :     0.0023763 a0     speed     :   0.2299181E-03

........................................................................
.............................. CYCLE   46 ..............................
........................................................................

 iter      E             dE          RMSdq      gap      omega  full diag
   1  -3478.9505067 -0.347895E+04  0.783E-05   11.48       0.0  T
   2  -3478.9505067 -0.135606E-08  0.453E-05   11.48      38.7  T
   3  -3478.9505067  0.245564E-10  0.103E-05   11.48     170.5  T
     SCC iter.                  ...        2 min, 59.252 sec
     gradient                   ...        3 min, 37.713 sec
 * total energy  : -3427.6155955 Eh     change    :  -0.1843403E-05 Eh
   gradient norm :     0.0008916 Eh/a0  converged?    E=T G=T D=F
   time step     :     0.2500000 fs     power     :   0.9285855E-10
   step length   :     0.0023719 a0     speed     :   0.2294907E-03

   *** GEOMETRY OPTIMIZATION CONVERGED AFTER 46 CYCLES ***

------------------------------------------------------------------------
 total energy gain   :        -0.0004053 Eh       -0.2543 kcal/mol
 total RMSD          :         0.0020465 a0        0.0011 Å
 total power (kW/mol):        -0.0231303 (step)   -0.0001 (real)
------------------------------------------------------------------------

 FIRE (total)                  0 d,  5 h, 19 min,  3.278 sec
 setup                          ...        0 min,  0.116 sec (  0.001%)
 velocities                     ...        0 min,  0.003 sec (  0.000%)
 propagation                    ...        0 min,  0.005 sec (  0.000%)
 singlepoint calculation        ...      319 min,  2.394 sec ( 99.995%)
 log and printout               ...        0 min,  0.704 sec (  0.004%)
 preconditioner                 ...        0 min,  0.000 sec (  0.000%)
 model hessian                  ...        0 min,  0.000 sec (  0.000%)
 hessian update                 ...        0 min,  0.000 sec (  0.000%)

================
 final structure:
================
3258
 xtb: 6.6.1 (8d0f1dd)
C          111.52546416797955       97.37037335968924      127.37462278020770
C          110.73090614566614       98.62845069559758      127.04833779689939
C          111.08161718505863       99.78505953335619      127.98049240338952
C          110.31003787625679      101.05487222704625      127.63066188531354
C          110.76110295124460      102.25422485197998      128.46019949201096
C          109.99099170314490      103.51995696953040      128.09380036567904
C          110.53803027715281      104.76282208730308      128.79079758422125
C          109.74332264169588      106.00909475198821      128.41150884891155
C          110.35276069327479      107.29530638391719      128.96336585783737
C          109.49546149291871      108.50544930500173      128.60509459263940
C          110.13523233848561      109.83190089708755      129.00577877923584
C          109.25517325370046      111.02929754872078      128.64352705379758
C          108.06592768301429      111.20332515102359      129.58606093320856
C          107.11747162917230      112.29620636169678      129.10325607511055
C          105.86626816889282      112.41025714370043      129.96894106660312
C          104.89698678705352      113.45535653205003      129.42264845253681
C          103.61199774885669      113.52931399158780      130.24344258754354
C          102.58015308126969      114.49865181434527      129.66532738485529
C          103.01514820978338      115.95952537672659      129.76231642680000
C          101.91513778920041      116.94568825447469      129.36779272053056
C          101.61922823796787      116.95735589349260      127.86918203009716
C          100.60796169625655      118.04500406752906      127.50944357758115
C          100.43724258540136      118.23802811399187      126.00251919626415
C           99.63134207758871      117.13624911727140      125.31794469468336
C           99.59826876426838      117.35075778530758      123.80668082753823
C           98.73025532746168      116.33175706309778      123.07381778021313
C           98.80311399065526      116.52962460738142      121.56157391513707
C           97.94354636785994      115.53238044322758      120.79002074540898
C           98.06610215842342      115.73284623055783      119.28143571075245
C           97.24984700955414      114.71653267578544      118.48768587520073
C           97.39770781472930      114.91857009509505      116.98152945482123
C           96.64645738553476      113.86037455452063      116.17812843735577
C           96.79826823864941      114.06363585894701      114.67246920160990
C           96.11472836402682      112.95896128611923      113.87069345654599
C           96.25203396696313      113.16242220346908      112.36386604702676
C           95.63053345951786      112.01356479330624      111.57348648179617
C           95.74739360294926      112.21188470441018      110.06430038013363
C           95.18044012108093      111.02529678794650      109.28882836408241
C           95.26444594496368      111.21932115236935      107.77687602377097
C           94.75273963466746      109.99654319210816      107.01939667850468
C           94.78884059051852      110.18607056584698      105.50506931060022
C           94.33964605572453      108.92733360269725      104.76674598857396
C           94.32389686722667      109.11196638402559      103.25173226169761
C           93.95238074435507      107.82181521508147      102.52394296028170
C           93.91235423328882      108.00712640761951      101.00977128021215
C           93.64366884850443      106.69872339409868      100.26903623080715
C           93.66065457303139      106.89982843712647       98.75630935964190
C           93.54012654547101      105.59292811714346       97.97614445891872
C           93.75178127752993      105.82214030827150       96.48144693710964
C           93.76438349971194      104.51859671482624       95.68682034012063
C           94.15436753658301      104.71533718587825       94.21981946770538
C           95.63416356503917      105.04978939891315       94.04683747525191
C           96.02751446983891      105.28943912826117       92.59146334559587
C           97.50314209353611      105.66583372639890       92.48342943208007
C           97.90891460725194      106.13136658660390       91.08792367929072
C           99.34460663102672      106.65009579234676       91.08249866292913
C           99.75855858320445      107.22919969086308       89.73175963837467
C          101.19045761576683      107.76905991797555       89.72963305925722
C          101.34863509698569      109.02994235830164       90.57548816308328
C          102.79759516811875      109.49286190405202       90.71246224472212
C          103.39355090809883      110.08043254352877       89.43421268246401
C          104.71210031283408      110.80802788384226       89.71220332260937
C          104.49733977377231      112.18570051971734       90.33972652782501
C          105.77712395410386      112.76404691174550       90.93859096646077
C          105.51605107572637      114.07939493464541       91.67062832629738
C          106.71234362209087      114.53105204049406       92.50464867810238
C          106.36845639268502      115.71315175357992       93.40820589280260
C          107.51816654511005      116.06740570277329       94.34804097998962
C          107.11313138563152      117.08754597401125       95.40891107282671
C          108.25509470967415      117.37686995828548       96.38067627738627
C          107.81102759029174      118.23263327410160       97.56381897014565
C          108.97268034789091      118.56214222440320       98.49792524474023
C          108.51867601955901      119.34782777124165       99.72557607610027
C          109.69989423037224      119.81174265362532      100.57405049591439
C          109.27873789186060      120.62987210636604      101.79531377917131
C          108.65281624361640      119.78494411644084      102.90244233263084
C          108.38385113817294      120.60539047703642      104.16206801773957
C          107.79322356454487      119.74497305357040      105.27584141429533
C          107.53713271124178      120.50848752588234      106.57542454937457
C          108.79384546969365      120.98564902910832      107.30353931932396
C          109.67804118668869      119.85384116239564      107.82150550733074
C          110.88393833169945      120.40018132608881      108.58090079997613
C          111.83125130733322      119.32560399514126      109.11448097714788
C          112.53095484008520      118.54285050479851      108.00754763519342
C          113.58188270125093      117.57531294516622      108.54710398420723
C          114.14208234031312      116.68195910028254      107.44346941515872
C          115.15781150396779      115.67311570470706      107.96901758119613
C          115.76681723524932      114.80931834128899      106.86446154185141
C          114.81715021539307      113.74273050321804      106.32141892324063
C          115.49507896662959      112.89296238072367      105.24926685037231
C          114.56471509204806      111.84591818927942      104.63890726339281
C          115.25810667459089      111.07895848200350      103.51400788734466
C          114.33858343076189      110.12794802658907      102.74634726202140
C          114.01006509491427      108.84424430873473      103.50461403132590
C          113.09013524327649      107.93495047797892      102.69288425780319
C          112.68780448674501      106.67307733395845      103.45280416650667
C          111.70050660731910      105.81992190520852      102.65850630207233
C          111.27985065837480      104.56350379583257      103.41652058216413
C          110.23829493210160      103.74468647704632      102.65852133578785
C          109.87140659128312      102.45044382455534      103.38175036372947
C          108.74817439140375      101.69418758374005      102.67428314539198
C          108.33867696418071      100.42007341520750      103.41122777241777
C          107.11658915723629       99.76062364295269      102.77441597245688
C          106.70779241753594       98.44539269738857      103.44091321488590
C          106.12246755367424       98.62395409023405      104.83996718342843
C          105.63327934264586       97.30487991930565      105.43856765568438
C          104.95757157360738       97.52434102986329      106.79057425348458
C          104.42404273008742       96.24830077187971      107.44461233355601
C          105.52490201580466       95.37984946876433      108.04984259121626
C          104.99825272916388       94.09774308592056      108.69948126584335
C          104.15028198297232       94.29547461038436      109.95921314191810
C          104.92586319689011       94.91117702533336      111.12193734820349
C          104.14546323163599       94.87646158433861      112.43573787586828
C          104.93749517697904       95.54780054304604      113.55454618999595
C          104.22571349375454       95.55117085175593      114.90437716993283
C          105.08240342501770       96.22330424609632      115.97458913456397
C          104.46662095456763       96.15695398442418      117.36805433441839
C          105.38611889899563       96.77758876069065      118.41778724027515
C          104.77113637541035       96.76302531639114      119.81441564343014
C          105.73111541201503       97.30967568985956      120.86291667738838
H          103.85425937635706       97.35835191108887      119.81424830696494
H          104.49832859724329       95.73992192756273      120.07669615806043
H          106.33129364443732       96.22868671628876      118.43732751836023
H          105.61674312842025       97.80829016736082      118.13494516404774
H          103.50453808466142       96.67402201993616      117.36714153439897
H          104.27682264379629       95.11335932029939      117.62823378679182
H          106.06012700853732       95.73727117749068      115.99897621361983
H          105.24658473463187       97.26803893880926      115.70330551690320
H          103.26913080922576       96.07357320197779      114.81784402266290
H          104.01459453871485       94.52355789694501      115.20619051832112
H          105.89405703578943       95.03279755109176      113.66234416776273
H          105.15407282656720       96.57914811791109      113.26734688905988
H          103.18702655900300       95.38351598715124      112.30738809417778
H          103.93439292617124       93.83872979142234      112.70650973140415
H          105.86561116300319       94.36851312089645      111.25362489265262
H          105.17182959743283       95.94901768591875      110.89066359760804
H          103.28072193493048       94.91443604999139      109.73028099582427
H          103.77609658099479       93.31600828476751      110.26892620526992
H          104.40155697728531       93.55546520927703      107.96146999000980
H          105.85225956435906       93.46571313266388      108.95749958236242
H          106.22653624967946       95.09338215471851      107.26313822962518
H          106.08192031093064       95.96340039042677      108.78557641290362
H          103.72483800609901       96.53651166444298      108.23204007909843
H          103.86745736729738       95.66693113246788      106.70573093605366
H          105.66560177188143       98.00425661954721      107.46893181410402
H          104.12058697822604       98.21270774837562      106.64839454691194
H          104.92413136050499       96.83325192487257      104.75309570545114
H          106.47995586858505       96.62514458963867      105.55088510216676
H          106.87465027418529       99.05226054039782      105.50439584895427
H          105.28706082614448       99.32709093202797      104.78735890729936
H          105.96050845650727       97.95498260208143      102.81147196763987
H          107.57479992638788       97.78465932938767      103.49232967457989
H          106.27493082895312      100.45765239342677      102.80806189063665
H          107.33889055232555       99.56089583353877      101.72263475767609
H          109.17324907025444       99.71604826855923      103.40457423169168
H          108.11798722969419      100.66525110243884      104.45169983764737
H          107.87855564676758      102.34904171216122      102.58272547860425
H          109.06899796642386      101.43538587540620      101.66341241692038
H          110.75481436677971      101.81135367278677      103.44659611204497
H          109.56012042253434      102.68778556520485      104.40187228396391
H          109.33880939931963      104.34993137024908      102.52803143592139
H          110.61968560152614      103.50571000890366      101.66476834320804
H          112.16058209087591      103.94472889214437      103.60162748293141
H          110.86587938676097      104.85629080055909      104.38507649702552
H          110.81472916072906      106.41785931465589      102.43219513982061
H          112.15428154487954      105.53178285809818      101.70726759553618
H          113.57964065364118      106.08381318813258      103.67866281938069
H          112.23223117119585      106.95660641347520      104.40502699910272
H          112.19012800861978      108.49192910181144      102.42268716036537
H          113.59050287743776      107.65314843829439      101.76237526505098
H          114.93551758674397      108.31072309327847      103.73565667635758
H          113.52827711767503      109.09174992299694      104.45143832902177
H          113.40814550358988      110.64664771576412      102.50216688690244
H          114.82119129763809      109.85777953468750      101.80328192720127
H          115.66914679352173      111.80550338230567      102.80770398561009
H          116.09855663638501      110.51678698420444      103.92598725725259
H          114.23889495395952      111.15498644652632      105.41687534537674
H          113.67581694302889      112.34158912354680      104.24184012062074
H          115.85731295369517      113.55388553003517      104.45722530720684
H          116.36817815419305      112.39526839816209      105.67887194022597
H          114.48559014309353      113.10000962996592      107.13931750191620
H          113.93441138605880      114.21854838532320      105.89196924937305
H          116.08924903229376      115.45560218839159      106.04504738717458
H          116.65960099978861      114.31334966036511      107.25418551711813
H          115.95988604793263      116.22018381345561      108.47233573538287
H          114.68013478895315      115.03052361212110      108.71086301060400
H          113.31772178427377      116.15326603703429      106.96047667344941
H          114.62394776665336      117.30678509517993      106.68855313826569
H          114.39474208381462      118.13910318181706      109.01081123033917
H          113.13517828331142      116.94763012113901      109.32287138535497
H          111.79257714500332      117.97768539814666      107.43639843733222
H          113.00778477988534      119.24566765000810      107.32181920021898
H          112.58950604665033      119.80746773960439      109.73700060069021
H          111.27559672013960      118.63589247176826      109.75161511345516
H          111.44111215072162      121.06929243025590      107.92149617745403
H          110.52118941324485      120.99441163472723      109.42285637940358
H          109.09120771323900      119.21419479194446      108.48582259613032
H          110.02067051592944      119.24702056290781      106.98357555745393
H          109.37873285607760      121.62730936468455      106.64225298804965
H          108.48195512874346      121.59883815417443      108.15202115070585
H          106.91885021554006      121.37918741691162      106.34937424450241
H          106.96623631120045      119.86574976241629      107.25076249249730
H          106.84337205599738      119.32847520023469      104.92913128504682
H          108.46544849824203      118.90724253713007      105.47019725979604
H          109.32175886088548      121.05121225619958      104.49592047712783
H          107.69347492931863      121.41925098905949      103.92778708396563
H          107.71544317129617      119.34908937040528      102.55119766537334
H          109.33097973853829      118.96428144370178      103.15043006363487
H          110.15959802082075      121.13401707617153      102.20075043775547
H          108.57441482055189      121.40554343447357      101.48580086475613
H          110.27699695097189      118.94327068773984      100.90098113804018
H          110.35607456463644      120.42323792628393       99.94927055578422
H          107.94760847783071      120.22175611519096       99.40241032459775
H          107.85510822357161      118.72218835534801      100.32501726497509
H          109.45501091883143      117.63598106539470       98.81925333088505
H          109.71617245416363      119.14677605285314       97.95032867122018
H          107.36857757851973      119.16142405793211       97.19573849085096
H          107.03787435463097      117.69981406031300       98.12298396477468
H          108.65333528299922      116.43169300401240       96.75690654403118
H          109.06201451352334      117.88554793324488       95.84761081540681
H          106.79522870963797      118.01541577445565       94.92814956663869
H          106.25653623558243      116.69870201489620       95.96597753921317
H          107.85495318781048      115.15800509141916       94.85112665628499
H          108.35882655525286      116.45597159832722       93.76837961719342
H          106.10473233082966      116.58130425474678       92.80029440776332
H          105.49000282488642      115.45338183497495       94.00531454268931
H          107.03726067103173      113.69759662908866       93.13214507533708
H          107.54462524861454      114.79623122603182       91.84870599667437
H          105.25010329576983      114.85719622765210       90.95161733226426
H          104.66065748550793      113.94496930762448       92.33673898067525
H          106.18643218790632      112.04212510310475       91.64916982702331
H          106.52197080664283      112.91527848188251       90.15394822928151
H          104.10103670254685      112.87022308719934       89.58635904317603
H          103.75207059909381      112.11065921724519       91.13384361417422
H          105.31378103765873      110.19275026482579       90.38523153863089
H          105.27221773532388      110.92382909792282       88.78153378323481
H          103.56801137885363      109.27890077295881       88.71399377078555
H          102.68396585227303      110.78022815689044       88.98691140309136
H          102.83390243138706      110.25338048112965       91.49503305374806
H          103.41479372788004      108.65282752966131       91.04077657939425
H          100.75109985450972      109.83534642592103       90.14268190531924
H          100.96369003374323      108.83639447966436       91.57808137281728
H          101.86246643000443      106.99751807187690       90.11203102384603
H          101.48480364059300      107.98673118582160       88.70103536871498
H           99.67192457086377      106.44825543244839       88.97196435394443
H           99.07103302718727      108.03274006674083       89.45593301776850
H           99.43005506189677      107.41968298965330       91.85154711697875
H          100.02428992988530      105.83826605482552       91.35095214488322
H           97.80583619213120      105.30964817904356       90.37554374580168
H           97.23748648243242      106.93186011342436       90.76706572331815
H           97.70766427461398      106.47252988038139       93.19134913354155
H           98.11993111774906      104.81200810387415       92.77323700425788
H           95.82564584579849      104.39546667254433       91.99684216927503
H           95.41798137143145      106.10002932430783       92.18453352195300
H           95.87376280696948      105.94986226493717       94.61570006557892
H           96.23641808999975      104.23237194888119       94.45152988065099
H           93.93233099560400      103.79962371151136       93.66605295668656
H           93.54761203620656      105.51534026901926       93.78906494149675
H           94.47073040755417      103.82718246364509       96.15247415603891
H           92.77333966583400      104.06110490238676       95.73757872236465
H           92.96585216267962      106.47588455645231       96.09630047745019
H           94.70385844317933      106.33752674176746       96.34755967274940
H           94.29451098232522      104.88878578677141       98.33627340084854
H           92.55963014389334      105.14412691244314       98.15063704214766
H           92.84699880884709      107.56974176942791       98.46847854721645
H           94.59882007580778      107.38671602032564       98.47927884374317
H           94.41033500865946      105.96867368468030      100.54101069421561
H           92.67744394459397      106.29254170420666      100.57728518688461
H           93.13803260674121      108.73426734784172      100.75335425321153
H           94.86901788088268      108.41548230024938      100.67511024554408
H           94.68329374065459      107.04753570891287      102.77038884697848
H           92.97656052430496      107.47530382590759      102.87334586935727
H           93.60870243544198      109.89526673912113      102.98929893092786
H           95.31006247867384      109.44247193374896      102.91770104250423
H           95.01227634412822      108.10403443877868      105.01984362690266
H           93.33864037010190      108.64791646473240      105.10545059728886
H           94.13998851176680      111.02043180642507      105.22838987588207
H           95.80445218900643      110.44288986488542      105.19626682307893
H           95.36191009262258      109.12924556350765      107.28589823494511
H           93.72665782126668      109.78327650666574      107.33024795195328
H           94.67836125177820      112.09564639570107      107.49036264903543
H           96.30178913766726      111.41060197759279      107.49438903510189
H           95.73027539317798      110.12186686939170      109.56438740721630
H           94.13639085281243      110.87292523224406      109.57467755896558
H           95.21666051092788      113.12193335271536      109.77533582651468
H           96.79826833608600      112.34571382624108      109.79948258441510
H           96.12685102707525      111.07993241536765      111.85006328215100
H           94.57590431154898      111.91697434488995      111.84432277528708
H           95.77261540812012      114.10155956427296      112.07854772009445
[...]
  3011   6 C     3012   6 C                                       1.5289791
  3012   6 C     3013   6 C                                       1.5271018
  3013   6 C     3014   6 C                                       1.5269083
  3014   6 C     3015   6 C                                       1.5252275
  3015   6 C     3016   6 C                                       1.5225699
  3015   6 C     3017   1 H                                       1.0910685
  3015   6 C     3018   1 H                                       1.0905362
  3014   6 C     3019   1 H                                       1.0920078
  3014   6 C     3020   1 H                                       1.0921296
  3013   6 C     3021   1 H                                       1.0902173
  3013   6 C     3022   1 H                                       1.0933412
  3012   6 C     3023   1 H                                       1.0928530
  3012   6 C     3024   1 H                                       1.0920148
  3011   6 C     3025   1 H                                       1.0922882
  3011   6 C     3026   1 H                                       1.0924645
  3010   6 C     3027   1 H                                       1.0922632
  3010   6 C     3028   1 H                                       1.0913685
  3009   6 C     3029   1 H                                       1.0927624
  3009   6 C     3030   1 H                                       1.0926866
  3008   6 C     3031   1 H                                       1.0923121
  3008   6 C     3032   1 H                                       1.0933939
  3007   6 C     3033   1 H                                       1.0930273
  3007   6 C     3034   1 H                                       1.0925759
  3006   6 C     3035   1 H                                       1.0919113
  3006   6 C     3036   1 H                                       1.0924036
  3005   6 C     3037   1 H                                       1.0925173
  3005   6 C     3038   1 H                                       1.0927433
  3004   6 C     3039   1 H                                       1.0928301
  3004   6 C     3040   1 H                                       1.0915205
  3003   6 C     3041   1 H                                       1.0921838
  3003   6 C     3042   1 H                                       1.0931518
  3002   6 C     3043   1 H                                       1.0931633
  3002   6 C     3044   1 H                                       1.0929886
  3001   6 C     3045   1 H                                       1.0915770
  3001   6 C     3046   1 H                                       1.0913643
  3000   6 C     3047   1 H                                       1.0929487
  3000   6 C     3048   1 H                                       1.0932457
  2999   6 C     3049   1 H                                       1.0929519
  2999   6 C     3050   1 H                                       1.0917627
  2998   6 C     3051   1 H                                       1.0909845
  2998   6 C     3052   1 H                                       1.0933400
  2997   6 C     3053   1 H                                       1.0919706
  2997   6 C     3054   1 H                                       1.0927870
  2996   6 C     3055   1 H                                       1.0914924
  2996   6 C     3056   1 H                                       1.0922132
  2995   6 C     3057   1 H                                       1.0924696
  2995   6 C     3058   1 H                                       1.0906731
  2994   6 C     3059   1 H                                       1.0922661
  2994   6 C     3060   1 H                                       1.0925704
  2993   6 C     3061   1 H                                       1.0932307
  2993   6 C     3062   1 H                                       1.0929756
  2992   6 C     3063   1 H                                       1.0935137
  2992   6 C     3064   1 H                                       1.0914118
  2991   6 C     3065   1 H                                       1.0907245
  2991   6 C     3066   1 H                                       1.0921797
  2990   6 C     3067   1 H                                       1.0936105
  2990   6 C     3068   1 H                                       1.0929266
  2989   6 C     3069   1 H                                       1.0922571
  2989   6 C     3070   1 H                                       1.0933075
  2988   6 C     3071   1 H                                       1.0925187
  2988   6 C     3072   1 H                                       1.0908291
  2987   6 C     3073   1 H                                       1.0922281
  2987   6 C     3074   1 H                                       1.0930327
  2986   6 C     3075   1 H                                       1.0918635
  2986   6 C     3076   1 H                                       1.0923284
  2985   6 C     3077   1 H                                       1.0923666
  2985   6 C     3078   1 H                                       1.0937830
  2984   6 C     3079   1 H                                       1.0923161
  2984   6 C     3080   1 H                                       1.0923257
  2983   6 C     3081   1 H                                       1.0934277
  2983   6 C     3082   1 H                                       1.0932851
  2982   6 C     3083   1 H                                       1.0923841
  2982   6 C     3084   1 H                                       1.0926416
  2981   6 C     3085   1 H                                       1.0934495
  2981   6 C     3086   1 H                                       1.0927454
  2980   6 C     3087   1 H                                       1.0929984
  2980   6 C     3088   1 H                                       1.0928546
  2979   6 C     3089   1 H                                       1.0917736
  2979   6 C     3090   1 H                                       1.0925593
  2978   6 C     3091   1 H                                       1.0934206
  2978   6 C     3092   1 H                                       1.0921753
  2977   6 C     3093   1 H                                       1.0925809
  2977   6 C     3094   1 H                                       1.0932975
  2976   6 C     3095   1 H                                       1.0931364
  2976   6 C     3096   1 H                                       1.0914618
  2975   6 C     3097   1 H                                       1.0908706
  2975   6 C     3098   1 H                                       1.0929843
  2974   6 C     3099   1 H                                       1.0937666
  2974   6 C     3100   1 H                                       1.0925897
  2973   6 C     3101   1 H                                       1.0927720
  2973   6 C     3102   1 H                                       1.0915506
  2972   6 C     3103   1 H                                       1.0910137
  2972   6 C     3104   1 H                                       1.0911467
  2971   6 C     3105   1 H                                       1.0926018
  2971   6 C     3106   1 H                                       1.0925577
  2970   6 C     3107   1 H                                       1.0923514
  2970   6 C     3108   1 H                                       1.0917161
  2969   6 C     3109   1 H                                       1.0916689
  2969   6 C     3110   1 H                                       1.0922743
  2968   6 C     3111   1 H                                       1.0921579
  2968   6 C     3112   1 H                                       1.0927868
  2967   6 C     3113   1 H                                       1.0930086
  2967   6 C     3114   1 H                                       1.0919792
  2966   6 C     3115   1 H                                       1.0922453
  2966   6 C     3116   1 H                                       1.0908618
  2965   6 C     3117   1 H                                       1.0926006
  2965   6 C     3118   1 H                                       1.0930720
  2964   6 C     3119   1 H                                       1.0932680
  2964   6 C     3120   1 H                                       1.0933166
  2963   6 C     3121   1 H                                       1.0931353
  2963   6 C     3122   1 H                                       1.0909051
  2962   6 C     3123   1 H                                       1.0904727
  2962   6 C     3124   1 H                                       1.0922756
  2961   6 C     3125   1 H                                       1.0930750
  2961   6 C     3126   1 H                                       1.0930737
  2960   6 C     3127   1 H                                       1.0915928
  2960   6 C     3128   1 H                                       1.0918019
  2959   6 C     3129   1 H                                       1.0906822
  2959   6 C     3130   1 H                                       1.0924111
  2958   6 C     3131   1 H                                       1.0930569
  2958   6 C     3132   1 H                                       1.0924308
  2957   6 C     3133   1 H                                       1.0928256
  2957   6 C     3134   1 H                                       1.0919573
  2956   6 C     3135   1 H                                       1.0922558
  2956   6 C     3136   1 H                                       1.0918342
  2955   6 C     3137   1 H                                       1.0922533
  2955   6 C     3138   1 H                                       1.0920320
  2954   6 C     3139   1 H                                       1.0930303
  2954   6 C     3140   1 H                                       1.0923171
  2953   6 C     3141   1 H                                       1.0927577
  2953   6 C     3142   1 H                                       1.0932904
  2952   6 C     3143   1 H                                       1.0924025
  2952   6 C     3144   1 H                                       1.0924838
  2951   6 C     3145   1 H                                       1.0921653
  2951   6 C     3146   1 H                                       1.0929651
  2950   6 C     3147   1 H                                       1.0911344
  2950   6 C     3148   1 H                                       1.0908114
  2949   6 C     3149   1 H                                       1.0931661
  2949   6 C     3150   1 H                                       1.0914984
  2948   6 C     3151   1 H                                       1.0927331
  2948   6 C     3152   1 H                                       1.0933193
  2947   6 C     3153   1 H                                       1.0918944
  2947   6 C     3154   1 H                                       1.0929397
  2946   6 C     3155   1 H                                       1.0928921
  2946   6 C     3156   1 H                                       1.0914618
  2945   6 C     3157   1 H                                       1.0925633
  2945   6 C     3158   1 H                                       1.0929166
  2944   6 C     3159   1 H                                       1.0923569
  2944   6 C     3160   1 H                                       1.0916494
  2943   6 C     3161   1 H                                       1.0931793
  2943   6 C     3162   1 H                                       1.0928916
  2942   6 C     3163   1 H                                       1.0931199
  2942   6 C     3164   1 H                                       1.0929938
  2941   6 C     3165   1 H                                       1.0898906
  2941   6 C     3166   1 H                                       1.0928786
  2940   6 C     3167   1 H                                       1.0930413
  2940   6 C     3168   1 H                                       1.0933740
  2939   6 C     3169   1 H                                       1.0928711
  2939   6 C     3170   1 H                                       1.0929796
  2938   6 C     3171   1 H                                       1.0917963
  2938   6 C     3172   1 H                                       1.0917850
  2937   6 C     3173   1 H                                       1.0929697
  2937   6 C     3174   1 H                                       1.0910817
  2936   6 C     3175   1 H                                       1.0936011
  2936   6 C     3176   1 H                                       1.0934894
  2935   6 C     3177   1 H                                       1.0908943
  2935   6 C     3178   1 H                                       1.0916624
  2934   6 C     3179   1 H                                       1.0928449
  2934   6 C     3180   1 H                                       1.0916236
  2933   6 C     3181   1 H                                       1.0928339
  2933   6 C     3182   1 H                                       1.0930810
  2932   6 C     3183   1 H                                       1.0915055
  2932   6 C     3184   1 H                                       1.0924728
  2931   6 C     3185   1 H                                       1.0923686
  2931   6 C     3186   1 H                                       1.0934262
  2930   6 C     3187   1 H                                       1.0927216
  2930   6 C     3188   1 H                                       1.0925125
  2929   6 C     3189   1 H                                       1.0922131
  2929   6 C     3190   1 H                                       1.0911415
  2928   6 C     3191   1 H                                       1.0933439
  2928   6 C     3192   1 H                                       1.0931062
  2927   6 C     3193   1 H                                       1.0932019
  2927   6 C     3194   1 H                                       1.0922494
  2926   6 C     3195   1 H                                       1.0915467
  2926   6 C     3196   1 H                                       1.0913584
  2925   6 C     3197   1 H                                       1.0925488
  2925   6 C     3198   1 H                                       1.0930371
  2924   6 C     3199   1 H                                       1.0928206
  2924   6 C     3200   1 H                                       1.0931938
  2923   6 C     3201   1 H                                       1.0906194
  2923   6 C     3202   1 H                                       1.0922131
  2922   6 C     3203   1 H                                       1.0921796
  2922   6 C     3204   1 H                                       1.0931673
  2921   6 C     3205   1 H                                       1.0928747
  2921   6 C     3206   1 H                                       1.0922583
  2920   6 C     3207   1 H                                       1.0927284
  2920   6 C     3208   1 H                                       1.0925236
  2919   6 C     3209   1 H                                       1.0930996
  2919   6 C     3210   1 H                                       1.0920736
  2918   6 C     3211   1 H                                       1.0931241
  2918   6 C     3212   1 H                                       1.0919281
  2917   6 C     3213   1 H                                       1.0915580
  2917   6 C     3214   1 H                                       1.0920068
  2916   6 C     3215   1 H                                       1.0923955
  2916   6 C     3216   1 H                                       1.0923532
  2915   6 C     3217   1 H                                       1.0920447
  2915   6 C     3218   1 H                                       1.0929826
  2914   6 C     3219   1 H                                       1.0926143
  2914   6 C     3220   1 H                                       1.0920259
  2913   6 C     3221   1 H                                       1.0927982
  2913   6 C     3222   1 H                                       1.0919713
  2912   6 C     3223   1 H                                       1.0914050
  2912   6 C     3224   1 H                                       1.0928509
  2911   6 C     3225   1 H                                       1.0915810
  2911   6 C     3226   1 H                                       1.0919592
  2910   6 C     3227   1 H                                       1.0912715
  2910   6 C     3228   1 H                                       1.0930173
  2909   6 C     3229   1 H                                       1.0935371
  2909   6 C     3230   1 H                                       1.0914986
  2908   6 C     3231   1 H                                       1.0922574
  2908   6 C     3232   1 H                                       1.0927349
  2907   6 C     3233   1 H                                       1.0928193
  2907   6 C     3234   1 H                                       1.0916046
  2906   6 C     3235   1 H                                       1.0934038
  2906   6 C     3236   1 H                                       1.0937338
  2905   6 C     3237   1 H                                       1.0931456
  2905   6 C     3238   1 H                                       1.0930249
  2904   6 C     3239   1 H                                       1.0924143
  2904   6 C     3240   1 H                                       1.0932779
  2903   6 C     3241   1 H                                       1.0926629
  2903   6 C     3242   1 H                                       1.0929528
  2902   6 C     3243   1 H                                       1.0931247
  2902   6 C     3244   1 H                                       1.0912134
  2901   6 C     3245   1 H                                       1.0925947
  2901   6 C     3246   1 H                                       1.0921274
  2900   6 C     3247   1 H                                       1.0933088
  2900   6 C     3248   1 H                                       1.0926020
  2899   6 C     3249   1 H                                       1.0912116
  2899   6 C     3250   1 H                                       1.0931987
  2898   6 C     3251   1 H                                       1.0926361
  2898   6 C     3252   1 H                                       1.0921555
  2897   6 C     3253   1 H                                       1.0881128
  2897   6 C     3254   1 H                                       1.0881374
  2897   6 C     3255   1 H                                       1.0876177
  3016   6 C     3256   1 H                                       1.0872679
  3016   6 C     3257   1 H                                       1.0871866
  3016   6 C     3258   1 H                                       1.0877366

 * 2 distinct bonds (by element types)

   Z      Z             #   av. dist./Å        max./Å        min./Å
   1 H    6 C        2178     1.0923121     1.0944644     1.0866856
   6 C    6 C        1071     1.5273704     1.5362496     1.5220289


optimized geometry written to: xtbopt.xyz


           -------------------------------------------------
          | TOTAL ENERGY            -3427.615595476685 Eh   |
          | GRADIENT NORM               0.000891862573 Eh/α |
          | HOMO-LUMO GAP              11.479003049723 eV   |
           -------------------------------------------------

------------------------------------------------------------------------
 * finished run on 2024/10/04 at 03:04:08.898     
------------------------------------------------------------------------
 total:
 * wall-time:     0 d,  5 h, 41 min,  9.219 sec
 *  cpu-time:     1 d,  6 h, 25 min, 41.428 sec
 * ratio c/w:     5.352 speedup
 SCF:
 * wall-time:     0 d,  0 h, 14 min, 23.883 sec
 *  cpu-time:     0 d,  1 h, 32 min, 51.924 sec
 * ratio c/w:     6.450 speedup
 ANC optimizer:
 * wall-time:     0 d,  5 h, 26 min,  3.084 sec
 *  cpu-time:     1 d,  4 h, 51 min, 51.796 sec
 * ratio c/w:     5.312 speedup

