3795
 energy: -5103.668183589361 gnorm: 0.000886316307 xtb: 6.6.1 (8d0f1dd)
C          122.06557979850372       99.05321801700003      106.07923140428130
C          122.27176688493105      100.47077907173525      105.60715649445910
C          121.84044480779959       98.97748978905574      107.59610463961471
C          120.50377661328119       99.56303565976715      108.05499235756892
H          121.86989909528475       97.92470970835176      107.88161555322387
H          122.65723221553490       99.48808102289146      108.10921113865309
C          120.48178375520830      101.09231546038542      108.11287248897222
H          119.70987886686268       99.20964269922364      107.39405651186759
H          120.29739178904615       99.19755018015057      109.06409650312294
C          121.36911742706825      101.60301860357038      109.23904555447831
H          120.78150750113967      101.53086192718683      107.16427420812086
H          119.46284238042067      101.41643389953714      108.33347660781439
N          122.21710197512920      102.57632306595896      108.89508357378895
O          123.32151516408229      101.04618903722941      106.16348539181772
O          121.56083369011711      101.02820795474645      104.79580558700830
H          123.30089596023247      102.03208973830841      106.01822904225986
H          122.96781811829625       98.49157071753145      105.83325538451675
H          121.21782367134027       98.62417833272684      105.54523274494127
C          123.18506684776222      103.13587824652390      109.81086919331712
H          122.27778871256395      102.90546284557566      107.93100130920085
C          124.54756186106594      103.31654088310125      109.14790278391813
H          122.82560006022241      104.10863195176782      110.16962694054867
H          123.25234423194181      102.45787637985359      110.66738281590122
C          125.58275437532227      103.80477129688224      110.15941656090131
H          124.86482846305559      102.36888073186495      108.70943893980076
H          124.44442005022466      104.04571579977450      108.34180477573766
C          126.91747315610559      104.16617404733569      109.50619940593788
H          125.18961471342288      104.69012985250258      110.66079117565609
H          125.72518115285006      103.03220278655726      110.91704860839424
C          127.80364893671126      105.01941348088390      110.41463774518965
H          127.44696066185377      103.25743977648204      109.21538672903505
H          126.70862447011953      104.73710615718677      108.59994494577242
C          128.30616087743610      104.26065197430400      111.64778629771249
H          128.66196585225578      105.38495767986318      109.84925092432313
H          127.23440783278535      105.89100998176767      110.74351659034343
N          128.64049903991761      105.17075853626204      112.72033344576336
H          127.52914859780495      103.59991653336144      112.03649338558915
H          129.18014680706037      103.65312562096733      111.39181639207469
C          128.03962166459368      105.14404553193059      113.91550353781817
H          129.32170912362884      105.89288497805296      112.52293030980650
O          121.27970449296382      101.16472182455936      110.38491586079300
C          128.41406356730158      106.28246690011447      114.84014532896806
C          127.28755692066771      107.31836172951772      114.93641754278129
H          128.58471124384903      105.87076518771806      115.83560067738026
H          129.32721949243853      106.75033152102651      114.48359022467424
C          126.92192008128586      107.95099785919146      113.59672930170522
H          126.40472052035661      106.82671917651116      115.35044403237883
H          127.59190276439807      108.10598954017674      115.62887021784123
C          128.00868189254473      108.86317288439714      113.02774015163692
H          126.70063172859847      107.16664493448611      112.86943148304145
H          126.01350603791752      108.54596150435864      113.72738392733200
C          127.65233853125575      109.29216324866354      111.62337757246071
H          128.17079546940232      109.72011029313227      113.68247825290808
H          128.95070662574997      108.31328739953842      112.95505397574557
N          128.00633349155729      110.53938745114252      111.27815004218122
C          127.84346972631683      111.03688740808657      109.92267250515673
H          128.55224955994717      111.08918875745455      111.92333283634592
O          127.23998082984507      104.26683710198873      114.23966590105908
C          127.86621536544226      112.55920611752089      109.85206691534562
H          128.64799421895719      110.63887419914892      109.29592784659023
H          126.89862150400394      110.63604771466113      109.54979555253060
C          127.86118533882937      113.06087059760733      108.40493790289915
H          127.01195930023636      112.97798964336559      110.38517952897520
H          128.77761618243983      112.91673574002678      110.33747979293155
C          126.50103180842287      112.91901456096069      107.71917583771059
H          128.14629249204307      114.11340526189288      108.40977917396302
H          128.61183176924601      112.51061820752214      107.83432481089326
C          126.57976633596523      113.11541712884147      106.20445663801129
H          126.09528179415673      111.92531241893329      107.91162941923457
H          125.81405137710716      113.65412421085347      108.14026963753668
C          127.05035258656423      114.51045069495321      105.81744949659385
N          127.11684072788951      114.64014821079371      104.37336735503725
H          126.37457768417713      115.27348925061621      106.22035562407879
H          128.04525174659256      114.70397119283625      106.22698595212503
C          127.69705481141305      115.67603718558757      103.77013633951941
H          126.86391086004193      113.82304011303037      103.82265348295307
O          127.08008954635059      108.54335344370423      110.83601147218852
C          127.74548672862457      115.60037692071961      102.25442163425286
C          126.89237097430666      116.69956249855468      101.61170562725383
H          128.78514380530635      115.74036208864476      101.95177587940131
H          127.41248412700556      114.61713574092786      101.92380556552860
C          125.40908134920610      116.51912667742027      101.92103279939543
H          127.22706444826477      117.67103120179301      101.97941705667708
H          127.04298676157745      116.67793611328561      100.53060311406168
C          124.53891822119905      117.60345568116483      101.27918822746055
H          125.08146218278657      115.54868942870155      101.54215840958811
H          125.25620930720163      116.53102961336474      103.00275474446204
C          123.07160802318968      117.26159358750780      101.46537727137648
H          124.75780883643768      118.57775229468386      101.71239436248752
H          124.74486484458465      117.63694373953969      100.20711079661733
N          122.37934802799225      118.07281754397886      102.26151356925855
C          120.97771202760356      117.85353109417231      102.56548004313946
H          122.84088795671448      118.81124085213081      102.78481443502517
H          127.26287672138054      112.38194588262893      105.77262665226807
H          125.59371005330661      112.94954501285227      105.76613148007942
O          128.15222741586527      116.64134101190935      104.38721755681190
O          122.56820406148969      116.28268702848652      100.90927551827299
C          120.36390064686600      119.05397826395100      103.27181248561774
H          120.45364596188519      117.64491386761593      101.62835233404788
H          120.87624033861593      116.96993844997492      103.20190019304854
C          120.10809401869139      120.22444441304793      102.32744403271839
H          119.43071472063110      118.72599017132714      103.72864327836781
H          121.04275041201784      119.37677514642093      104.06221022215854
C          119.56394217515403      121.46259680223996      103.04082265616684
H          121.04793472782900      120.49039702295453      101.84021550717178
H          119.40156922112099      119.91723834994886      101.55367896676208
C          118.18394180324127      121.24025155243581      103.65871169177444
H          120.27116021275087      121.77203191125022      103.81242947600491
H          119.49527623130834      122.27636643366287      102.31564263853996
C          117.52066070900960      122.55668991936088      104.04893129486078
H          117.54081920896537      120.73586558030949      102.93549739479934
H          118.26144233011571      120.60195221047648      104.53932320921622
N          116.15374070022696      122.32765185845582      104.47140758989146
H          118.05967389675271      123.04169765538883      104.86453145164928
H          117.51987065022246      123.24668828275483      103.19640079755114
C          115.49810090528926      123.08930610191506      105.34728335847099
H          115.64877345253259      121.62175940261626      103.94296644940613
C          114.04174518924266      122.70455437278623      105.54684892878686
C          113.88219030809915      121.88404897323827      106.83319110764057
H          113.45489059560941      123.62166073518924      105.61334396409475
H          113.69676782906546      122.12086869367299      104.69319801769223
C          112.43965583477602      121.43147214388959      107.06986849569859
H          114.51531285074475      120.99854871359197      106.75387180232417
H          114.23210619154277      122.47280651190732      107.68246366720929
C          111.53175560052823      122.55732416572329      107.56921082659444
H          112.03650990373372      121.03392639462690      106.13693113053013
H          112.43556106913842      120.62808756478327      107.80532207149420
C          110.05842210982132      122.23477320837007      107.41256100411404
H          111.72281701227107      122.73613043663576      108.62983992683462
H          111.73825641225301      123.47783047344791      107.02873970991233
N          109.30548509662511      123.27400229129661      107.04956891946996
C          107.88407708234627      123.18637779098013      106.79622226206982
H          109.72307523684117      124.19904229540649      107.00568666618643
O          116.02595615329737      123.99910183719017      105.98879209840858
C          107.09483239648971      124.22810314830097      107.58617546813501
H          107.71148842998259      123.33734672167976      105.72321383224103
H          107.56935968906059      122.17704926716220      107.06795589557622
C          105.68234418275807      124.40849487839563      107.02894047480861
H          107.06050546439202      123.93963584152040      108.63761278982493
H          107.62611596015067      125.18055047632483      107.51393450028920
C          104.78677799580082      123.17581844351561      107.15415868689898
H          105.20031659112131      125.24297175039597      107.54048587927277
H          105.75612149050562      124.67610438137612      105.97224119808912
C          104.42495501980882      122.84162003280572      108.59991740882525
H          103.86351580247030      123.36876382429794      106.60197627957137
H          105.26845300988842      122.31547092652005      106.68938722011787
C          103.42072916075747      121.69632543027949      108.64951005273694
H          105.31470039656659      122.57814544844898      109.17307820136311
H          103.98214962164683      123.72428524738430      109.06898082172235
N          102.95105755480741      121.47240212473287      110.00332296395671
H          102.56424518480415      121.92278775218077      108.00224833655659
H          103.86982413252335      120.76560452881198      108.29846023601436
O          109.59726452618159      121.10388332556685      107.58006258809893
C          102.56656640597490      120.28446540392564      110.48029138432453
H          102.89247995774812      122.28879330453744      110.59270812430593
C          102.02274526309125      120.28736343805306      111.89595468667095
C          100.49391041758103      120.13363164264996      111.85157209852140
H          102.45329509668861      119.43288393269557      112.41856553866555
H          102.29828825060602      121.20030749551022      112.42228360944642
C           99.93392061926676      119.41287695072207      113.07520084605983
H          100.03524958311628      121.11928352038557      111.76456444273410
H          100.21746214455440      119.56146907532133      110.96492279830210
C           98.42982795181651      119.14659798530616      112.94960750359283
H          100.43674960431498      118.44899490705090      113.18428931550662
H          100.12012846122047      119.99659424299119      113.98003690425774
C           97.61170479593859      120.42756145710364      112.97340157722361
H           98.22797426812122      118.61148872503537      112.02105187008141
H           98.10842055160444      118.53259794858813      113.79137152375311
N           97.46873082576855      121.00613580203290      111.77840539416097
O          102.61207507792503      119.25259081585335      109.81640606162003
C           96.65644519911778      122.17518173300785      111.52869456373072
H           97.81727955444092      120.52405993297454      110.95166984435711
C           95.64067877324429      121.87021893114131      110.42750840040529
H           96.16218132061752      122.44423279487130      112.46539686021694
H           97.30363889865757      123.01117680396835      111.23582953726863
C           94.52839287223387      120.93637355415528      110.91988504078891
H           95.21473634941430      122.80389338381185      110.06082269675818
H           96.17675715975341      121.39962595950934      109.60161430736134
C           94.05754284596640      119.94254908521890      109.85485970784892
H           94.88993668688109      120.37101280174501      111.78172087017774
H           93.68211327568217      121.53522860696179      111.25897352504809
C           95.00478794605233      118.75076679675388      109.72973484622425
H           93.06824107288291      119.57011642963622      110.12934620102109
H           93.96472371314827      120.45013257175852      108.89293245148113
C           94.50698332720059      117.71691830743772      108.72321370777215
H           96.00728311388623      119.07992550044675      109.45345141523408
H           95.08220551532327      118.25883498888696      110.70258708124936
N           95.26026282559671      116.48950205485430      108.85722608208836
H           93.44274966529200      117.51286486851208      108.90272865594746
H           94.61241100768719      118.06862292231862      107.69319925672553
C           95.60682184318128      115.68876731099267      107.84701111790382
H           95.53698024061086      116.24613575844832      109.80102058578302
O           97.14065945697175      120.88164748524001      114.01205352055527
C           96.40301536912449      114.47124827517192      108.27004066373665
C           95.73683477257600      113.18003752816257      107.78847841481348
H           97.39430431994913      114.53946228171843      107.81907125794181
H           96.50290804357186      114.47268050905777      109.35498326379746
C           96.30611127477054      111.93403555801231      108.46886487623891
H           94.66362280636599      113.22856584336971      107.99107062936334
H           95.86444743951400      113.11152676092772      106.70725905981840
C           97.83606011285021      111.83750800322338      108.40853861985708
H           96.00780275844600      111.93630730798031      109.51940825631330
H           95.85966449277069      111.05349132079206      108.00208839988731
C           98.36042557595137      111.96545761515461      106.98835327576489
H           98.27772860038037      112.63408946806612      109.00627431183635
H           98.14507234615913      110.87929906685810      108.82757702230776
N           98.19083990582449      110.86279200628934      106.24196907349786
C           98.53428367432862      110.77869262109243      104.84037715802664
H           97.71466507343679      110.06850952778532      106.64043881403425
O           95.30369383615431      115.91149779532564      106.67389875497999
C           97.32835860713331      110.42588697849216      103.97008461094079
H           98.94109495044589      111.74883111139900      104.55792006825992
H           99.31090006352434      110.01908202570266      104.70407059779900
C           96.15008680423961      111.39011727850503      104.11544367237333
H           97.65681648384516      110.40926449851354      102.93040216951862
H           96.98648835351035      109.42096090962715      104.22806922303043
C           96.44463246296080      112.81472179528728      103.64061780173769
H           95.32026098132172      110.99388616206714      103.52548012640926
H           95.82209552616035      111.41666776728874      105.15626441150090
C           95.14908862159153      113.61917330921634      103.52200587839869
H           97.12338561869734      113.31448325215523      104.33268703050315
H           96.92802631176455      112.77110556683948      102.66236102903001
C           95.30951536678863      114.96281889355035      102.82039602719250
H           94.42795867972865      113.03272736404740      102.94878382274079
H           94.72136477885140      113.79055607332273      104.51215835876717
N           95.79008327719589      116.00850321726708      103.70419430129800
H           96.00990286804374      114.88687010811923      101.98266753835175
H           94.34186702046378      115.27611430191135      102.40518167952908
C           96.11676216175185      117.21203573482693      103.21950644539008
H           95.62375370033764      115.89954287698846      104.69892477018819
O           98.90802045282018      112.97753042694124      106.57333052744315
C           96.38723540627525      118.28101515690426      104.26183403422165
C           97.55626163744903      117.95889052505177      105.19177576542982
H           96.57570366708813      119.21945436156331      103.73699441991282
H           95.48145618393502      118.39520203008591      104.86148646979498
C           97.74070534764549      119.07535880006827      106.21641247896201
H           97.35865733812581      117.01972694998159      105.70914989565951
H           98.47328534360337      117.84400950394306      104.61140542823517
C           98.85032222590674      118.75625618374205      107.22109358901666
H           97.98404746383146      120.00760562459755      105.70320234154563
H           96.80262827690531      119.21864809318366      106.75795931741756
C           98.87527930412843      119.82791693405116      108.28855687529725
H           98.64484605753472      117.79738916258174      107.69738787845178
H           99.81182142548634      118.72080560598044      106.71055211228608
N           99.52055518997369      120.94019816067740      107.94271000911580
O           96.18861288452662      117.44549569732291      102.01377747612405
C           99.61576072570683      122.11195136410223      108.78752055803047
H           99.98622017776989      120.96878664783335      107.04144511475823
C           99.71628972601245      123.38662018280307      107.95597605263021
H           98.72588293643341      122.14500995212646      109.42139703230694
H          100.48838702099602      122.01322197320196      109.44088073973343
C           99.74031713748903      124.64744863222009      108.82253211671930
H          100.61453500574882      123.34522775674401      107.33678839215166
H           98.85461140640631      123.43215333642962      107.28808550446391
C          101.02650240906812      124.81733757876455      109.63023095581664
H           99.61866741400459      125.51714743268263      108.17445062551357
H           98.89266110790994      124.62781037745795      109.51051946788358
C          100.95868828230353      126.06172675930107      110.51470067046833
H          101.16987785166107      123.94881527714878      110.27443252382059
H          101.87553552311185      124.88519002255795      108.94736539349697
C          102.21418918018358      126.27461726395036      111.34905358774598
H          100.77616659860678      126.94569426876231      109.90061685847704
H          100.12478239725785      125.95344097405854      111.21040517741150
N          103.36501575682566      126.61739746406724      110.53405568412073
H          102.03515177921841      127.06839247845171      112.08410584232867
H          102.45673863443776      125.36696815821729      111.90684140805671
C          104.61814951377650      126.58310993831009      111.00170951822921
H          103.17412716089545      127.02581743708366      109.63274995918158
O           98.30420693525025      119.68176201087967      109.37102847331711
C          105.71764702752041      127.02917809508861      110.05749500272856
C          105.29844404902506      127.99921614324985      108.95753340620757
H          106.49456857772002      127.48467573039285      110.67587752172709
H          106.14626737624825      126.12235955241276      109.62206501019988
C          106.50239300607646      128.51966349307915      108.17333953537801
H          104.62093765412405      127.51870606975559      108.24910873535424
H          104.77715432492477      128.85072339032848      109.40127357860683
C          106.05533688398302      129.44484028784254      107.03255081153817
H          107.16207918217702      129.07643822663610      108.84118829499468
H          107.06827444290199      127.67956567500825      107.76620866200275
C          105.34912534968069      128.65463649918362      105.94917806027510
H          105.34652275620242      130.17536611941583      107.42612562143333
H          106.91526617894260      129.97403027119947      106.62883050333721
N          106.08050796063500      128.21150307813869      104.91753316468203
C          107.48288342302658      128.43953308334977      104.63058599906736
H          105.56755719331876      127.67822805623105      104.22881060562301
O          104.88475475899622      126.17961224709300      112.13265341423433
C          107.82464515518721      128.10429228584732      103.17880656054626
H          107.71107949918094      129.49446790497910      104.80784028804094
H          108.10249923463873      127.83946131344594      105.30665633351636
C          108.15834362944473      126.63620967731690      102.91457162460667
H          107.00319208455234      128.41922813166428      102.53319457117989
H          108.69792988535393      128.69076473468928      102.89790853319880
C          106.94373546478353      125.71133159316381      102.93638999881618
H          108.62813725509258      126.58416536936183      101.93033261357466
H          108.88977243179424      126.29579461340660      103.64917394994725
C          107.29192391205027      124.31619439381899      102.42039548299988
H          106.54952388130343      125.63122358379778      103.95078995457555
H          106.16314733273721      126.13104019754562      102.29746172089666
C          106.04715859200782      123.44754954717722      102.28598459208600
H          107.76076432597647      124.41261629138067      101.43816143099428
H          108.01119614135472      123.83706265872559      103.08694680264414
N          106.35561661078629      122.19985274792828      101.61896450392346
H          105.62094888005288      123.20380266241207      103.26277981541311
H          105.28375207848676      123.98782323516951      101.71147546982151
C          105.64285522804498      121.07630338736885      101.77170182697519
H          107.10906802585880      122.21192657077491      100.94805660438128
O          104.14877233941318      128.39351655503174      106.01423126972037
C          106.09145736291924      119.93698204614986      100.88133274847161
C          105.75333010719361      120.21909131349992       99.41521491353303
H          107.16949248172918      119.80758672746710      100.98290773800805
H          105.58993082032225      119.02419956520838      101.20370387504036
C          104.25352626727215      120.38923943547908       99.18413097887606
H          106.27526348530772      121.11879769764589       99.08372650412782
H          106.12017341989100      119.38958661997461       98.81000804012739
C          103.89386677691677      120.28265557946433       97.69942337865325
H          103.70334334603318      119.62774168294708       99.73710129573931
H          103.92821076519438      121.36056013952292       99.56116870034279
C          104.17444718357946      118.89095477241801       97.16092508668613
H          102.83048019245292      120.48941462888745       97.57592428021121
H          104.46766483909721      121.00500725463722       97.11780154561980
N          103.38991253712359      117.94302786714090       97.66797335349332
O          104.71051576997371      120.98566694143010      102.56140992449784
C          103.45081409551275      116.55106385883280       97.27487329381022
H          102.67398505068458      118.20224955458613       98.34312118811974
C          102.07327260169902      115.91148639564443       97.40297031636217
H          103.81610794941625      116.50353071025854       96.24468539381931
H          104.17007912622842      116.01908540027317       97.91017139141826
C          102.08860885948580      114.42718874232644       97.03840452917530
H          101.74050395393181      116.02482925180641       98.43649235784477
H          101.37043889140286      116.45184508760953       96.76829630037156
C          100.89257379352958      113.66641978117691       97.61127416482555
H          102.10976392424584      114.31549189760911       95.95297285175714
H          103.00559947930635      113.98011705819862       97.42812934538689
C           99.55751248584652      114.09365160565845       97.00675855057814
H          101.03184177638109      112.59884857844571       97.42800889450646
H          100.84361796235615      113.81197681575961       98.69094996994720
C           98.38533594904786      113.37676822534894       97.67670826482222
H           99.42063042503831      115.16951380038378       97.12796553417223
H           99.54707382206183      113.87086086857899       95.93807380132317
N           98.26102099897797      113.80072483016677       99.06569198622577
H           97.46869174476456      113.56222339779572       97.08974528745776
H           98.56864561395399      112.29850631697524       97.67451571053125
H           97.51503542981800      113.28497712390504       99.51881466516910
H           98.00904324698624      114.78414127306171       99.09841127089422
O          105.05935957828734      118.65757871553816       96.33364733862875
C          135.94259071503114      109.64225070391389      114.59236223927398
C          135.28888550409582      110.12483690881459      115.85583727046220
C          135.22993518528864      108.39606089021584      114.04038817870011
C          133.87144681502497      108.72106145030193      113.42366117578239
H          135.87133544915562      107.95891533118014      113.27420427136873
H          135.11226770318493      107.65738055139622      114.83613427195513
C          133.23063416572774      107.46077569542541      112.83830808638875
H          133.21045006403318      109.14497667097631      114.17970856703162
H          134.00557011531964      109.47193845303661      112.64261398280874
C          131.91797103645590      107.73113037619942      112.12766225480904
H          133.91339232530427      107.01090253777311      112.11430031172654
H          133.04622053425518      106.73156031546388      113.62901747584147
N          132.01563051487000      108.53060747491840      111.06392836276832
O          136.02283752822342      109.88252967104671      116.93074405078683
O          134.20371532094757      110.66194733809830      115.92135392167408
H          135.60332959220176      110.18578210267196      117.75661156131625
H          136.98156362104933      109.40626921068160      114.81756852771565
H          135.89690292612127      110.43583853438376      113.84493241147682
C          130.92934378066144      108.85893123033262      110.16959579245405
H          132.87985125525037      109.02838477430529      110.89297732731764
C          131.27407509931757      108.43390518095102      108.73926928125026
H          130.03960424735641      108.34179269064639      110.53176949540646
H          130.75989026979710      109.94006036288751      110.20633001508799
C          130.19571419270150      108.80610587836249      107.72125301252689
H          132.21298978784606      108.91832660194220      108.46189149033650
H          131.43695831347281      107.35469619109040      108.72079332233693
C          128.91687235509576      107.98409740269111      107.88068476180436
H          129.96885128450762      109.87007701659498      107.81219772856269
H          130.59532126072187      108.64487548946073      106.71844147549655
C          127.81438300832274      108.44882268288166      106.92861308377191
H          129.14382036155837      106.93508394560530      107.67965849669723
H          128.55872191352748      108.05141288353865      108.90725915081099
C          126.58811305020625      107.54752710934471      106.99288215318165
H          127.52396159836003      109.47189356227457      107.16929439470398
H          128.19163154791002      108.43674576101472      105.90521605362119
N          125.90427860982375      107.65260945044344      108.26592364902999
H          125.86795865288641      107.80972041606501      106.21167866756755
H          126.88467968737473      106.50441244871250      106.81998543471259