3795
 energy: -5103.063543438064 gnorm: 0.000945902015 xtb: 6.6.1 (8d0f1dd)
C          121.87844490684671       99.28210824804599      106.12947763076268
C          122.14889864753850      100.70274263902363      105.69306082146905
C          121.73716428644850       99.16447025134752      107.65449848986270
C          120.42345461996267       99.72720041235078      108.19825406734601
H          121.78644096765237       98.10446300384504      107.91220986673602
H          122.57934566751376       99.66633832722425      108.13307533295530
C          120.37000274387957      101.25730011072201      108.24317280470223
H          119.59728503495690       99.34981582011184      107.59079436321764
H          120.28793128966571       99.36482464971220      109.22007308944053
C          121.24915080970649      101.79503201304091      109.36441433376973
H          120.65548493990202      101.68776996881577      107.28687018078097
H          119.34441664253720      101.55873581901260      108.46193635148620
N          122.17456109219106      102.68479063561858      108.97671963992808
O          123.27631189570540      101.17458343883634      106.20299065217932
O          121.43192718118617      101.34604435259708      104.96280683478000
H          123.31651060078430      102.15781794104701      106.09005042150422
H          122.72869112773961       98.67672871007792      105.81008390319212
H          120.97761923035299       98.92229675527831      105.63165762139730
C          123.15629884548760      103.23874015481695      109.87915855454037
H          122.27078842588723      102.96515115253224      108.00354681375732
C          124.52890278353641      103.32300466611218      109.21690117624850
H          122.84469628162026      104.24402883811291      110.19458599830955
H          123.18488839910414      102.59620744954366      110.76328918964700
C          125.56898875138609      103.91387390771810      110.16559281785210
H          124.83631131941347      102.32700988915215      108.89442817339899
H          124.44545581320736      103.94955737754570      108.32634072833503
C          126.90630140938704      104.16789096579222      109.46982775501841
H          125.19442312096274      104.86138476271313      110.55658711084918
H          125.70330862056177      103.23879851135344      111.01156589692479
C          127.86450534830824      105.00106246810002      110.32247314656024
H          127.37542707562949      103.21717617130524      109.20867862404802
H          126.71103027020878      104.70884394731311      108.54160551805495
C          128.41413751162727      104.23330980762725      111.53211070300843
H          128.69883549651792      105.34413595231430      109.70765242454407
H          127.33877575434033      105.88874895308248      110.67953787338888
N          128.72546248964414      105.12328918310190      112.62618827793955
H          127.66588047781455      103.53534044889213      111.91261594513890
H          129.30728792834225      103.66634099984445      111.25073547476630
C          128.04149904242757      105.09951175685346      113.78076655659508
H          129.41602881646949      105.84445838064751      112.46222495434267
O          121.10023635276576      101.45459128133341      110.52839608690550
C          128.38319503797669      106.21674575572266      114.74484236598539
C          127.24471081020177      107.24026569888586      114.83061398687670
H          128.52472219514576      105.78138962734070      115.73489154048480
H          129.30443395151204      106.70000774738890      114.43111261546241
C          126.89590159137893      107.87664306206059      113.48779058484861
H          126.35997388127196      106.73562929468503      115.22252904156244
H          127.52700675999914      108.02761212142384      115.53253010528347
C          128.00161819732790      108.77516167141033      112.93131938701524
H          126.67162242075894      107.09570175651524      112.75823292198174
H          125.99467902595863      108.48442873246267      113.60943928616787
C          127.66123967117525      109.21894714017984      111.53082582006262
H          128.17477051183394      109.62411776596366      113.59351316965625
H          128.93428088498723      108.20957064157261      112.85672253510751
N          127.94479088810282      110.50188046103672      111.23530667377749
C          127.79221096882486      111.02391223064232      109.88992877832312
H          128.43964680951709      111.06153567353239      111.91212391059138
O          127.20456261663807      104.24284366326707      114.03377817005143
C          127.84078803705650      112.54632003283669      109.84443256030077
H          128.58953007149938      110.62422592322032      109.25338547585692
H          126.84349765379791      110.64254306955496      109.50360584123075
C          127.84565966359382      113.07698284435394      108.40816012405678
H          126.99276502245583      112.97004671417253      110.38485860259750
H          128.75769062192592      112.87987344562927      110.33694594888460
C          126.48278522182605      112.97293045733051      107.72128895378610
H          128.15048594960052      114.12372946393714      108.43104333494453
H          128.58722624263260      112.52354001274719      107.82670770454642
C          126.56022133427039      113.16796251635283      106.20694914899767
H          126.04930871205842      111.98988120041032      107.91542800942187
H          125.81561702616401      113.72517802077697      108.14502221403113
C          127.07084071591008      114.54718097269117      105.81369810477115
N          127.12357761475626      114.67176752473881      104.36934631996185
H          126.42378071531269      115.33030569741925      106.22508125897210
H          128.07666885148905      114.70572182925216      106.21421400965035
C          127.74229101218373      115.69184321597952      103.76958784764928
H          126.86809811165993      113.85018613300892      103.82664115493606
O          127.16427043863439      108.46606330094397      110.70104454266347
C          127.78623567876951      115.62651155575786      102.25401683762780
C          126.93325425146853      116.73799971491906      101.63190813062224
H          128.82523977083036      115.76763477389660      101.94955672556206
H          127.44900503537701      114.64815089117519      101.91228891417610
C          125.44890764169170      116.54515845243458      101.92826838573257
H          127.26393476474466      117.69996587369083      102.02662067675146
H          127.08996756188540      116.74396560691727      100.55095224969331
C          124.57904516651921      117.64649592179968      101.31674663060139
H          125.12411063963232      115.58627162494741      101.51819941687071
H          125.29162245836794      116.52285531999000      103.00908299660740
C          123.11131182269175      117.30214599022639      101.49925595415782
H          124.80171858403396      118.60970635420369      101.77184230248598
H          124.78059059589471      117.70529026728447      100.24452205727161
N          122.41504822761212      118.11992645205608      102.28619552168402
C          121.01272760208120      117.89573980255325      102.57853400967316
H          122.87615816648609      118.84196020633695      102.83678722943496
H          127.21608731669566      112.41100394571919      105.77138816013911
H          125.56605441162682      113.02740175620684      105.77626104357013
O          128.21993866531784      116.63653433699842      104.39024763246117
O          122.61322979641906      116.32098652650242      100.94779237844524
C          120.38799647546864      119.09736063564429      103.27405549390052
H          120.49687906811717      117.68027649823451      101.63846490852237
H          120.90553365767086      117.01549198993723      103.21838363989359
C          120.12925851815309      120.25921976936212      102.31950697465686
H          119.45481220840881      118.76663477271894      103.72957628863200
H          121.06293580333576      119.43120295287802      104.06314231953158
C          119.57017071958757      121.49798520488356      103.02048944668502
H          121.07055790101674      120.52756657936244      101.83670265952158
H          119.43017090871921      119.94143388147823      101.54200858190882
C          118.18624367010592      121.26867465907826      103.62654235935945
H          120.26754048624848      121.81511570267990      103.79764342309804
H          119.50132637428374      122.30815217169639      102.29086160813931
C          117.51341233782603      122.57815425784162      104.02571752450953
H          117.54986217537932      120.76691871616998      102.89501418117152
H          118.25882104125230      120.62134780706708      104.50184177784065
N          116.14822476903490      122.33192583499141      104.44325378129535
H          118.04602845820583      123.05857931500556      104.84814551404737
H          117.50866000631780      123.27498235709075      103.17923551279343
C          115.50153207775659      123.04997655164924      105.36236952804509
H          115.64607231623269      121.63373463756473      103.90174444875861
C          114.04835980418694      122.65107842959802      105.56277350312476
C          113.90040085579176      121.82779740574770      106.84794245953687
H          113.45437198826409      123.56297299336195      105.63649636230323
H          113.70289967132069      122.06750921731955      104.70898701873338
C          112.45808919751713      121.38656008374001      107.10558964268978
H          114.52717259988474      120.93729515287916      106.75946371689268
H          114.26725487100742      122.41193815863713      107.69378388259872
C          111.56449304113418      122.52388183954365      107.60284955514011
H          112.04150443884151      120.98104202762643      106.18151095817552
H          112.45801058830904      120.58996157088025      107.84911388572728
C          110.08635875646068      122.22395052129046      107.43863891631314
H          111.75441213445248      122.69950648763188      108.66427552605090
H          111.78552301144272      123.44104284117201      107.06269368518251
N          109.35103413400745      123.28552538785117      107.10279566654079
C          107.93072081979059      123.22002458988118      106.84276613401681
H          109.78925900774404      124.20268441927611      107.05704597845653
O          116.02927772491358      123.93167140969342      106.03520298522136
C          107.14537304753867      124.22884784252069      107.67880959960736
H          107.76143297547864      123.41867176762187      105.77592894629670
H          107.60966804323645      122.20100891805542      107.06686397249601
C          105.73262133820722      124.43680363212530      107.13197635097394
H          107.11131879727547      123.89162518550087      108.71553537602823
H          107.67988549811807      125.18204785221239      107.64494886853976
C          104.82264096158885      123.21315668197441      107.24153002461847
H          105.26121763981071      125.26808126614232      107.65791020903610
H          105.80303806221582      124.72404646222411      106.07914500224668
C          104.44161678921040      122.87822993086715      108.68219271251121
H          103.90846377018602      123.41722894526740      106.67702675342851
H          105.30073857141780      122.34947198463428      106.77771338435298
C          103.42611595889313      121.74220694684394      108.71499889465386
H          105.32325842225028      122.60597583201488      109.26335100327388
H          104.00000503220411      123.76414415121937      109.14679587362293
N          102.94483470910465      121.50838623161742      110.06192874132623
H          102.57710615435917      121.98231621202933      108.06193617931579
H          103.86882650337239      120.81020622412717      108.35850382577340
O          109.60902219717288      121.09911251303001      107.58054434050767
C          102.56245027463943      120.31085027691668      110.52219677462340
H          102.86446706116973      122.32127835675561      110.65328411731286
C          101.99037334041340      120.29459505708864      111.92413106157423
C          100.46442729799023      120.11367029918559      111.85500695893218
H          102.42633054351352      119.44379613396971      112.44857006241915
H          102.24149640168341      121.20811451535873      112.46177453036115
C           99.90525628902148      119.35427690572971      113.05605455844011
H           99.99124929617736      121.09325878343303      111.78631177308434
H          100.20989161074905      119.55876074390305      110.95163336606011
C           98.40318614887177      119.08159130351741      112.92076314095236
H          100.41794430630941      118.39302068853424      113.14065550342093
H          100.08563613340156      119.91510140154931      113.97617098013897
C           97.57900310598841      120.35673723065088      113.00258088812500
H           98.20314679079715      118.58504419608208      111.97100781618759
H           98.08990407444072      118.43094354036094      113.73700219442507
N           97.45740253117533      120.99869260506586      111.83468922531208
O          102.63731255280976      119.28873164567104      109.84918464527051
C           96.64950947281130      122.18036156098854      111.64450253071627
H           97.79947665561050      120.54881294982896      110.98855761201435
C           95.61511523128738      121.92559491487309      110.54721523045052
H           96.17038907016160      122.41164992141886      112.59864355786659
H           97.29488943634649      123.02518524062279      111.37439198921292
C           94.51622967618800      120.96018657311583      111.01050628307193
H           95.17750421431748      122.87436086397547      110.23421120720910
H           96.13679843957306      121.50140367005815      109.68729329644275
C           94.08341481847094      119.96779494213449      109.92798283094069
H           94.87610867840486      120.39302446337530      111.87082722162224
H           93.65004766710773      121.53490697095717      111.34296236796858
C           95.06025639155460      118.80063877807373      109.79832037675867
H           93.09905789221399      119.56903362627409      110.18615906990307
H           93.98584873255018      120.48521893367641      108.97094189479164
C           94.59464886470737      117.76630036366582      108.77760051511081
H           96.05609192335767      119.15601603393458      109.53277014836202
H           95.13819489271765      118.30074569024951      110.76634802228685
N           95.37746750449666      116.55763465658910      108.90804477649699
H           93.53344940093011      117.53473539180303      108.94600060993243
H           94.69716391878136      118.13013242718814      107.75152387008535
C           95.66782223917704      115.73353412862738      107.90046550011135
H           95.67738775157908      116.32529843986384      109.84952553316565
O           97.09231297518009      120.75352852754591      114.05078629428749
C           96.48676550969969      114.52316313864340      108.31467072347523
C           95.83611206676609      113.22512936649440      107.83370201184258
H           97.47373080282750      114.60686380520870      107.85747796820678
H           96.59235207525241      114.52123308538260      109.39890425383368
C           96.40115968695449      111.98856500279796      108.53363031199456
H           94.76021368419481      113.26537283969206      108.02102861055860
H           95.98029307557111      113.14305718406266      106.75593927220126
C           97.93160504388162      111.89228360011450      108.48241045811244
H           96.10009172947105      112.00326118681953      109.58340541658713
H           95.95950614727188      111.09654592198375      108.08035197055817
C           98.46571765983335      111.97002424567206      107.06417491405384
H           98.37067143881727      112.70879994649908      109.05374489299594
H           98.24176981195063      110.94828416545325      108.93502979635211
N           98.25559340128036      110.85390566066107      106.33778882959021
C           98.59247069196930      110.74233547309757      104.93810987513601
H           97.75297276510361      110.08436671892966      106.75036808783878
O           95.31575286757058      115.92842617441129      106.73992989185361
C           97.38146153462861      110.38013524095497      104.07838091269333
H           99.00046337465767      111.70773718645597      104.64021606182088
H           99.37023250238380      109.98030343758984      104.80795320570923
C           96.19040796918904      111.32522294198928      104.24575013957286
H           97.69844097515433      110.37278843998827      103.03432195374101
H           97.05814652564312      109.36713044425662      104.33354317649182
C           96.44022171767625      112.75597222195523      103.76441499819927
H           95.35580247267136      110.90974680656522      103.67517727940239
H           95.88546039404775      111.34495127343217      105.29381437149010
C           95.12689015364207      113.53989032222229      103.72702602832834
H           97.15105707686180      113.26036112565158      104.41950669412293
H           96.86999907064866      112.72373349595009      102.76004659869844
C           95.21359847207330      114.88290404617770      103.01056679101303
H           94.37932735331967      112.93586875366670      103.20699383130430
H           94.76544741203031      113.71035211471965      104.74276099752682
N           95.77252906803344      115.93395226559760      103.83435973080356
H           95.82903100291693      114.80861714971266      102.10853143960186
H           94.20380966486340      115.17947423731641      102.69324748196031
C           96.20622059920683      117.07242105109493      103.26962088941829
H           95.57013404064844      115.90813721129483      104.83006494965218
O           99.05145377812707      112.94212936033496      106.62347716716906
C           96.50183012321818      118.20177340161197      104.24067666712736
C           97.60997012811686      117.89055126875758      105.24550890953408
H           96.76674099417248      119.08394192443369      103.65466220173172
H           95.58125886185809      118.41398493300549      104.78887909136022
C           97.79345336842646      119.05707761522133      106.21411690604458
H           97.34794916336740      116.99232598843207      105.80485352733130
H           98.54888871440897      117.70179438549468      104.72026686306941
C           98.85058963781724      118.75300641282911      107.27809781203270
H           98.08971026553866      119.95164034992229      105.66306505980019
H           96.84065143907115      119.25911812597538      106.70835666075217
C           98.85647847979868      119.84749074106436      108.32215119920792
H           98.60387263324539      117.81345619603934      107.77327663448499
H           99.83317278636197      118.68179938752527      106.81197259010447
N           99.50557513483444      120.95810118624590      107.96966490752089
O           96.34704892408639      117.20058371155596      102.06087526154593
C           99.59912489437946      122.11897082189260      108.82836588242549
H           99.98912227455219      120.98018015633897      107.07810633610778
C           99.69659297513088      123.41069866670666      108.02373027131239
H           98.70850356256494      122.14024000603860      109.46163951008512
H          100.47208209928978      122.01361873308883      109.48074559683484
C           99.72246094411095      124.64988069933342      108.92189552808530
H          100.59252170910580      123.38547718951327      107.39908713651380
H           98.83305923047382      123.47105602650774      107.35857953124577
C          101.01610674615216      124.80656867784820      109.72028088833592
H           99.58737171117187      125.53633420403933      108.29872816120393
H           98.88367358888148      124.60584363833077      109.61910650916791
C          100.94090167817018      126.00573443185596      110.66459810182842
H          101.18171968771176      123.91115425317300      110.32058226191981
H          101.85573860606362      124.91786676510678      109.02964184808481
C          102.20497757629751      126.19739376856377      111.49030630623531
H          100.73513463348118      126.91444521689310      110.09428089471062
H          100.12063243099286      125.84685150531264      111.36665221208389
N          103.34949143110225      126.56913067393079      110.67759558387627
H          102.03098097801524      126.96674906879605      112.25159387208443
H          102.45810892218152      125.27247916190989      112.01202950507184
C          104.60927345484033      126.47665116858843      111.12522122274558
H          103.15435596566967      127.04374841954059      109.81106621899362
O           98.27692687247297      119.71998957951295      109.39784867172190
C          105.70935322633545      126.97053364163473      110.20407652637402
C          105.29216614120172      127.96500488171827      109.12749628181396
H          106.47401989775756      127.41738967577722      110.84377185733798
H          106.15592196739890      126.08329908146395      109.74681881305877
C          106.50027787518728      128.50609025979003      108.36333816927004
H          104.62186090706538      127.49690692681732      108.40383489361999
H          104.76500462786932      128.80557879042743      109.58610936994181
C          106.05023951972717      129.36019559999406      107.17036588945317
H          107.11719292758914      129.11382864114159      109.02828610949049
H          107.11369315191060      127.67574493191364      108.00599291264407
C          105.42153308955254      128.47505466752943      106.11306584486303
H          105.29057166062395      130.06794374203386      107.50608643049624
H          106.89428163769823      129.91784599979167      106.77000919986152
N          106.20767901803187      128.02802704914654      105.11323966529240
C          107.61149532630822      128.26573167442669      104.85980564034867
H          105.73462701827891      127.42478768820200      104.45542208809596
O          104.88294890410755      125.98808327943107      112.21426367214050
C          107.97296722319430      128.00255060931784      103.39685546482937
H          107.84065946486558      129.30905973935799      105.09447944088068
H          108.22579221143532      127.63093190220627      105.51131268556767
C          108.31557907736408      126.54892331736166      103.06940894850148
H          107.15426183246392      128.34159912926896      102.75887219891142
H          108.84495992593317      128.60590219810388      103.15062584114554
C          107.10341925787148      125.62161527186667      103.05808922158688
H          108.78357628639334      126.53870530328123      102.08314534462828
H          109.04798211529528      126.18082501409306      103.79040098373561
C          107.43877971126136      124.24247328075224      102.49466791375607
H          106.71344592422763      125.50174471736473      104.07080752636328
H          106.31854161507867      126.06558273780620      102.43989521210496
C          106.18318521379570      123.38936366054934      102.37566949604030
H          107.88695405787927      124.35850161771239      101.50503165235854
H          108.16929799259010      123.74230681281375      103.13358476241613
N          106.45864828438093      122.12768357670174      101.72434202637983
H          105.75689138834130      123.17172890411477      103.36010493203706
H          105.42334828942197      123.93557813815184      101.80003796875933
C          105.66206262594575      121.05740668800583      101.86190679733950
H          107.27830852852789      122.07037983860600      101.13692965103878
O          104.25145005080881      128.13391886047575      106.16564429287617
C          106.05687633895484      119.88097544153203      100.99680956818919
C          105.77070412059054      120.17473320926820       99.52180579677297
H          107.12075993517271      119.68384987344156      101.12632528226101
H          105.48582523325378      119.00735376827241      101.31264610546938
C          104.28779573964167      120.42715302187064       99.25756132725523
H          106.35342491022347      121.04146619543359       99.20227345140269
H          106.10241596325217      119.32294916756992       98.92775667880544
C          103.95847961010740      120.34774186028869       97.76463649915608
H          103.68640065439011      119.69218767907326       99.79247922351836
H          104.00702500279129      121.41223147704439       99.63567598387758
C          104.23848237411958      118.96290667456569       97.20591514941822
H          102.90037739758156      120.56934311620991       97.62081848484401
H          104.55162875772778      121.07365143079477       97.20670732651821
N          103.45239677786829      118.00655140161817       97.70132796953463
O          104.69516473958882      121.04784248325072      102.60970979442037
C          103.51791303054983      116.62491038421868       97.28090968885131
H          102.75117052252621      118.24481897743966       98.39843476438713
C          102.13689866937803      115.98659935883634       97.37794933688774
H          103.89693548059203      116.59883532869996       96.25513734185115
H          104.22626370867718      116.07427838039288       97.91451635916006
C          102.15587790678943      114.50024648106663       97.02135887281236
H          101.77902388707844      116.10717538644455       98.40297645384939
H          101.45053185171702      116.52643598358787       96.72503434269207
C          100.96729448422161      113.73833231971007       97.60765392823414
H          102.16978769811951      114.38118131899098       95.93672000738773
H          103.07733605217020      114.05803452366756       97.40774511104517
C           99.62526399433386      114.16044254746581       97.01539586768190
H          101.10769056319347      112.66979064887698       97.43035959135193
H          100.92884599211905      113.88950285872626       98.68793478712169
C           98.46047187418569      113.48599524788405       97.73906485266576
H           99.50558864401991      115.24171836794838       97.10109415045316
H           99.59003536184292      113.89891264458437       95.95638811167561
N           98.37365990664901      113.97524054254062       99.10950121974594
H           97.53370164184382      113.65568031314932       97.16592340175659
H           98.63352461226648      112.40691804419988       97.78374848959430
H           97.63127407692529      113.49303735222173       99.60478685738217
H           98.13575654384096      114.96286430942976       99.10353496062704
O          105.11769342101206      118.74099559274845       96.37779091380867
C          135.91513785520573      109.76827423438171      114.57697094035747
C          135.24840607428510      110.15510915045417      115.86499962749811
C          135.24360384629713      108.51901676522151      113.98082895752988
C          133.87397456785123      108.82651361683799      113.38056237410018
H          135.89622260744486      108.12820886404320      113.19833707095053
H          135.15372385672276      107.74914182050101      114.75091204200025
C          133.24534051623439      107.56243176466779      112.79354751501070
H          133.21601813902205      109.23566700844277      114.14701191351715
H          133.99454001410450      109.58322368904626      112.60329439453965
C          131.92552065598380      107.80814154924371      112.08267514075844
H          133.93026403554859      107.12450713095897      112.06263191582033
H          133.07565038119012      106.82333079129788      113.57887316155481
N          131.99279548368995      108.67795195225494      111.07120140264381
O          135.97372017912656      109.81889918596451      116.93019851660306
O          134.16702903222290      110.68282703270064      115.96928306571516
H          135.52233102148250      110.05400720084100      117.75708494072903
H          136.96523935476282      109.56530372149437      114.78291626555976
H          135.82892138370983      110.59146577747970      113.86633588361262
C          130.91201510877181      108.95433259747007      110.15656704901933
H          132.82119851982986      109.24716067345742      110.93691795621798
C          131.32602613301049      108.58063248002659      108.72979458261105
H          130.04846497215024      108.37257299766740      110.48120605937557
H          130.67094947374343      110.02138814702886      110.20384114021509
C          130.26167218884109      108.90812444890128      107.68282307213559
H          132.24381507399639      109.12392803586833      108.49246332387558
H          131.55245459352994      107.51296339302982      108.69620785028309
C          129.01702416518208      108.03157954119149      107.81231667059055
H          129.98531166310815      109.96207875084333      107.76684004159542
H          130.69293260717910      108.76774170636132      106.68880238838891
C          127.92282876764212      108.42341309558660      106.81959153399438
H          129.30053114234175      106.99108748372770      107.63876491071535
H          128.62080623105427      108.10557874262582      108.82392755823599
C          126.75104756470078      107.44477805802428      106.85669162612457
H          127.56229698001356      109.42881350389032      107.04384600803348
H          128.33229908437454      108.43161163303618      105.80729099619106
N          126.03390592173857      107.48369109149954      108.10858941967319
H          126.02421793644061      107.67661981470066      106.07464075181271
H          127.12781930677758      106.42791184196540      106.68151578763312