3536
 energy: -3716.282289982903 gnorm: 0.000836849519 xtb: 6.6.1 (8d0f1dd)
C           41.97147387855397       48.43126055127355       65.32515591067812
C           43.05742729165114       48.87111602440909       64.34630991006358
C           44.31957296558269       48.03551156728113       64.56120070274008
C           43.39960645505566       50.35694949005875       64.50341949517848
C           42.26051060403305       51.35028688268980       64.24761832563755
C           41.61518621056285       51.12794635860175       62.87997851576479
C           42.78125414049601       52.79445453864597       64.30546942362510
C           43.42913104077486       53.24634251234590       65.61944415361600
C           42.46714118542532       53.07995812897031       66.79598407114273
C           43.85283942433135       54.72083314693427       65.52364511895473
C           45.01891526591040       55.01644026152861       64.57336116951477
C           46.32986682188204       54.45706624216499       65.12282488320922
C           45.18492276804488       56.52607262838838       64.34578420187101
C           44.01911309544743       57.24280086996086       63.65405345769954
C           43.62689968465497       56.54751116351762       62.35020993832627
C           44.38478546934122       58.70202433633277       63.34558647675716
C           44.71108674449249       59.59691628397941       64.54494764197449
C           43.55875705692968       59.62781718843426       65.54984714704030
C           44.99906865811173       61.03305409868879       64.08352556986070
C           46.21494255461714       61.24304405252526       63.16905455588962
C           47.48437996286236       60.67335233796176       63.79712451152145
C           46.36384073246016       62.74910441762337       62.90997792985628
C           47.27215474842285       63.13895749067296       61.73214395710637
C           47.80743672628371       64.55094213822193       61.96215418532952
C           46.49605061803673       63.05097769584131       60.41315330241527
C           47.30660463551289       63.27753690154625       59.12755694351012
C           46.34103771620393       63.52722522908668       57.97180823089846
C           48.21687381774510       62.08199843343164       58.82953914343603
C           49.13269198316905       62.20654400223786       57.60089411465928
C           49.78396506764818       60.84772258763321       57.34721207663536
C           50.17744614288102       63.30710708887977       57.81750099395489
C           51.22261198709100       63.51460060424487       56.70875343747238
C           52.26817715279728       64.50027229289230       57.22258268118019
C           50.55116020943948       63.99217327309103       55.41557771114927
C           51.40793309948686       64.11863067026937       54.13938520333757
C           52.34535742177654       62.92483050328568       53.96308783682418
C           52.21115306820267       65.41969145310360       53.98786899547107
C           51.41815613500075       66.72489932706337       54.10559855837866
C           50.19028652284733       66.72091014560496       53.19407036698504
C           52.27894868396441       67.93960552639797       53.72525125839898
C           53.57940989308453       68.16708547044853       54.50861983312754
C           53.30571347630727       68.44202309965659       55.98491349343318
C           54.35542972113655       69.34673640576435       53.88786143529990
C           55.59801564530353       68.97773522205330       53.06544337981402
C           55.24797524408632       68.02851922259072       51.92070856809332
C           56.73143070408000       68.37527625634368       53.90455452784555
C           57.29466370724179       69.25527882126426       55.02833524196897
C           57.82113320269119       70.58627867028558       54.49538086578239
C           58.42093412901416       68.49304520353409       55.74454415608183
C           58.77473213081046       69.02660460361736       57.14483289260116
C           60.29217817416304       69.12055874027199       57.30956149251801
C           58.20462885430606       68.13701492363138       58.25900499211824
C           56.67537704377177       68.08572214756447       58.32585001410717
C           56.10862756732293       69.41658490321262       58.82114151988438
C           56.18531429531082       66.96051351450889       59.24808537473312
C           56.45725866892744       65.52406429031744       58.77960038141106
C           56.01067645203028       65.31421306803971       57.33302099448932
C           55.72252208477762       64.51577354438385       59.67847514231521
C           56.19465825484899       64.45127803107535       61.13465899958439
C           57.60951123086014       63.88154195712140       61.22469667934827
C           55.26063937024040       63.58625061795752       61.99613398955475
C           53.86024239093421       64.14693519453031       62.27775469622339
C           53.93851727920438       65.53532449664242       62.91100114483118
C           53.09015643004780       63.21184286409110       63.22686345358548
C           52.54231642298141       61.92438876045529       62.60092877002091
C           51.38124997516984       62.23516693559923       61.65674877239874
C           52.04660171029174       60.94733668249134       63.67932775277401
C           53.10977030826883       60.33770664072154       64.60194753788942
C           54.23428250644746       59.67750096595027       63.80622841584630
C           52.48712179712913       59.27305206416006       65.52014726009024
C           51.41748736128767       59.75049435354870       66.50869610424704
C           51.96686182180077       60.83538267740951       67.43551388716310
C           50.90101274910634       58.58835077902169       67.37443167458630
C           50.30738112307868       57.39380706127328       66.61992776333167
C           49.17454584405607       57.83091347976164       65.69165952985310
C           49.76102193986365       56.33202429699317       67.58483988805679
C           50.75097160762670       55.70289367042302       68.57566133280302
C           52.05067268766617       55.26876793613015       67.89821849216393
C           50.12043417058254       54.46811947007760       69.24025182283279
C           48.89445543143782       54.72691080991240       70.12310904728075
C           49.30413084068429       55.37701185763291       71.44421684050165
C           48.14302222639025       53.41537553127878       70.40254230496345
C           47.26176422762552       52.91075554532680       69.24894215193599
C           46.02044939400909       53.78645451753143       69.09313217845924
C           46.87419251453713       51.45019302481546       69.52289950823184
C           45.98221587315864       50.77676874081789       68.47125227838222
C           45.57783305002606       49.38596587502554       68.96405051622372
C           46.61746059934216       50.71275323762752       67.07604540861603
C           47.89339469501973       49.88299635258256       66.96819074642744
C           48.42420341556355       49.88463369392552       65.54104769853255
H           42.27510250529264       48.64393846174635       66.34882124190410
H           41.03423829355238       48.94660010150267       65.13125897826517
H           41.79241615611446       47.36112499999191       65.23852781290189
H           47.68099892674693       49.47177689978529       64.86116008934457
H           48.65759728879559       50.89942314385820       65.22548579099991
H           49.32604919845399       49.28182173157350       65.46349151745760
H           45.87871534952633       50.29638387429540       66.38549379516947
H           46.83407811267688       51.72926269155751       66.74134852165790
H           47.78606989670838       50.85964753629131       69.63946837809785
H           46.34763806988705       51.41388358270419       70.48140469966646
H           47.83936745718520       52.95718092182450       68.32119456689698
H           46.29263862853165       54.83636311570614       69.01901835453948
H           45.47022415348265       53.52264257356110       68.19447687893160
H           45.36189375420555       53.66661681907672       69.95187121450441
H           48.87860983145779       52.64645798699740       70.65533040330720
H           47.50551775709003       53.55078684157951       71.28030714624494
H           49.84524345145490       53.77168899068354       68.44525258061987
H           50.87767735471971       53.97529330777305       69.85536257717898
H           45.06170319686463       51.36360439635479       68.37567793151443
H           44.97323918946614       49.46344499274821       69.86548117857753
H           44.99349702449928       48.86543423177946       68.20761403239902
H           46.45228635733032       48.78365477940535       69.19869461349612
H           48.21707777270488       55.41122935135949       69.60731103538851
H           49.84299177039046       56.30497951663545       71.27021994874163
H           48.42809228257968       55.60412234426027       72.04876669686868
H           49.94818027454820       54.70970028391971       72.01410504070290
H           50.99788652209236       56.43711430592437       69.34971782727958
H           52.69782099334041       54.76988333809093       68.61780729451456
H           51.84178757406922       54.57480777062449       67.08804396948329
H           52.59443241593657       56.11795924900200       67.49469602812557
H           48.94256759729875       56.78504283865716       68.14990616158774
H           49.33469798668031       55.52628668971975       66.98185877935944
H           51.08758135995462       56.92877064545684       66.01328350842508
H           48.69431395515535       56.96232443912530       65.24670904842559
H           48.42137511454149       58.38752205829086       66.24643131165578
H           49.54532245549420       58.46043526155787       64.88807124855717
H           51.72771718833625       58.23878984647098       67.99720468756617
H           50.13347215312037       58.98181812918888       68.04844704584258
H           50.57300996830197       60.16871392340677       65.95391481214473
H           51.22797423903735       61.10509917580685       68.18851678986299
H           52.85848208565501       60.48220441013577       67.95101705414623
H           52.22456414723952       61.73393849272440       66.88097586256532
H           52.05493073361536       58.50388535483469       64.87755956127398
H           53.29101801075928       58.80514853756999       66.09617313781375
H           53.55202920218595       61.12343221167447       65.22159016041445
H           54.91254054711080       59.16158694207559       64.48101670348426
H           53.83023166660957       58.94819885973757       63.10856528724251
H           54.80853708773034       60.41404621903575       63.25138356995191
H           51.30662852317842       61.47158209537700       64.28776373285108
H           51.52967102076975       60.12279064481606       63.17972295337083
H           53.32967336923127       61.44140494580584       62.01707664992606
H           51.00634130341471       61.32197692232511       61.19760514833349
H           50.56449073753466       62.70664608353472       62.20079557295483
H           51.69289079608095       62.90713170417945       60.86129459025786
H           53.75393927501991       62.95548119929605       64.05506026146134
H           52.24439651832306       63.76066658221683       63.65015793507054
H           53.30635842485590       64.23430940740975       61.33869581588435
H           54.57224426569229       65.50994130461528       63.79539181806832
H           54.34089546435390       66.26712275128419       62.21504542427400
H           52.94846644064734       65.87106320187682       63.21123107738046
H           55.16328324287775       62.60920913533329       61.51615390458220
H           55.75123040240000       63.42564804947899       62.95935961572854
H           56.21699282888792       65.46056206816736       61.55080429366453
H           57.62522198059802       62.84338219157138       60.89850594169297
H           58.29988074244578       64.44902163403940       60.60682364859273
H           57.97091370299090       63.92101962174694       62.25032852165091
H           54.65912117684136       64.76354094842529       59.65760044620998
H           55.83672049010517       63.51984901148576       59.24406732260657
H           57.53154275593635       65.32406397138827       58.83316599350001
H           56.03354329791420       64.25568490392888       57.08246505390949
H           54.99699231502871       65.68126787208843       57.19411847924719
H           56.66632178254839       65.83266821424019       56.63807003014631
H           56.64279887255267       67.10637775134889       60.22944592075098
H           55.10385826618799       67.07413404240151       59.36809458923349
H           56.28454471411009       67.90380714388444       57.32355048797255
H           56.49913930477494       69.65744820162334       59.80770385273875
H           56.36552308629943       70.23053549249178       58.14798330043580
H           55.02332143050988       69.36910982983753       58.88932711934347
H           58.59348207719565       67.12736980418944       58.11212554780278
H           58.58150133320847       68.49196171249585       59.22258239373033
H           58.36812544159034       70.03622094314966       57.25773816646797
H           60.74257589094730       68.13304626866187       57.22834864125576
H           60.72574368592958       69.75995358340310       56.54298619273456
H           60.55074517662403       69.53757136388998       58.28125862786057
H           58.14509552982855       67.44062392617097       55.83055577105399
H           59.30794033575823       68.53359668110316       55.10788041965407
H           56.49924961501637       69.46480087960255       55.74800243959132
H           58.33182215574063       71.13848108089287       55.28142712377066
H           58.52920243107541       70.41867987001261       53.68535374920269
H           57.01239560481437       71.21103050340476       54.12351324039037
H           56.38464408589161       67.43603162920488       54.34173594219185
H           57.55529738209037       68.13097984893385       53.22728273772974
H           55.96767848972689       69.90700303693761       52.61471138501599
H           54.47665322342801       68.46185503349153       51.28743356074641
H           56.12503887591396       67.84292453777816       51.30731296781791
H           54.89255216081511       67.07290144627859       52.29548935176487
H           53.68138522204720       69.90473214691235       53.23216392880182
H           54.66276630602867       70.03435925570007       54.67786987544259
H           54.19467818975433       67.26692268933203       54.44519404091690
H           54.23832122819662       68.58541601128415       56.52490693465473
H           52.70637962516739       69.34378689383952       56.09857417809726
H           52.77957009508336       67.60947718513702       56.44555208497666
H           52.52933844811579       67.84954889791098       52.66593257118855
H           51.65940074657497       68.83472388615569       53.83781834442973
H           51.07955832225683       66.84448161798728       55.13787009059300
H           50.48378342191334       66.50590593126496       52.16850274356614
H           49.46256930736054       65.97789270322954       53.50964244366243
H           49.70340510878371       67.69385573124123       53.20669684808863
H           53.01729445621015       65.43329603948463       54.71997045085558
H           52.67505957562916       65.39716186845648       52.99787296103634
H           50.69973982466630       64.08697261026384       53.30216595862493
H           53.15686499813958       62.94959041244932       54.68649289069958
H           51.79842944775506       61.99346781803494       54.08151770593307
H           52.78473935377729       62.93520841811302       52.96746913611489
H           49.76182835851488       63.27542406130419       55.18077995047303
H           50.06247154503708       64.94776163129860       55.61426601747269
H           51.72444586176319       62.56298639072492       56.52275297436303
H           52.62360735965630       64.19976929233650       58.20638460604918
H           53.12596700124955       64.53966826789369       56.55980145638772
H           51.84546735132667       65.49971613935736       57.30468607510397
H           49.65946357528606       64.25699797548387       57.96971390817620
H           50.71156370290408       63.07551084713396       58.74276234624799
H           48.51998558123942       62.45318713220507       56.72927023996088
H           50.41157591506849       60.86549674221954       56.46005530476522
H           50.39264097945016       60.55384551932620       58.20037800285716
H           49.01987726431029       60.08706370774745       57.19871001317615
H           48.84922829714877       61.89120049609737       59.69932612538232
H           47.57917769693120       61.20585286057158       58.68892390512543
H           47.91564382230241       64.17574432792296       59.25446886563193
H           45.77486185781027       62.62593649854366       57.74291310923976
H           45.63641230449751       64.31304664142660       58.23024680996030
H           46.87835245186069       63.83837869580233       57.08048135316090
H           46.01631367950729       62.07245088143493       60.34925672687152
H           45.69746341827017       63.79762295535601       60.44721084246669
H           48.12231522125518       62.45190328088577       61.69660239432697
H           48.34030066041078       64.60395453943967       62.90986511209353
H           48.49299147122082       64.84804054636852       61.17352088564970
H           46.98744165856632       65.26603920914739       61.99036723511389
H           45.37395309493696       63.17863215567667       62.73320269878361
H           46.75088232793470       63.20664403258403       63.82459006333293
H           46.04005790584881       60.73896410309877       62.21461130389464
H           48.36540167717209       60.97289303443510       63.23524095493300
H           47.59643624847654       61.03186316406671       64.81867116676101
H           47.45491964285763       59.58781965668016       63.81613433615865
H           44.10873662759641       61.41038248963346       63.57152150992351
H           45.14519598002011       61.65028263261788       64.97376911682416
H           45.59689260284075       59.21103135313896       65.05620246356187
H           42.63510427250199       59.93329483307964       65.06170586951251
H           43.40352287965689       58.65160067651255       66.00185320782286
H           43.76888962473941       60.33524936218313       66.34948140929227
H           45.24634041893790       58.69735441206026       62.67579234807233
H           43.54855023702454       59.15560946378192       62.80668564363942
H           43.14589174763901       57.23713285391064       64.31310672441086
H           42.89455237372873       57.14522802990975       61.81061833329728
H           44.49565531716706       56.41206109672001       61.70933052210416
H           43.18797247154239       55.57271255597920       62.54360940571213
H           45.36502476646026       56.99651761693801       65.31492798731321
H           46.08097275251323       56.67930056090569       63.73689124372353
H           44.83298162093079       54.53824502234377       63.60937742298545
H           46.27493559018021       53.37850278572714       65.24001030395813
H           47.14607812132517       54.67492093957213       64.43751492943267
H           46.56304924389075       54.90086489731990       66.08926164503592
H           42.97811372130698       55.29546631621529       65.21338183429202
H           44.13260643963590       55.07157588530242       66.52114774341381
H           44.31531717883163       52.63652839476576       65.81280120824185
H           41.53795476768898       53.61409794697190       66.60567616438418
H           42.23256538732399       52.03259436616236       66.96847572818002
H           42.90643259322766       53.47843658666610       67.70876113542290
H           43.50561979555907       52.91466788876546       63.49742781981865
H           41.94316704564088       53.46603277545323       64.09919501165606
H           41.48964469897944       51.22114204469131       65.01313977843876
H           40.88382147938177       51.90704241156148       62.67353685713682
H           42.36923640769296       51.15307271188765       62.09738943385926
H           41.10066114509968       50.17201874072146       62.83380515002319
H           43.76595679087303       50.50630232560960       65.52126286648493
H           44.21708807241313       50.59370113779345       63.81876230375215
H           42.70525727560737       48.68748373717245       63.32610381961725
H           45.09892735997756       48.33147300917494       63.86274984078002
H           44.69732862941618       48.16675624463019       65.57369849319504
H           44.11061412526019       46.97826941498511       64.41106649020618
H           48.65721105939213       50.28948279001683       67.63079280809943
H           47.69442369110619       48.85396072384103       67.27228649223936
C           37.39299044106387       64.45731261488179       46.83064722844764
C           38.80180936092348       65.04492108910394       46.91921444113934
C           39.80868192179487       63.93077478279866       47.18973028580225
C           38.82703788896925       66.11705340587940       48.01445783633014
C           40.14432842929337       66.88129692976787       48.21075176502431
C           40.00260528037354       67.78331213618560       49.43771494960701
C           40.49843106749216       67.68593892388331       46.95440230525605
C           41.73226897770646       68.59566889631949       47.05281081941293
C           41.87338719619509       69.40092660211462       45.76046486813764
C           43.04812159371448       67.89558336021352       47.44568844638317
C           43.88737780320373       67.22289430515016       46.35183175710514
C           43.21628582156480       65.97581721065977       45.77857366740452
C           45.26305776775691       66.81426676981012       46.90746629530600
C           46.18303915272980       67.94444641835337       47.38677881390586
C           46.46087912698211       68.93978932687881       46.26166736420418
C           47.50987487643830       67.36538921998692       47.90219363496993
C           47.44368188680529       66.73196576445038       49.29776706099074
C           47.41193199453736       67.80705334920439       50.38281900034311
C           48.65134851532370       65.81240576052760       49.53199567370719
C           48.54584648001131       64.42914745383611       48.88107750908397
C           47.47441584163128       63.59647425135158       49.58342480018536
C           49.88077620737275       63.67104729344910       48.94998268930248
C           51.04696946101857       64.24799923437206       48.13804610859866
C           50.69005146446882       64.35836868142944       46.65663411324933
C           52.29922445798080       63.36518457515458       48.26626278178993
C           52.89607074734498       63.22110706233019       49.66964029793127
C           53.35148497598774       64.57936851896663       50.20466604846606
C           54.10068767881759       62.26447192566143       49.66828878835835
C           53.84725407122116       60.82397893062503       49.20273843941310
C           52.58448284309429       60.24310020446866       49.84374844098699
C           55.00682373589701       59.87352518926575       49.55309185565816
C           56.43176553234795       60.13473040217180       49.03165373832404
C           57.16747235918079       61.22927266500655       49.80719938992046
C           56.51270556152866       60.41128305749422       47.52505640053605
C           56.32993881838797       59.18456068067770       46.62064928914875
C           57.55493038737853       58.27270134387278       46.68251617060373
C           56.11591122824633       59.62714957206288       45.16514970152235
C           54.68323701550570       60.06113783602421       44.82359807124232
C           53.86189054008459       58.85895478309524       44.36153828736749
C           54.69737484322135       61.13384547343210       43.72738586712579
C           55.09661219519968       62.52353135989294       44.24726128168458
C           53.84353876285495       63.28935034659030       44.66478842148947
C           55.90237923845236       63.30248695531342       43.20016581665004
C           56.52802342912597       64.60539375440226       43.73268943789628
C           56.20978925797703       65.77148126131786       42.79485115141251
C           58.04963068338952       64.50805806694099       43.90769634317486
C           58.55066496565669       63.50030369674670       44.94887290332738
C           58.03349268583028       63.83055197951646       46.34933781864852
C           60.08653643668312       63.49471319136397       45.01688423888018
C           60.84251576217169       63.21050809762698       43.71546367400604
C           60.46917304037198       61.84147378439702       43.14772231152772
C           62.36238028754750       63.25470387349097       43.94013655299258
C           62.92915174639312       64.54959917417067       44.53631869816709
C           62.46321564417221       65.78321388850033       43.76152189760952
C           64.46539509540857       64.53257926386870       44.52930415640212
C           65.14643026813613       63.35876861141768       45.24293225442631
C           64.76020351789475       63.28232259604957       46.71778960375250
C           66.67406851813230       63.48517727211574       45.10140329707410
C           67.39231595135310       62.13391625424238       44.98675708733273
C           68.87917037754272       62.30154548359384       45.29279174887175
C           67.19689211892069       61.55456192697741       43.57893001244151
C           67.46241405743410       60.04297391621335       43.44571780898708
C           68.30380086345333       59.76337757338433       42.19940008163714
C           66.15673560499742       59.23814171595586       43.36917957105472
C           65.44206471420513       59.04871055050830       44.71606484064855
C           66.12352352954282       57.93491606508113       45.50550559120941
C           63.95802075862087       58.74329225085304       44.47451039289451
C           63.07688830407110       58.54501073894293       45.71743331442953
C           61.68308588245991       58.11944346266387       45.25682833070590
C           63.00604085694690       59.81739344218099       46.56822729753878
C           62.22870647142817       59.65593497423092       47.88923198112808
C           60.97350641597762       60.52779345838877       47.89496926875517
C           63.09602998048678       60.00567149851566       49.10516399518889
C           64.16411841405335       58.95650589605317       49.43373565588161
C           63.52445003034629       57.74268901112409       50.10830908386878
C           65.24809600638412       59.50930526077087       50.36921588467757
C           66.16380962318691       60.60489884493587       49.81181038277584
C           67.00778976773682       60.09066561518154       48.64682999900432
C           67.09376441518626       61.11755306350975       50.92181194894224
C           66.43500575598934       62.05645775319146       51.94339522108449
C           66.31426427772088       63.46623413808301       51.36927903979228
C           67.26146325089184       62.03884162514964       53.23575327887049
C           66.77332482703653       62.92936531791017       54.38721053496230
C           67.80695026265703       62.87133352152510       55.51306993280562
C           65.39227965430287       62.48126137301004       54.87590653050074
C           64.72072681272113       63.37967895659563       55.92390356227854
C           63.54923346232071       62.62664720380568       56.55053021816274
C           64.25163683659696       64.70057445443892       55.30367150679152
C           63.80298679410364       65.73947377868073       56.32940759515242
C           63.43865551798505       67.06082561909818       55.66273855214248
H           36.66397976062598       65.23223876119908       46.60263414289927
H           37.34064104953397       63.69900672524165       46.05257782899032
H           37.11620010654155       63.99562214268609       47.77643941714871
H           63.13685041353882       67.79779207273522       56.40406283792412
H           64.28879953282420       67.46091020627490       55.11320995810483
H           62.61662302152875       66.92140656574033       54.96340620081299
H           65.06775091190399       65.13394905890240       54.72054742206765
H           63.42700990143629       64.50089494321344       54.61411381757805
H           64.71894824307300       62.41101521732027       54.02032322144372
H           65.49520443068806       61.47568995552065       55.29214728445846
H           66.71989981891959       63.96313175159479       54.03331746703871
H           68.78645043210419       63.16976196998898       55.14407974180818
H           67.54399591586125       63.54055146247410       56.32858809863166
H           67.88289093862339       61.85988891582504       55.90754280347420
H           67.30254246623734       61.00949446110443       53.60087146387212
H           68.28294891365528       62.33763687251277       52.98618992135565
H           67.50628471720592       60.25003561371649       51.44337116886371
H           67.93195251448337       61.64951529960256       50.46358375996772
H           65.44036084142122       63.61018987733646       56.71729939228210
H           63.88281047349634       61.68082564931282       56.97030223658995
H           63.09654600161126       63.20616064922709       57.34735909870547