3258
 energy: -3427.517923813499 gnorm: 0.000878772736 xtb: 6.6.1 (8d0f1dd)
C          128.33516671885030      111.53081114916318      121.61975196386395
C          128.05294728335514      110.03910826927856      121.75373561206396
C          126.65049907649875      109.77019208660933      122.29426804101062
C          126.34287585958018      108.27733144964374      122.38598134439336
C          124.90514575228765      108.01724589864492      122.82658003731338
C          124.53788264847761      106.53536519094898      122.78860974832747
C          123.05775601120651      106.31493781200140      123.09351720966893
C          122.61749982513010      104.86602416633185      122.89334296801209
C          121.10014743066495      104.72726756774256      123.00575169903809
C          120.57743495269658      103.30703318006556      122.77829050726027
C          120.98466487347655      102.67818171003277      121.44368377797542
C          120.61590208563356      103.51698944745263      120.22251390206641
C          121.06546272258957      102.84672687739418      118.92718898369891
C          120.92199845411085      103.76250793910646      117.71430452562227
C          121.52409515733933      103.13186856890427      116.46405135057638
C          121.44780999528479      104.02553035055756      115.22913363736146
C          122.23594932432199      103.40230700761443      114.08156914484805
C          122.08711076805881      104.14959337776816      112.75969300470165
C          123.08063683151641      103.67199757772909      111.69753396304158
C          123.03040524015530      102.16184526185077      111.49058110160139
C          123.91908350206242      101.66474222515542      110.35553703804479
C          123.89300078342492      100.13919688373061      110.28279562738567
C          124.72889622519816       99.58201232810507      109.13538207678478
C          124.70859225864163       98.05501638027951      109.11303108092187
C          125.44616290669924       97.45057130246089      107.91570598483874
C          124.76120935489682       97.68482235845573      106.56770214464659
C          123.44618019945138       96.92468725130648      106.41467764788520
C          122.71105570168444       97.30473596533110      105.13165884836501
C          121.36158506675493       96.59811960672255      105.02861586144830
C          120.51794064796738       97.05245061043379      103.83709548768525
C          120.08100478805156       98.51365088666988      103.93899538948827
C          118.91289366043060       98.83392426545893      103.01059089767203
C          118.43733746405253      100.27500540589989      103.17741281034164
C          117.12370795765513      100.55882488419461      102.45342302138017
C          116.64318349400899      102.00376362281355      102.61298111803914
C          116.50545306364900      102.47941583879202      104.06094110022518
C          115.50227757586096      101.67186601261027      104.87918110886577
C          115.54864901033855      102.01086002318466      106.36680458623728
C          114.54589679053913      101.17522480234130      107.15832545605407
C          114.70089989300179      101.32359672058395      108.66995270004780
C          113.75200234487117      100.38665773163967      109.41470695070817
C          114.03300238318594      100.27067541628479      110.91254429582655
C          113.68486532702759      101.52374804757349      111.71164550459333
C          113.79772005023847      101.27549771733591      113.21411059316615
C          113.39899340870650      102.49432200992830      114.04044519640540
C          113.40063686352170      102.20407233738283      115.53944769012857
C          113.05402671164956      103.44263131574475      116.36003665891887
C          113.02914990720410      103.18415786223613      117.86397470223675
C          112.77605063224273      104.47498005196532      118.63621909179165
C          112.78235081763984      104.29710888037674      120.15169768993155
C          112.53310772575519      105.63254484258700      120.84666581425931
C          112.61587064855762      105.55878909473284      122.36875115455406
C          112.32892401055798      106.92261058433017      122.98921805449386
C          112.33339073290749      106.91999878579820      124.51507320567346
C          111.98499647614202      108.30509723947705      125.05395053135679
C          111.96794356655231      108.37193103475818      126.57810616031679
C          111.47475726327747      109.72116936628163      127.10576956768560
C          112.41863317995541      110.87807210292614      126.78364077401848
C          111.91452355773858      112.20012807156922      127.35641068970266
C          112.84370379207327      113.37969958394024      127.06496048776465
C          112.92612185866324      113.72400069236943      125.57948575453419
C          113.63218569468907      115.05526706501927      125.33084756290644
C          113.71050780399939      115.38786972413344      123.84222987158157
C          114.26276050630197      116.78711437018822      123.57913133657286
C          114.21767662854960      117.14394659664576      122.09605392484731
C          114.68395650523928      118.57128303645140      121.81934161812636
C          114.73493702827457      118.85627510607127      120.32085239087273
C          115.07056542610003      120.31233083715280      120.00288755046799
C          115.50414218394424      120.50985196960993      118.55043428088474
C          114.43121252003564      120.15004224432387      117.52812725099163
C          114.91312101186845      120.36325583388354      116.09389480201716
C          113.91963417038482      119.80660018680715      115.07877053254408
C          114.41463564553614      119.91208339156341      113.63834711687068
C          113.29172958582579      119.74282765292301      112.61236064123538
C          112.44948774440697      118.48521220309695      112.81824919212039
C          111.45327413511316      118.27161302424308      111.68222918672861
C          110.53963209887334      117.07190368651160      111.92322283017772
C          109.58641572929484      116.85526666790911      110.75104895578663
C          108.79784138224603      115.54921108834260      110.82339688451877
C          107.67684741856699      115.52216687502249      111.85867203647169
C          106.87713426986299      114.22585919221611      111.73970361829808
C          105.75179840727276      114.11614895242558      112.76439830362305
C          104.79874857443663      112.95008614336200      112.49373558560562
C          105.49532559930282      111.59453598523136      112.40884862400810
C          104.50143169620452      110.44049438025901      112.30749375406093
C          105.20601444945379      109.10531946847973      112.08451824479904
C          104.23233715018425      107.93977249802822      111.93915997580744
C          104.94268684607636      106.65390496251692      111.52418441388789
C          103.96989887625507      105.48786452402433      111.36508258617722
C          104.57856782064256      104.27207810329166      110.66587061214018
C          105.66510388579536      103.59463171096108      111.49685373280386
C          106.18528644218502      102.28983382275072      110.89165547145043
C          106.87615010736445      102.49231176568532      109.54661615850866
C          107.66412658448982      101.26933638513243      109.08094501122119
C          108.38177493445568      101.56833084667272      107.76858969154036
C          109.25788602425534      100.43640777412607      107.24263088442838
C          109.96294712847120      100.87674342778422      105.96208351381641
C          110.92964533092240       99.84087749292001      105.39742853036491
C          111.53986348786756      100.33103201826097      104.08664087885197
C          112.43013679788145       99.28423873664285      103.42500914722855
C          113.16860792481509       99.80938844488472      102.19452973975518
C          112.24466413961702      100.20440007834971      101.04573298120999
C          113.03518727660312      100.68899618609244       99.83416722960798
C          112.16091299304752      100.97076216055378       98.61363226516939
C          111.24050321701293      102.17714858087091       98.78037693415038
C          110.49500287872505      102.48194048334611       97.48392423046620
C          109.51232401965018      103.64018844307280       97.63517086294502
C          108.86881216734812      104.06012608497348       96.31290554206335
C          107.93117140390048      102.99931025185667       95.74333465058160
C          107.32479410349322      103.37993128588290       94.39163388520640
C          106.33468994028875      104.54135982028333       94.45895772601752
C          105.60588405955930      104.73120384222359       93.12950060689487
C          104.54441850639101      105.83252676644911       93.17386512060331
C          105.12657721861240      107.24012694539329       93.07837539539209
C          104.03867922458942      108.30928384845362       93.14625133516772
C          104.60603179682371      109.72526009260322       93.08547156098271
C          103.50346665638361      110.77733754613966       92.98598726047770
C          104.06388958883149      112.19690330928081       92.97878960314853
C          102.99053104542644      113.25090612989550       92.72252666338419
C          103.56867890677678      114.65992236505456       92.76990375864058
H          102.53502950743324      113.07654799334681       91.74457146389005
H          102.20134129304081      113.15370409668056       93.47250816822103
H          104.53828602257298      112.39996323336952       93.94047507695284
H          104.83252764671849      112.27758697263700       92.20549854705025
H          102.93043818617862      110.60947631058924       92.07010535951858
H          102.81646257284837      110.66340037647646       93.82827288495628
H          105.20954219930938      109.91316102931053       93.97664035679192
H          105.26414538312029      109.81407706940722       92.21710876141067
H          103.34225129000950      108.16404909788004       92.31615310019129
H          103.47047414329572      108.19251963887125       94.07233540105322
H          105.83855918529888      107.39886978472462       93.88942312777513
H          105.67393551172572      107.34150792372073       92.13765480141936
H          103.84528473056473      105.68904804426595       92.34568862420355
H          103.97681376542084      105.74178275766572       94.10340790802741
H          106.33081078959394      104.95728235122317       92.34340474535394
H          105.12309143613646      103.78705173723432       92.86150089278607
H          105.59788874986937      104.33894052408408       95.24059902382801
H          106.85896808716535      105.45946797716195       94.72485651946921
H          108.12776243470978      103.62819959688987       93.69242489808303
H          106.80404397402891      102.50562191701334       93.98876691811692
H          108.48163943783575      102.06529704152155       95.61389346511071
H          107.12838891683792      102.81256706759304       96.46060691313066
H          108.30368565461556      104.97915613621973       96.47679590066149
H          109.65334935542859      104.27989757770914       95.58452073952732
H          108.72975696502522      103.36176272544496       98.34517197077190
H          110.04577041767955      104.49780270753358       98.05457305205805
H          111.21906226424461      102.72524882821037       96.70205160889751
H          109.96056235550996      101.58288732680174       97.16997863441328
H          110.51598658838373      101.98618974809382       99.57405468825229
H          111.82921797492652      103.04905840099326       99.07599590430888
H          112.80779168718425      101.14462127797547       97.74982763534236
H          111.55864501093770      100.08597021241773       98.39512276098084
H          113.59140497987011      101.59157683492501      100.10267897707907
H          113.76864336538408       99.92262173665947       99.56668765080057
H          111.63534998455100       99.34448290352083      100.75697472836578
H          111.57385458083462      100.99831436346676      101.37406750924221
H          113.77068395498935      100.67376159433263      102.48229665323200
H          113.85779652717976       99.03634919063018      101.84254742590983
H          113.17056623564621       98.94219391853088      104.15278168433272
H          111.81931299457162       98.42304354240487      103.14070607780909
H          110.73031037694359      100.60526610275858      103.40809921693211
H          112.12772833782485      101.23167215811527      104.28107731609168
H          111.72393740513728       99.64466747735568      106.12226653987152
H          110.40313605257491       98.89863831729150      105.22500765797651
H          109.20757973792951      101.10673230752921      105.20570794976040
H          110.51539294280218      101.79882357541132      106.16177662649270
H          110.00009052743314      100.16505797928345      107.99657402085826
H          108.64605790542875       99.55302437930362      107.04288984347507
H          107.64257600724021      101.82816340717214      107.00637681530362
H          109.01904030426053      102.44196017694021      107.91950940470711
H          108.40099415451039      101.00379078400003      109.84316489093518
H          106.99223874972131      100.41564635977721      108.95712630561670
H          106.13298708975015      102.74542497139184      108.78808520933497
H          107.56401529202705      103.33737458591099      109.62968147347141
H          106.89539327391921      101.84148965881501      111.59315054734020
H          105.35991448047352      101.58381726720445      110.77288524266555
H          106.50459465613437      104.28113027213077      111.62532263635352
H          105.25844041622759      103.38347629404394      112.48837406693458
H          103.78241324115808      103.54994257318867      110.46713729561756
H          104.98790713522814      104.58575890167958      109.70308553980952
H          103.59340589855783      105.18969322964887      112.34716842793159
H          103.11438657738542      105.82984910870533      110.77943207170742
H          105.45058637438898      106.82637139360185      110.57213994829466
H          105.70020966729781      106.40689812340946      112.27028935076528
H          103.70768931482252      107.77923559560597      112.88425916148707
H          103.47956137954291      108.19057764849255      111.18775319205841
H          105.81292545573058      109.17254117741140      111.17943303573638
H          105.88251388834311      108.91059934024507      112.91856611501710
H          103.90139155574329      110.39150041746066      113.21899056946465
H          103.81330470060028      110.63155538613827      111.47846207639840
H          106.14111338346491      111.57430037976506      111.52857680793080
H          106.12903214880811      111.45147853397027      113.28619183422509
H          104.05211575891001      112.91881066184797      113.29231104270930
H          104.26209960976199      113.13251040500455      111.55854466862333
H          106.18504178465487      114.00717655628128      113.76195273439562
H          105.17132572316855      115.04362834199634      112.75310473288039
H          106.44933740430852      114.16889483835389      110.73511351136391
H          107.55999608969540      113.38213188056703      111.86086231388576
H          108.08876104439392      115.60849482094751      112.86642801768700
H          107.01252512517677      116.37417075811015      111.69397821560381
H          108.35368046895356      115.36635018741424      109.84214809626063
H          109.48852104734951      114.72755601010641      111.03189127687733
H          108.89275597095904      117.69698049903802      110.68997377308766
H          110.17339069295164      116.84721188808435      109.82791063108972
H          111.15313235221579      116.17796285992030      112.06074977388630
H          109.97066282250593      117.22661328771501      112.84291005257866
H          110.84146190204140      119.17009515191316      111.56477803875214
H          111.99734419341715      118.12481867092741      110.74453070536276
H          113.10482805922483      117.61494920444338      112.88753467873588
H          111.90131953768943      118.56206108234483      113.75955625952302
H          112.63419894206213      120.61651926557748      112.65300941907739
H          113.73529596015270      119.71642998012145      111.61401590234844
H          114.87532060306749      120.89281112771464      113.48851089164326
H          115.18958159911668      119.16142880637061      113.46266017640718
H          113.72110421246182      118.76021976165984      115.31995986921034
H          112.98095655802717      120.35160265120416      115.16780836277378
H          115.06596260602450      121.43032400500937      115.91160606847153
H          115.87974591783161      119.86800809424881      115.96404965334771
H          114.15258441224583      119.10216452635188      117.64995122336545
H          113.53821567566061      120.75344504613082      117.71048912738455
H          115.79941710455884      121.55176572571075      118.40138234393712
H          116.38538435789754      119.89179842243101      118.36747661826381
H          114.20851687036999      120.94667306688281      120.22351517761078
H          115.88847809846317      120.63590377075974      120.65282466376519
H          115.49399410431596      118.21177163425668      119.87104229821448
H          113.77038739183322      118.59680828827736      119.87953621752715
H          114.00665474370501      119.27836224897429      122.30536009617380
H          115.67782315078294      118.71910363833304      122.25017117001825
H          114.84742796944707      116.44651935601175      121.53937475077798
H          113.19425302650944      117.02512000166392      121.72980556653512
H          113.67953260744393      117.51968098212693      124.14322281995389
H          115.29292106948871      116.84895065742757      123.93772359448448
H          114.33762392103820      114.64965742873157      123.33569106945285
H          112.70913702755233      115.31570555721771      123.40873157730356
H          113.08876438989579      115.85016247363323      125.84844032410925
H          114.63990298594993      115.02141920987242      125.75331047297084
H          113.45325183117836      112.93279986641387      125.04382495707564
H          111.91317430062858      113.77829962518486      125.17550891324227
H          112.47267791525393      114.25427046079241      127.60668351977844
H          113.84370361775750      113.15807778816301      127.44580105334647
H          110.92611571163184      112.41417107409497      126.94225028453315
H          111.80206938662432      112.09844412402636      128.43955217506286
H          113.40802894629114      110.66184652695311      127.19447424000511
H          112.51587222161989      110.97553990412764      125.70301073560188
H          110.48998742730261      109.93243196326725      126.68077446905679
H          111.35600682076682      109.65371944240542      128.19083491880733
H          111.30987396087973      107.58551586529984      126.95767763709868
H          112.97115812638921      108.17491013465389      126.96457144033116
H          112.71275562268001      109.01936120110186      124.66485919090657
H          110.99917773269657      108.59284665285331      124.67911013553018
H          111.60739107606292      106.19076716593347      124.88204196874219
H          113.31817399573576      106.61974303665566      124.88198518019149
H          113.06992757327481      107.64301929791415      122.63257008185283
H          111.35133753996749      107.26638400909185      122.64212514512880
H          111.89154940454902      104.83139118775085      122.74370927061908
H          113.60924535674829      105.21757395939973      122.66931917993011
H          113.26849384963066      106.35697346837273      120.48881005037917
H          111.54590476418528      106.00355232406372      120.56058844497588
H          112.01115853965297      103.57882806884562      120.44239063491183
H          113.74679682068101      103.89371003438806      120.47294757221344
H          113.54404672508549      105.20250566655216      118.36721526055992
H          111.81161693191929      104.88953729207213      118.33531657173788
H          112.25062008117018      102.45479256619278      118.09588777514772
H          113.98565461468831      102.75689504742829      118.17795358211335
H          113.78204346214251      104.22814495679195      116.14707249301127
H          112.07440586349396      103.81619293880505      116.05279621985198
H          112.67952175473052      101.41242636209482      115.75333732827349
H          114.38773479923327      101.83798491486324      115.83325601935796
H          114.08879999192919      103.31526314464502      113.82819745814368
H          112.40143211756673      102.82521728943819      113.73966863112246
H          113.15511015878610      100.43387063558431      113.48573163117948
H          114.82546554233431      100.99537331093316      113.45785091996885
H          114.34583746648977      102.34402327456098      111.42599921949879
H          112.66074398750588      101.82541475173184      111.47678088777900
H          113.44783052890079       99.43586705051142      111.30822775509822
H          115.08851052495402      100.02665217190916      111.06146007622344
H          112.72140572136242      100.71969070408899      109.26385466995160
H          113.84018247890610       99.38855199970945      108.97428847518916
H          115.73081403615721      101.08483834591205      108.94720571003303
H          114.51043405115878      102.35877346354036      108.95975747108871
H          113.53096045531404      101.45432523091851      106.86581147635115
H          114.68145169785731      100.12239054519291      106.89605977651206
H          116.55618022073396      101.81473906431344      106.74611485705857
H          115.34274775727610      103.07382664821405      106.51146156331374
H          114.49583490245094      101.85237300434345      104.49649542396240
H          115.70987633844386      100.60660330126618      104.76573073118131
H          117.48172685880088      102.44065272805237      104.54842715777582
H          116.19616480644726      103.52718169321405      104.05175537346862
H          117.34582147319641      102.66332762945390      102.09763138588167
H          115.67728343177440      102.10412859741061      102.11094403807915
H          117.24758272702918      100.35826475753667      101.38598625657697
H          116.35401661506216       99.87667961857640      102.82043035511171
H          118.30877979877440      100.46088432964532      104.24464198314502
H          119.20436248830156      100.95928936634427      102.80981058071663
H          119.20772767751966       98.65021570555875      101.97442013184974
H          118.09021923617797       98.15598942293268      103.24858036355322
H          119.77774941877928       98.72384456159772      104.96820815517844
H          120.92017203713445       99.16881854229310      103.69894136546873
H          121.07453038525105       96.89731978934516      102.90996843472986
H          119.62546921469621       96.42177652434376      103.79111831038917
H          121.53038739497634       95.52014427589187      104.95712695681735
H          120.79616454892847       96.77851956242753      105.94727407498760
H          122.55791003081949       98.38492179266680      105.12700717525824
H          123.32451108181387       97.05366142493769      104.26296535729225
H          123.64159822656120       95.84922355283483      106.42440908408149
H          122.79464375274468       97.14766731201885      107.26142474477092
H          124.57211499376649       98.75075373400938      106.43597500508956
H          125.44293120031389       97.37765888066929      105.77044008829009
H          126.45377460205842       97.87334232590318      107.87680309761500
H          125.54890543192650       96.37362934074049      108.07321742839572
H          125.17616600959101       97.68626122011338      110.03009844640037
H          123.67328859638776       97.70959558619731      109.12005605337872
H          124.33614777998486       99.97277512802582      108.19513443904637
H          125.76166244254013       99.92634624439079      109.23485393863390
H          124.25847195352627       99.72972721169459      111.22853609372595
H          122.85895296089761       99.80436063109046      110.16213659148696
H          123.58256395841526      102.08634371604821      109.40518526151385
H          124.94462716157470      102.00269781205316      110.52140503650955
H          123.34868830248378      101.66236991095015      112.40708437753447
H          121.99705113130089      101.86917852421936      111.28987850147092
H          122.86097191354895      104.17380173638975      110.75181051403928
H          124.09332199525015      103.95807752231053      111.99357759429532
H          121.06797125830809      104.01856408451519      112.38971382706865
H          122.24111964573505      105.21712738190413      112.93197586838991
H          123.29320952062514      103.36839470152931      114.35683880063691
H          121.88901198415252      102.37544934866763      113.95565370764969
H          120.40539522956627      104.15505790619568      114.93238400744512
H          121.85067817839358      105.01394049856057      115.46254686715595
H          122.57412029482647      102.89679827340770      116.65931155243200
H          121.01760627567677      102.18623751171403      116.25374652000698
H          119.86684854611543      103.98350762228061      117.54134157098785
H          121.42960370396901      104.70785947060583      117.92023534356751
H          122.11560401015456      102.56083908888631      119.02847829108732
H          120.49232068053368      101.93045063314386      118.76611931906530
H          119.53586690331520      103.68009223962846      120.20217356778939
H          121.10055984779510      104.49159611536535      120.28999027038591
H          122.06260572542419      102.50080110579113      121.44180847914387
H          120.50073573095477      101.70078908306037      121.36377948860911
H          120.93505360879462      102.66121181014285      123.58488472355991
H          119.48614254244595      103.33286205241885      122.83928945148131
H          120.78762509950654      105.05202271575305      124.00237116174837
H          120.63098360959798      105.39943616096792      122.28531756273769
H          122.94075723614597      104.54022415939451      121.90336824241386
H          123.10445038967664      104.22197550994892      123.62975221094787
H          122.84464630411897      106.62714540489458      124.11905885175953
H          122.46937647456555      106.94985019850094      122.42870184272341
H          124.75976372036057      106.14207687482342      121.79326856611972
H          125.15267781105973      105.98312333554337      123.50354990565297
H          124.75380393600312      108.40759430853552      123.83594093347739
H          124.23297627679537      108.56369156331228      122.16076397615497
H          126.50186876621378      107.82080274329719      121.40578829434794
H          127.03564146444852      107.80200603272911      123.08486470283312
H          126.54960507726335      110.22437353020192      123.28313038893106
H          125.91791783697195      110.24656783064252      121.63756416538638
H          128.15893759143611      109.56308849891060      120.77539206704857
H          128.79111225137498      109.58704650281308      122.42056233916462
H          127.62594360626535      111.99228867412329      120.93575756524328
H          128.24881765750914      112.02434519346606      122.58541787015639
H          129.33905986616915      111.69869861521640      121.23664020559949
H          104.00458358702630      114.85828659873178       93.74674891943343
H          104.34823170474949      114.77788580530584       92.02002845278076
H          102.79455556004520      115.40038947947545       92.57916436018918
C          110.86693456146980      126.54238852903207      117.72469319857110
C          111.56497452134559      125.39940261539640      118.45187069489657
C          110.56947578618355      124.40989247238390      119.05151322995594
C          111.26814281720792      123.26160629776949      119.77473548040123
C          110.27861180956513      122.28441461454078      120.40461402387578
C          110.98210715915528      121.22460265933253      121.24768227420925
C          110.00467000925102      120.24973029615886      121.90144967072858
C          110.70068748003740      119.37445293283470      122.94043654671366
C          109.75942375124222      118.36558515945008      123.59394631106096
C          110.43716706262585      117.64667978434532      124.75741927944856
C          109.55325089585359      116.60539567065717      125.44377972927261
C          109.32731428843753      115.35080256665292      124.60277747374508
C          108.60428334748812      114.26566619050801      125.39676777141067
C          108.50632984374127      112.94359617968520      124.63830325604215
C          107.73093470814383      111.89871818745884      125.43652080780600
C          107.62011007332129      110.55391976125320      124.72070343197379
C          106.78337220987092      109.57173468969262      125.53862618884406
C          106.56122315378222      108.21883771501241      124.86275380789883
C          107.81991980668364      107.35808601514215      124.77624702092474
C          107.49490540487889      105.93642951399745      124.32247091680962
C          108.74343022612182      105.07091820003563      124.17662934584391