      -----------------------------------------------------------      
     |                   =====================                   |     
     |                           x T B                           |     
     |                   =====================                   |     
     |                         S. Grimme                         |     
     |          Mulliken Center for Theoretical Chemistry        |     
     |                    University of Bonn                     |     
      -----------------------------------------------------------      

   * xtb version 6.6.1 (8d0f1dd) compiled by 'stahn@M-Bot' on 2023-08-01

   xtb is free software: you can redistribute it and/or modify it under
   the terms of the GNU Lesser General Public License as published by
   the Free Software Foundation, either version 3 of the License, or
   (at your option) any later version.
   
   xtb is distributed in the hope that it will be useful,
   but WITHOUT ANY WARRANTY; without even the implied warranty of
   MERCHANTABILITY or FITNESS FOR A PARTICULAR PURPOSE.  See the
   GNU Lesser General Public License for more details.
   
   Cite this work as:
   * C. Bannwarth, E. Caldeweyher, S. Ehlert, A. Hansen, P. Pracht,
     J. Seibert, S. Spicher, S. Grimme, WIREs Comput. Mol. Sci., 2020, 11,
     e01493. DOI: 10.1002/wcms.1493
   
   for GFN2-xTB:
   * C. Bannwarth, S. Ehlert and S. Grimme., J. Chem. Theory Comput., 2019,
     15, 1652-1671. DOI: 10.1021/acs.jctc.8b01176
   for GFN1-xTB:
   * S. Grimme, C. Bannwarth, P. Shushkov, J. Chem. Theory Comput., 2017,
     13, 1989-2009. DOI: 10.1021/acs.jctc.7b00118
   for GFN0-xTB:
   * P. Pracht, E. Caldeweyher, S. Ehlert, S. Grimme, ChemRxiv, 2019, preprint.
     DOI: 10.26434/chemrxiv.8326202.v1
   for GFN-FF:
   * S. Spicher and S. Grimme, Angew. Chem. Int. Ed., 2020, 59, 15665-15673.
     DOI: 10.1002/anie.202004239
   
   for ALPB and GBSA implicit solvation:
   * S. Ehlert, M. Stahn, S. Spicher, S. Grimme, J. Chem. Theory Comput.,
     2021, 17, 4250-4261. DOI: 10.1021/acs.jctc.1c00471
   
   for DFT-D4:
   * E. Caldeweyher, C. Bannwarth and S. Grimme, J. Chem. Phys., 2017,
     147, 034112. DOI: 10.1063/1.4993215
   * E. Caldeweyher, S. Ehlert, A. Hansen, H. Neugebauer, S. Spicher,
     C. Bannwarth and S. Grimme, J. Chem. Phys., 2019, 150, 154122.
     DOI: 10.1063/1.5090222
   * E. Caldeweyher, J.-M. Mewes, S. Ehlert and S. Grimme, Phys. Chem. Chem. Phys.
     2020, 22, 8499-8512. DOI: 10.1039/D0CP00502A
   
   for sTDA-xTB:
   * S. Grimme and C. Bannwarth, J. Chem. Phys., 2016, 145, 054103.
     DOI: 10.1063/1.4959605
   
   in the mass-spec context:
   * V. Asgeirsson, C. Bauer and S. Grimme, Chem. Sci., 2017, 8, 4879.
     DOI: 10.1039/c7sc00601b
   * J. Koopman and S. Grimme, ACS Omega 2019, 4, 12, 15120-15133.
     DOI: 10.1021/acsomega.9b02011
   
   for metadynamics refer to:
   * S. Grimme, J. Chem. Theory Comput., 2019, 155, 2847-2862
     DOI: 10.1021/acs.jctc.9b00143
   
   for SPH calculations refer to:
   * S. Spicher and S. Grimme, J. Chem. Theory Comput., 2021, 17, 1701-1714
     DOI: 10.1021/acs.jctc.0c01306
   
   with help from (in alphabetical order)
   P. Atkinson, C. Bannwarth, F. Bohle, G. Brandenburg, E. Caldeweyher
   M. Checinski, S. Dohm, S. Ehlert, S. Ehrlich, I. Gerasimov, C. Hölzer
   A. Katbashev, J. Koopman, C. Lavigne, S. Lehtola, F. März, M. Müller,
   F. Musil, H. Neugebauer, J. Pisarek, C. Plett, P. Pracht, F. Pultar,
   J. Seibert, P. Shushkov, S. Spicher, M. Stahn, M. Steiner, T. Strunk,
   J. Stückrath, T. Rose, and J. Unsleber
   
 * started run on 2024/06/17 at 13:46:47.024     

           -------------------------------------------------
          |                Calculation Setup                |
           -------------------------------------------------

          program call               : /home/abt-grimme/AK-bin/xtb input.xyz --input input.inp --opt --gbsa water
          hostname                   : boar076.thch.uni-bonn.de
          coordinate file            : input.xyz
          omp threads                :                     8

   ID    Z sym.   atoms
    1    6 C      1-120, 363-482, 725-844, 1087-1206, 1449-1568, 1811-1930,
                  2173-2292, 2535-2654, 2897-3016
    2    1 H      121-362, 483-724, 845-1086, 1207-1448, 1569-1810,
                  1931-2172, 2293-2534, 2655-2896, 3017-3258

molecular fragmentation (1/2 indicates fragments):
111111111111111111111111111111111111111111111111111111111111111111111111
111111111111111111111111111111111111111111111111111111111111111111111111
111111111111111111111111111111111111111111111111111111111111111111111111
111111111111111111111111111111111111111111111111111111111111111111111111
111111111111111111111111111111111111111111111111111111111111111111111111
112222222222222222222222222222222222222222222222222222222222222222222222
222222222222222222222222222222222222222222222222222222222222222222222222
222222222222222222222222222222222222222222222222222222222222222222222222
222222222222222222222222222222222222222222222222222222222222222222222222
222222222222222222222222222222222222222222222222222222222222222222222222
222222222222222222222222222222222222222222222222222222222222222222222222
222222222222222222222222222222222222222222222222222222222222222222222222
222222222222222222222222222222222222222222222222222222222222222222222222
222222222222222222222222222222222222222222222222222222222222222222222222
222222222222222222222222222222222222222222222222222222222222222222222222
222222222222222222222222222222222222222222222222222222222222222222222222
222222222222222222222222222222222222222222222222222222222222222222222222
222222222222222222222222222222222222222222222222222222222222222222222222
222222222222222222222222222222222222222222222222222222222222222222222222
222222222222222222222222222222222222222222222222222222222222222222222222
222222222222222222222222222222222222222222222222222222222222222222222222
222222222222222222222222222222222222222222222222222222222222222222222222
222222222222222222222222222222222222222222222222222222222222222222222222
222222222222222222222222222222222222222222222222222222222222222222222222
222222222222222222222222222222222222222222222222222222222222222222222222
222222222222222222222222222222222222222222222222222222222222222222222222
222222222222222222222222222222222222222222222222222222222222222222222222
222222222222222222222222222222222222222222222222222222222222222222222222
222222222222222222222222222222222222222222222222222222222222222222222222
222222222222222222222222222222222222222222222222222222222222222222222222
222222222222222222222222222222222222222222222222222222222222222222222222
222222222222222222222222222222222222222222222222222222222222222222222222
222222222222222222222222222222222222222222222222222222222222222222222222
222222222222222222222222222222222222222222222222222222222222222222222222
222222222222222222222222222222222222222222222222222222222222222222222222
222222222222222222222222222222222222222222222222222222222222222222222222
222222222222222222222222222222222222222222222222222222222222222222222222
222222222222222222222222222222222222222222222222222222222222222222222222
222222222222222222222222222222222222222222222222222222222222222222222222
222222222222222222222222222222222222222222222222222222222222222222222222
222222222222222222222222222222222222222222222222222222222222222222222222
222222222222222222222222222222222222222222222222222222222222222222222222
222222222222222222222222222222222222222222222222222222222222222222222222
222222222222222222222222222222222222222222222222222222222222222222222222
222222222222222222222222222222222222222222222222222222222222222222222222
222222222222222222
# atoms in fragment 1/2:   362  2896
 fragment masses (1/2) :     1685.21    13481.68
CMA distance (Bohr)    :  11.939
constraining FC (au)   :  0.0500

           -------------------------------------------------
          |                 G F N 2 - x T B                 |
           -------------------------------------------------

        Reference                      10.1021/acs.jctc.8b01176
      * Hamiltonian:
        H0-scaling (s, p, d)           1.850000    2.230000    2.230000
        zeta-weighting                 0.500000
      * Dispersion:
        s8                             2.700000
        a1                             0.520000
        a2                             5.000000
        s9                             5.000000
      * Repulsion:
        kExp                           1.500000    1.000000
        rExp                           1.000000
      * Coulomb:
        alpha                          2.000000
        third order                    shell-resolved
        anisotropic                    true
        a3                             3.000000
        a5                             4.000000
        cn-shift                       1.200000
        cn-exp                         4.000000
        max-rad                        5.000000

      * Solvation model:               GBSA
        Solvent                        water
        Parameter file                 internal GFN2-xTB/GBSA
        Dielectric constant                8.0200E+01
        Reference state                gsolv [1 M gas/solution]
        Free energy shift                  1.8574E-03 Eh       1.1656E+00 kcal/mol
        Temperature                        2.9815E+02 K
        Density                            1.0000E+00 kg/L
        Solvent mass                       1.8000E+01 g/mol
        Interaction kernel             Still
        Born radius scaling (c1)           1.5524E+00
        Born radii integrator          GBOBC
        Born offset                        2.4628E-02 a0       4.6540E-02 AA
        H-bond correction              true
        Ion screening                  false
        Surface tension                    1.0000E-05 Eh       1.5569E+01 dyn/cm
        Grid points                               230 per atom
q/qsh data taken from xtbrestart
CAMM data taken from xtbrestart

          ...................................................
          :                      SETUP                      :
          :.................................................:
          :  # basis functions                6498          :
          :  # atomic orbitals                6498          :
          :  # shells                         4338          :
          :  # electrons                      6498          :
          :  max. iterations                   250          :
          :  Hamiltonian                  GFN2-xTB          :
          :  restarted?                       true          :
          :  GBSA solvation                   true          :
          :  PC potential                    false          :
          :  electronic temp.          300.0000000     K    :
          :  accuracy                    1.0000000          :
          :  -> integral cutoff          0.2500000E+02      :
          :  -> integral neglect         0.1000000E-07      :
          :  -> SCF convergence          0.1000000E-05 Eh   :
          :  -> wf. convergence          0.1000000E-03 e    :
          :  Broyden damping             0.4000000          :
          ...................................................

 iter      E             dE          RMSdq      gap      omega  full diag
   1  -3472.2683182 -0.347227E+04  0.818E-05   10.85       0.0  T
   2  -3472.2683182 -0.484306E-08  0.641E-05   10.85      27.3  T
   3  -3472.2683182 -0.666523E-08  0.334E-05   10.85      52.5  T

   *** convergence criteria satisfied after 3 iterations ***

         #    Occupation            Energy/Eh            Energy/eV
      -------------------------------------------------------------
         1        2.0000           -0.6168398             -16.7851
       ...           ...                  ...                  ...
      3243        2.0000           -0.3858979             -10.5008
      3244        2.0000           -0.3857495             -10.4968
      3245        2.0000           -0.3854352             -10.4882
      3246        2.0000           -0.3850971             -10.4790
      3247        2.0000           -0.3849089             -10.4739
      3248        2.0000           -0.3837926             -10.4435
      3249        2.0000           -0.3820650             -10.3965 (HOMO)
      3250                          0.0165833               0.4513 (LUMO)
      3251                          0.0178493               0.4857
      3252                          0.0189457               0.5155
      3253                          0.0198399               0.5399
      3254                          0.0203280               0.5532
       ...                                ...                  ...
      6498                          0.3841462              10.4531
      -------------------------------------------------------------
                  HL-Gap            0.3986483 Eh           10.8478 eV
             Fermi-level           -0.1827408 Eh           -4.9726 eV

 SCC (total)                   0 d,  0 h,  6 min, 49.720 sec
 SCC setup                      ...        0 min,  1.699 sec (  0.415%)
 Dispersion                     ...        0 min,  3.566 sec (  0.870%)
 classical contributions        ...        0 min,  0.146 sec (  0.036%)
 integral evaluation            ...        0 min,  5.944 sec (  1.451%)
 iterations                     ...        2 min, 55.592 sec ( 42.857%)
 molecular gradient             ...        3 min, 35.079 sec ( 52.494%)
 printout                       ...        0 min,  7.694 sec (  1.878%)

         :::::::::::::::::::::::::::::::::::::::::::::::::::::
         ::                     SUMMARY                     ::
         :::::::::::::::::::::::::::::::::::::::::::::::::::::
         :: total energy           -3426.797488847336 Eh    ::
         :: total w/o Gsasa/hb     -3426.707991813398 Eh    ::
         :: gradient norm              0.633446894222 Eh/a0 ::
         :: HOMO-LUMO gap             10.847772866449 eV    ::
         ::.................................................::
         :: SCC energy             -3472.268318188271 Eh    ::
         :: -> isotropic ES            0.279064499030 Eh    ::
         :: -> anisotropic ES          1.272727476410 Eh    ::
         :: -> anisotropic XC          2.131955290819 Eh    ::
         :: -> dispersion             -4.261878668278 Eh    ::
         :: -> Gsolv                  -0.024640713831 Eh    ::
         ::    -> Gelec                0.064856320107 Eh    ::
         ::    -> Gsasa               -0.087484411483 Eh    ::
         ::    -> Ghb                 -0.003870065582 Eh    ::
         ::    -> Gshift               0.001857443127 Eh    ::
         :: repulsion energy          44.761247708273 Eh    ::
         :: add. restraining           0.000000000000 Eh    ::
         :: total charge              -0.000000000008 e     ::
         :::::::::::::::::::::::::::::::::::::::::::::::::::::

      ----------------------------------------------------------- 
     |              Fast Inertial Relaxation Engine              |
      ----------------------------------------------------------- 

          ...................................................
          :                      SETUP                      :
          :.................................................:
          :   energy convergence        0.5000000E-05 Eh    :
          :   grad. convergence         0.1000000E-02 Eh/a0 :
          :   optimization log               true           :
          :   writing optlog all                1     steps :
          :   Hessian reset                    20     steps :
          :   time step scaling                 5     steps :
          :   maximium step len.        1.0000000     a0    :
          :   initial time step         0.2500000     fs    :
          :   maximum time step         1.2500000     fs    :
          :   power reset thr           0.0000000     au    :
          :   alpha parameter           0.1000000           :
          :   BFGS update                   false           :
          :   preconditioning               false           :
          ...................................................

........................................................................
.............................. CYCLE    1 ..............................
........................................................................

 iter      E             dE          RMSdq      gap      omega  full diag
   1  -3472.5024559 -0.347250E+04  0.748E-03   10.88       0.0  T
   2  -3472.5025005 -0.446133E-04  0.393E-03   10.88       1.0  T
   3  -3472.5025009 -0.435384E-06  0.183E-03   10.88       1.0  T
   4  -3472.5025011 -0.166233E-06  0.230E-04   10.88       7.6  T
   5  -3472.5025011 -0.415330E-07  0.149E-04   10.88      11.7  T
     SCC iter.                  ...        4 min, 41.663 sec
     gradient                   ...        3 min, 34.293 sec
 * total energy  : -3426.8430659 Eh     change    :  -0.4557702E-01 Eh
   gradient norm :     0.5994493 Eh/a0  converged?    E=F G=F D=F
   time step     :     0.2500000 fs     power     :   0.2351505E-05
   step length   :     0.0742386 a0     speed     :   0.7182986E-02

........................................................................
.............................. CYCLE    2 ..............................
........................................................................

 iter      E             dE          RMSdq      gap      omega  full diag
   1  -3472.8474718 -0.347285E+04  0.109E-02   10.91       0.0  T
   2  -3472.8475673 -0.955227E-04  0.575E-03   10.91       1.0  T
   3  -3472.8475684 -0.101446E-05  0.268E-03   10.91       1.0  T
   4  -3472.8475688 -0.415271E-06  0.359E-04   10.91       4.9  T
   5  -3472.8475689 -0.100292E-06  0.242E-04   10.91       7.3  T
     SCC iter.                  ...        4 min, 42.843 sec
     gradient                   ...        3 min, 33.363 sec
 * total energy  : -3426.9057295 Eh     change    :  -0.6266363E-01 Eh
   gradient norm :     0.5504382 Eh/a0  converged?    E=F G=F D=F
   time step     :     0.2500000 fs     power     :   0.3179538E-05
   step length   :     0.1092491 a0     speed     :   0.1057044E-01

........................................................................
.............................. CYCLE    3 ..............................
........................................................................

 iter      E             dE          RMSdq      gap      omega  full diag
   1  -3473.2941837 -0.347329E+04  0.140E-02   10.93       0.0  T
   2  -3473.2943391 -0.155356E-03  0.736E-03   10.93       1.0  T
   3  -3473.2943408 -0.174606E-05  0.341E-03   10.93       1.0  T
   4  -3473.2943415 -0.711153E-06  0.471E-04   10.93       3.7  T
   5  -3473.2943417 -0.168304E-06  0.319E-04   10.93       5.5  T
     SCC iter.                  ...        4 min, 34.706 sec
     gradient                   ...        3 min, 35.616 sec
 * total energy  : -3426.9789153 Eh     change    :  -0.7318576E-01 Eh
   gradient norm :     0.4892676 Eh/a0  converged?    E=F G=F D=F
   time step     :     0.2500000 fs     power     :   0.3641328E-05
   step length   :     0.1413885 a0     speed     :   0.1368010E-01

........................................................................
.............................. CYCLE    4 ..............................
........................................................................

 iter      E             dE          RMSdq      gap      omega  full diag
   1  -3473.8309594 -0.347383E+04  0.166E-02   10.94       0.0  T
   2  -3473.8311734 -0.213980E-03  0.871E-03   10.94       1.0  T
   3  -3473.8311760 -0.257590E-05  0.400E-03   10.94       1.0  T
   4  -3473.8311770 -0.101718E-05  0.569E-04   10.93       3.1  T
   5  -3473.8311772 -0.234518E-06  0.384E-04   10.93       4.6  T
   6  -3473.8311774 -0.155049E-06  0.178E-04   10.93       9.8  T
     SCC iter.                  ...        5 min, 22.451 sec
     gradient                   ...        3 min, 34.409 sec
 * total energy  : -3427.0552526 Eh     change    :  -0.7633737E-01 Eh
   gradient norm :     0.4206141 Eh/a0  converged?    E=F G=F D=F
   time step     :     0.2500000 fs     power     :   0.3709070E-05
   step length   :     0.1697933 a0     speed     :   0.1642841E-01

........................................................................
.............................. CYCLE    5 ..............................
........................................................................

 iter      E             dE          RMSdq      gap      omega  full diag
   1  -3474.4438596 -0.347444E+04  0.186E-02   10.94       0.0  T
   2  -3474.4441199 -0.260309E-03  0.974E-03   10.94       1.0  T
   3  -3474.4441233 -0.336519E-05  0.440E-03   10.94       1.0  T
   4  -3474.4441245 -0.122263E-05  0.637E-04   10.94       2.7  T
   5  -3474.4441248 -0.274984E-06  0.421E-04   10.94       4.2  T
   6  -3474.4441249 -0.166312E-06  0.187E-04   10.94       9.4  T
     SCC iter.                  ...        5 min, 23.193 sec
     gradient                   ...        3 min, 35.060 sec
 * total energy  : -3427.1276224 Eh     change    :  -0.7236982E-01 Eh
   gradient norm :     0.3508608 Eh/a0  converged?    E=F G=F D=F
   time step     :     0.2500000 fs     power     :   0.3409281E-05
   step length   :     0.1937350 a0     speed     :   0.1874490E-01

........................................................................
.............................. CYCLE    6 ..............................
........................................................................

 iter      E             dE          RMSdq      gap      omega  full diag
   1  -3475.1899166 -0.347519E+04  0.220E-02   10.94       0.0  T
   2  -3475.1902648 -0.348226E-03  0.115E-02   10.94       1.0  T
   3  -3475.1902699 -0.514736E-05  0.508E-03   10.94       1.0  T
   4  -3475.1902717 -0.171395E-05  0.772E-04   10.94       2.3  T
   5  -3475.1902720 -0.360084E-06  0.502E-04   10.94       3.5  T
   6  -3475.1902722 -0.211456E-06  0.211E-04   10.94       8.3  T
     SCC iter.                  ...        5 min, 24.257 sec
     gradient                   ...        3 min, 35.194 sec
 * total energy  : -3427.1961375 Eh     change    :  -0.6851503E-01 Eh
   gradient norm :     0.2842457 Eh/a0  converged?    E=F G=F D=F
   time step     :     0.2750000 fs     power     :   0.2754275E-05
   step length   :     0.2359278 a0     speed     :   0.2075207E-01

........................................................................
.............................. CYCLE    7 ..............................
........................................................................

 iter      E             dE          RMSdq      gap      omega  full diag
   1  -3476.0632233 -0.347606E+04  0.251E-02   10.94       0.0  T
   2  -3476.0636312 -0.407892E-03  0.132E-02   10.94       1.0  T
   3  -3476.0636387 -0.749392E-05  0.551E-03   10.94       1.0  T
   4  -3476.0636409 -0.221056E-05  0.905E-04   10.94       1.9  T
   5  -3476.0636413 -0.414283E-06  0.577E-04   10.94       3.0  T
   6  -3476.0636415 -0.241413E-06  0.223E-04   10.93       7.9  T
     SCC iter.                  ...        5 min, 22.348 sec
     gradient                   ...        3 min, 34.024 sec
 * total energy  : -3427.2526750 Eh     change    :  -0.5653756E-01 Eh
   gradient norm :     0.2414396 Eh/a0  converged?    E=F G=F D=F
   time step     :     0.3025000 fs     power     :   0.1845188E-05
   step length   :     0.2777006 a0     speed     :   0.2220580E-01

........................................................................
.............................. CYCLE    8 ..............................
........................................................................

 iter      E             dE          RMSdq      gap      omega  full diag
   1  -3477.0264647 -0.347703E+04  0.273E-02   10.94       0.0  T
   2  -3477.0268532 -0.388510E-03  0.145E-02   10.94       1.0  T
   3  -3477.0268633 -0.100886E-04  0.541E-03   10.94       1.0  T
   4  -3477.0268657 -0.245013E-05  0.101E-03   10.93       1.7  T
   5  -3477.0268661 -0.380838E-06  0.622E-04   10.93       2.8  T
   6  -3477.0268663 -0.224482E-06  0.210E-04   10.93       8.4  T
     SCC iter.                  ...        5 min, 24.871 sec
     gradient                   ...        3 min, 34.868 sec
 * total energy  : -3427.2919701 Eh     change    :  -0.3929506E-01 Eh
   gradient norm :     0.2378730 Eh/a0  converged?    E=F G=F D=F
   time step     :     0.3327500 fs     power     :   0.9314494E-06
   step length   :     0.3129838 a0     speed     :   0.2275196E-01

........................................................................
.............................. CYCLE    9 ..............................
........................................................................

 iter      E             dE          RMSdq      gap      omega  full diag
   1  -3478.0026899 -0.347800E+04  0.290E-02   10.94       0.0  T
   2  -3478.0029645 -0.274541E-03  0.158E-02   10.93       1.0  T
   3  -3478.0029767 -0.122103E-04  0.455E-03   10.93       1.0  T
   4  -3478.0029788 -0.216216E-05  0.105E-03   10.93       1.7  T
   5  -3478.0029791 -0.248364E-06  0.611E-04   10.93       2.9  T
   6  -3478.0029793 -0.157401E-06  0.165E-04   10.93      10.6  T
     SCC iter.                  ...        5 min, 28.105 sec
     gradient                   ...        3 min, 34.708 sec
 * total energy  : -3427.3150063 Eh     change    :  -0.2303622E-01 Eh
   gradient norm :     0.2535364 Eh/a0  converged?    E=F G=F D=F
   time step     :     0.3660250 fs     power     :   0.2772473E-06
   step length   :     0.3361455 a0     speed     :   0.2221425E-01

........................................................................
.............................. CYCLE   10 ..............................
........................................................................

 iter      E             dE          RMSdq      gap      omega  full diag
   1  -3478.8985519 -0.347890E+04  0.310E-02   10.93       0.0  T
   2  -3478.8986805 -0.128622E-03  0.175E-02   10.93       1.0  T
   3  -3478.8986937 -0.131812E-04  0.293E-03   10.93       1.0  T
   4  -3478.8986952 -0.154440E-05  0.105E-03   10.93       1.7  T
   5  -3478.8986953 -0.887135E-07  0.529E-04   10.93       3.3  T
   6  -3478.8986954 -0.825835E-07  0.976E-05   10.93      18.0  T
     SCC iter.                  ...        5 min, 30.119 sec
     gradient                   ...        3 min, 35.359 sec
 * total energy  : -3427.3268820 Eh     change    :  -0.1187572E-01 Eh
   gradient norm :     0.2540286 Eh/a0  converged?    E=F G=F D=F
   time step     :     0.4026275 fs     power     :  -0.8991548E-07
   step length   :     0.3487739 a0     speed     :   0.2095346E-01

........................................................................
.............................. CYCLE   11 ..............................
........................................................................
 * reset velocities

 iter      E             dE          RMSdq      gap      omega  full diag
   1  -3478.8813582 -0.347888E+04  0.117E-03   10.93       0.0  T
   2  -3478.8813590 -0.807422E-06  0.675E-04   10.93       2.6  T
   3  -3478.8813590 -0.459295E-08  0.270E-04   10.93       6.5  T
     SCC iter.                  ...        2 min, 42.796 sec
     gradient                   ...        3 min, 34.051 sec
 * total energy  : -3427.3292994 Eh     change    :  -0.2417364E-02 Eh
   gradient norm :     0.2468756 Eh/a0  converged?    E=F G=F D=F
   time step     :     0.2013138 fs     power     :   0.1570695E-06
   step length   :     0.0096525 a0     speed     :   0.1159794E-02

........................................................................
.............................. CYCLE   12 ..............................
........................................................................

 iter      E             dE          RMSdq      gap      omega  full diag
   1  -3478.8471296 -0.347885E+04  0.231E-03   10.93       0.0  T
   2  -3478.8471328 -0.312107E-05  0.133E-03   10.93       1.3  T
   3  -3478.8471328 -0.188520E-07  0.530E-04   10.93       3.3  T
   4  -3478.8471328 -0.940736E-08  0.466E-05   10.93      37.6  T
     SCC iter.                  ...        3 min, 37.882 sec
     gradient                   ...        3 min, 34.143 sec
 * total energy  : -3427.3338647 Eh     change    :  -0.4565313E-02 Eh
   gradient norm :     0.2328620 Eh/a0  converged?    E=F G=F D=F
   time step     :     0.2013138 fs     power     :   0.2921070E-06
   step length   :     0.0190331 a0     speed     :   0.2286921E-02

........................................................................
.............................. CYCLE   13 ..............................
........................................................................

 iter      E             dE          RMSdq      gap      omega  full diag
   1  -3478.7968961 -0.347880E+04  0.338E-03   10.93       0.0  T
   2  -3478.7969028 -0.675964E-05  0.194E-03   10.93       1.0  T
   3  -3478.7969029 -0.493733E-07  0.781E-04   10.93       2.2  T
   4  -3478.7969029 -0.272212E-07  0.803E-05   10.93      21.8  T
     SCC iter.                  ...        3 min, 39.921 sec
     gradient                   ...        3 min, 33.580 sec
 * total energy  : -3427.3400714 Eh     change    :  -0.6206678E-02 Eh
   gradient norm :     0.2124466 Eh/a0  converged?    E=F G=F D=F
   time step     :     0.2013138 fs     power     :   0.3902490E-06
   step length   :     0.0278806 a0     speed     :   0.3349990E-02

........................................................................
.............................. CYCLE   14 ..............................
........................................................................

 iter      E             dE          RMSdq      gap      omega  full diag
   1  -3478.7319851 -0.347873E+04  0.434E-03   10.93       0.0  T
   2  -3478.7319963 -0.112492E-04  0.250E-03   10.93       1.0  T
   3  -3478.7319964 -0.876767E-07  0.101E-03   10.93       1.7  T
   4  -3478.7319965 -0.491755E-07  0.108E-04   10.93      16.1  T
   5  -3478.7319965 -0.135674E-07  0.766E-05   10.93      22.9  T
     SCC iter.                  ...        4 min, 29.042 sec
     gradient                   ...        3 min, 33.150 sec
 * total energy  : -3427.3472351 Eh     change    :  -0.7163668E-02 Eh
   gradient norm :     0.1863496 Eh/a0  converged?    E=F G=F D=F
   time step     :     0.2013138 fs     power     :   0.4409436E-06
   step length   :     0.0359497 a0     speed     :   0.4319536E-02

........................................................................
.............................. CYCLE   15 ..............................
........................................................................

 iter      E             dE          RMSdq      gap      omega  full diag
   1  -3478.6541726 -0.347865E+04  0.517E-03   10.93       0.0  T
   2  -3478.6541887 -0.160890E-04  0.298E-03   10.93       1.0  T
   3  -3478.6541888 -0.116043E-06  0.121E-03   10.93       1.5  T
   4  -3478.6541889 -0.634654E-07  0.123E-04   10.93      14.3  T
   5  -3478.6541889 -0.176769E-07  0.852E-05   10.93      20.6  T
     SCC iter.                  ...        4 min, 29.687 sec
     gradient                   ...        3 min, 35.416 sec
 * total energy  : -3427.3545748 Eh     change    :  -0.7339709E-02 Eh
   gradient norm :     0.1556245 Eh/a0  converged?    E=F G=F D=F
   time step     :     0.2013138 fs     power     :   0.4393789E-06
   step length   :     0.0430191 a0     speed     :   0.5168952E-02

........................................................................
.............................. CYCLE   16 ..............................
........................................................................

 iter      E             dE          RMSdq      gap      omega  full diag
   1  -3478.5656835 -0.347857E+04  0.585E-03   10.93       0.0  T
   2  -3478.5657043 -0.207119E-04  0.336E-03   10.93       1.0  T
   3  -3478.5657044 -0.147906E-06  0.137E-03   10.93       1.3  T
   4  -3478.5657045 -0.809082E-07  0.139E-04   10.93      12.6  T
   5  -3478.5657045 -0.227069E-07  0.958E-05   10.93      18.3  T
     SCC iter.                  ...        4 min, 35.705 sec
     gradient                   ...        3 min, 34.553 sec
 * total energy  : -3427.3613066 Eh     change    :  -0.6731841E-02 Eh
   gradient norm :     0.1216822 Eh/a0  converged?    E=F G=F D=F
   time step     :     0.2013138 fs     power     :   0.3869359E-06
   step length   :     0.0488975 a0     speed     :   0.5875273E-02

........................................................................
.............................. CYCLE   17 ..............................
........................................................................

 iter      E             dE          RMSdq      gap      omega  full diag
   1  -3478.4587201 -0.347846E+04  0.701E-03   10.93       0.0  T
   2  -3478.4587503 -0.301454E-04  0.404E-03   10.93       1.0  T
   3  -3478.4587505 -0.210844E-06  0.165E-03   10.93       1.1  T
   4  -3478.4587506 -0.114379E-06  0.165E-04   10.93      10.6  T
   5  -3478.4587506 -0.324771E-07  0.113E-04   10.93      15.5  T
     SCC iter.                  ...        4 min, 36.226 sec
     gradient                   ...        3 min, 32.481 sec
 * total energy  : -3427.3672152 Eh     change    :  -0.5908563E-02 Eh
   gradient norm :     0.0833195 Eh/a0  converged?    E=F G=F D=F
   time step     :     0.2214451 fs     power     :   0.2795066E-06
   step length   :     0.0592619 a0     speed     :   0.6473281E-02

........................................................................
.............................. CYCLE   18 ..............................
........................................................................

 iter      E             dE          RMSdq      gap      omega  full diag
   1  -3478.3350636 -0.347834E+04  0.803E-03   10.93       0.0  T
   2  -3478.3351039 -0.402489E-04  0.463E-03   10.93       1.0  T
   3  -3478.3351042 -0.279005E-06  0.191E-03   10.93       1.0  T
   4  -3478.3351043 -0.149791E-06  0.190E-04   10.93       9.2  T
   5  -3478.3351044 -0.432078E-07  0.128E-04   10.93      13.7  T
     SCC iter.                  ...        4 min, 33.881 sec
     gradient                   ...        3 min, 34.041 sec
 * total energy  : -3427.3711223 Eh     change    :  -0.3907153E-02 Eh
   gradient norm :     0.0500592 Eh/a0  converged?    E=F G=F D=F
   time step     :     0.2435896 fs     power     :   0.1231034E-06
   step length   :     0.0693053 a0     speed     :   0.6882130E-02

........................................................................
.............................. CYCLE   19 ..............................
........................................................................

 iter      E             dE          RMSdq      gap      omega  full diag
   1  -3478.2046831 -0.347820E+04  0.842E-03   10.93       0.0  T
   2  -3478.2047283 -0.451812E-04  0.488E-03   10.93       1.0  T
   3  -3478.2047286 -0.314672E-06  0.203E-03   10.93       1.0  T
   4  -3478.2047288 -0.164314E-06  0.200E-04   10.93       8.8  T
   5  -3478.2047288 -0.484056E-07  0.132E-04   10.93      13.3  T
     SCC iter.                  ...        4 min, 31.254 sec
     gradient                   ...        3 min, 35.602 sec
 * total energy  : -3427.3720750 Eh     change    :  -0.9526689E-03 Eh
   gradient norm :     0.0554464 Eh/a0  converged?    E=F G=F D=F
   time step     :     0.2679486 fs     power     :  -0.4395888E-07
   step length   :     0.0762707 a0     speed     :   0.6885279E-02

........................................................................
.............................. CYCLE   20 ..............................
........................................................................
 * reset velocities

 iter      E             dE          RMSdq      gap      omega  full diag
   1  -3478.2059355 -0.347821E+04  0.126E-04   10.93       0.0  T
   2  -3478.2059355 -0.685395E-08  0.832E-05   10.93      21.1  T
   3  -3478.2059355 -0.481305E-08  0.385E-05   10.93      45.5  T
     SCC iter.                  ...        2 min, 45.448 sec
     gradient                   ...        3 min, 34.991 sec
 * total energy  : -3427.3721266 Eh     change    :  -0.5156296E-04 Eh
   gradient norm :     0.0550803 Eh/a0  converged?    E=F G=F D=T
   time step     :     0.1339743 fs     power     :   0.5090330E-08
   step length   :     0.0009331 a0     speed     :   0.1684689E-03
 * RMSD in coord.:     0.0346873 a0     energy gain  -0.5746377E+00 Eh

........................................................................
.............................. CYCLE   21 ..............................
........................................................................

 iter      E             dE          RMSdq      gap      omega  full diag
   1  -3478.2123162 -0.347821E+04  0.552E-04   10.93       0.0  T
   2  -3478.2123163 -0.853747E-07  0.314E-04   10.93       5.6  T
   3  -3478.2123163 -0.715772E-09  0.846E-05   10.93      20.7  T
     SCC iter.                  ...        2 min, 47.898 sec
     gradient                   ...        3 min, 34.432 sec
 * total energy  : -3427.3723959 Eh     change    :  -0.2693128E-03 Eh
   gradient norm :     0.0533583 Eh/a0  converged?    E=F G=F D=F
   time step     :     0.2500000 fs     power     :   0.1406350E-07
   step length   :     0.0049688 a0     speed     :   0.4807589E-03

........................................................................
.............................. CYCLE   22 ..............................
........................................................................

 iter      E             dE          RMSdq      gap      omega  full diag
   1  -3478.2225247 -0.347822E+04  0.901E-04   10.93       0.0  T
   2  -3478.2225249 -0.218534E-06  0.513E-04   10.93       3.4  T
   3  -3478.2225249 -0.387035E-08  0.136E-04   10.93      12.9  T
     SCC iter.                  ...        2 min, 43.572 sec
     gradient                   ...        3 min, 35.885 sec
 * total energy  : -3427.3728166 Eh     change    :  -0.4207258E-03 Eh
   gradient norm :     0.0507491 Eh/a0  converged?    E=F G=F D=F
   time step     :     0.2500000 fs     power     :   0.2173806E-07
   step length   :     0.0080943 a0     speed     :   0.7831649E-03

........................................................................
.............................. CYCLE   23 ..............................
........................................................................

 iter      E             dE          RMSdq      gap      omega  full diag
   1  -3478.2360642 -0.347824E+04  0.121E-03   10.93       0.0  T
   2  -3478.2360646 -0.382273E-06  0.691E-04   10.93       2.5  T
   3  -3478.2360646 -0.916043E-08  0.180E-04   10.93       9.7  T
     SCC iter.                  ...        2 min, 42.063 sec
     gradient                   ...        3 min, 37.806 sec
 * total energy  : -3427.3733577 Eh     change    :  -0.5411138E-03 Eh
   gradient norm :     0.0475753 Eh/a0  converged?    E=F G=F D=F
   time step     :     0.2500000 fs     power     :   0.2767222E-07
   step length   :     0.0110607 a0     speed     :   0.1070179E-02

........................................................................
.............................. CYCLE   24 ..............................
........................................................................

 iter      E             dE          RMSdq      gap      omega  full diag
   1  -3478.2522382 -0.347825E+04  0.148E-03   10.93       0.0  T
   2  -3478.2522388 -0.538265E-06  0.842E-04   10.93       2.1  T
   3  -3478.2522388 -0.154764E-07  0.214E-04   10.93       8.2  T
     SCC iter.                  ...        2 min, 42.500 sec
     gradient                   ...        3 min, 36.935 sec
 * total energy  : -3427.3739844 Eh     change    :  -0.6266427E-03 Eh
   gradient norm :     0.0442854 Eh/a0  converged?    E=F G=F D=F
   time step     :     0.2500000 fs     power     :   0.3175503E-07
   step length   :     0.0138226 a0     speed     :   0.1337414E-02

........................................................................
.............................. CYCLE   25 ..............................
........................................................................

 iter      E             dE          RMSdq      gap      omega  full diag
   1  -3478.2701540 -0.347827E+04  0.169E-03   10.93       0.0  T
   2  -3478.2701547 -0.646015E-06  0.962E-04   10.93       1.8  T
   3  -3478.2701547 -0.218065E-07  0.233E-04   10.93       7.5  T
     SCC iter.                  ...        2 min, 49.210 sec
     gradient                   ...        3 min, 34.179 sec
 * total energy  : -3427.3746647 Eh     change    :  -0.6803221E-03 Eh
   gradient norm :     0.0413948 Eh/a0  converged?    E=F G=F D=F
   time step     :     0.2500000 fs     power     :   0.3424661E-07
   step length   :     0.0163493 a0     speed     :   0.1581880E-02

........................................................................
.............................. CYCLE   26 ..............................
........................................................................

 iter      E             dE          RMSdq      gap      omega  full diag
   1  -3478.2907636 -0.347829E+04  0.203E-03   10.93       0.0  T
   2  -3478.2907644 -0.824125E-06  0.116E-03   10.93       1.5  T
   3  -3478.2907644 -0.321406E-07  0.261E-04   10.93       6.7  T
   4  -3478.2907644 -0.126693E-07  0.650E-05   10.93      27.0  T
     SCC iter.                  ...        3 min, 34.661 sec
     gradient                   ...        3 min, 34.267 sec
 * total energy  : -3427.3754534 Eh     change    :  -0.7887301E-03 Eh
   gradient norm :     0.0391940 Eh/a0  converged?    E=F G=F D=F
   time step     :     0.2750000 fs     power     :   0.3580456E-07
   step length   :     0.0207478 a0     speed     :   0.1824963E-02

........................................................................
.............................. CYCLE   27 ..............................
........................................................................

 iter      E             dE          RMSdq      gap      omega  full diag
   1  -3478.3128418 -0.347831E+04  0.234E-03   10.93       0.0  T
   2  -3478.3128427 -0.901449E-06  0.134E-03   10.93       1.3  T
   3  -3478.3128427 -0.401565E-07  0.269E-04   10.93       6.5  T
   4  -3478.3128428 -0.160494E-07  0.721E-05   10.93      24.3  T
     SCC iter.                  ...        3 min, 40.605 sec
     gradient                   ...        3 min, 34.898 sec
 * total energy  : -3427.3763546 Eh     change    :  -0.9012083E-03 Eh
   gradient norm :     0.0382173 Eh/a0  converged?    E=F G=F D=F
   time step     :     0.3025000 fs     power     :   0.3711300E-07
   step length   :     0.0257959 a0     speed     :   0.2062722E-02

........................................................................
.............................. CYCLE   28 ..............................
........................................................................

 iter      E             dE          RMSdq      gap      omega  full diag
   1  -3478.3343139 -0.347833E+04  0.258E-03   10.93       0.0  T
   2  -3478.3343146 -0.774782E-06  0.148E-03   10.93       1.2  T
   3  -3478.3343147 -0.502437E-07  0.243E-04   10.93       7.2  T
   4  -3478.3343147 -0.189621E-07  0.791E-05   10.93      22.2  T
     SCC iter.                  ...        3 min, 40.280 sec
     gradient                   ...        3 min, 33.590 sec
 * total energy  : -3427.3773960 Eh     change    :  -0.1041386E-02 Eh
   gradient norm :     0.0384041 Eh/a0  converged?    E=F G=F D=F
   time step     :     0.3327500 fs     power     :   0.3927108E-07
   step length   :     0.0315765 a0     speed     :   0.2295416E-02

........................................................................
.............................. CYCLE   29 ..............................
........................................................................

 iter      E             dE          RMSdq      gap      omega  full diag
   1  -3478.3524673 -0.347835E+04  0.276E-03   10.93       0.0  T
   2  -3478.3524677 -0.490188E-06  0.160E-03   10.93       1.1  T
   3  -3478.3524678 -0.574096E-07  0.192E-04   10.93       9.1  T
   4  -3478.3524678 -0.216742E-07  0.831E-05   10.93      21.1  T
     SCC iter.                  ...        3 min, 38.919 sec
     gradient                   ...        3 min, 34.492 sec
 * total energy  : -3427.3786371 Eh     change    :  -0.1241141E-02 Eh
   gradient norm :     0.0387801 Eh/a0  converged?    E=F G=F D=F
   time step     :     0.3660250 fs     power     :   0.4309715E-07
   step length   :     0.0383178 a0     speed     :   0.2532240E-02

........................................................................
.............................. CYCLE   30 ..............................
........................................................................

 iter      E             dE          RMSdq      gap      omega  full diag
   1  -3478.3645184 -0.347836E+04  0.294E-03   10.93       0.0  T
   2  -3478.3645187 -0.288723E-06  0.172E-03   10.93       1.0  T
   3  -3478.3645188 -0.591735E-07  0.156E-04   10.93      11.2  T
   4  -3478.3645188 -0.256546E-07  0.833E-05   10.93      21.0  T
     SCC iter.                  ...        3 min, 35.130 sec
     gradient                   ...        3 min, 35.062 sec
 * total energy  : -3427.3801525 Eh     change    :  -0.1515351E-02 Eh
   gradient norm :     0.0379064 Eh/a0  converged?    E=F G=F D=F
   time step     :     0.4026275 fs     power     :   0.4819679E-07
   step length   :     0.0464400 a0     speed     :   0.2790000E-02

........................................................................
.............................. CYCLE   31 ..............................
........................................................................

 iter      E             dE          RMSdq      gap      omega  full diag
   1  -3478.3685155 -0.347837E+04  0.322E-03   10.94       0.0  T
   2  -3478.3685160 -0.554106E-06  0.190E-03   10.94       1.0  T
   3  -3478.3685161 -0.566465E-07  0.174E-04   10.93      10.1  T
   4  -3478.3685161 -0.308978E-07  0.779E-05   10.93      22.5  T
     SCC iter.                  ...        3 min, 39.066 sec
     gradient                   ...        3 min, 33.320 sec
 * total energy  : -3427.3819812 Eh     change    :  -0.1828654E-02 Eh
   gradient norm :     0.0347974 Eh/a0  converged?    E=F G=F D=F
   time step     :     0.4428903 fs     power     :   0.5251537E-07
   step length   :     0.0564385 a0     speed     :   0.3082439E-02

........................................................................
.............................. CYCLE   32 ..............................
........................................................................

 iter      E             dE          RMSdq      gap      omega  full diag
   1  -3478.3648799 -0.347836E+04  0.368E-03   10.94       0.0  T
   2  -3478.3648814 -0.148002E-05  0.220E-03   10.94       1.0  T
   3  -3478.3648814 -0.636460E-07  0.266E-04   10.94       6.6  T
   4  -3478.3648814 -0.349769E-07  0.790E-05   10.94      22.2  T
     SCC iter.                  ...        3 min, 45.120 sec
     gradient                   ...        3 min, 34.816 sec
 * total energy  : -3427.3840690 Eh     change    :  -0.2087839E-02 Eh
   gradient norm :     0.0301624 Eh/a0  converged?    E=F G=F D=F
   time step     :     0.4871793 fs     power     :   0.5327295E-07
   step length   :     0.0686392 a0     speed     :   0.3407990E-02

........................................................................
.............................. CYCLE   33 ..............................
........................................................................

 iter      E             dE          RMSdq      gap      omega  full diag
   1  -3478.3587433 -0.347836E+04  0.423E-03   10.94       0.0  T
   2  -3478.3587457 -0.240309E-05  0.255E-03   10.94       1.0  T
   3  -3478.3587458 -0.760801E-07  0.339E-04   10.94       5.2  T
   4  -3478.3587458 -0.381974E-07  0.825E-05   10.94      21.2  T
     SCC iter.                  ...        3 min, 40.888 sec
     gradient                   ...        3 min, 34.368 sec
 * total energy  : -3427.3862799 Eh     change    :  -0.2210869E-02 Eh
   gradient norm :     0.0272634 Eh/a0  converged?    E=F G=F D=F
   time step     :     0.5358972 fs     power     :   0.4985971E-07
   step length   :     0.0829357 a0     speed     :   0.3743477E-02

........................................................................
.............................. CYCLE   34 ..............................
........................................................................

 iter      E             dE          RMSdq      gap      omega  full diag
   1  -3478.3619344 -0.347836E+04  0.476E-03   10.94       0.0  T
   2  -3478.3619363 -0.188156E-05  0.286E-03   10.94       1.0  T
   3  -3478.3619364 -0.947148E-07  0.255E-04   10.94       6.9  T
   4  -3478.3619364 -0.375612E-07  0.866E-05   10.94      20.2  T
     SCC iter.                  ...        3 min, 43.197 sec
     gradient                   ...        3 min, 34.002 sec
 * total energy  : -3427.3885494 Eh     change    :  -0.2269494E-02 Eh
   gradient norm :     0.0279542 Eh/a0  converged?    E=F G=F D=F
   time step     :     0.5894869 fs     power     :   0.4628562E-07
   step length   :     0.0985330 a0     speed     :   0.4043174E-02

........................................................................
.............................. CYCLE   35 ..............................
........................................................................

 iter      E             dE          RMSdq      gap      omega  full diag
   1  -3478.3882231 -0.347839E+04  0.545E-03   10.94       0.0  T
   2  -3478.3882236 -0.488730E-06  0.322E-03   10.94       1.0  T
   3  -3478.3882238 -0.133358E-06  0.167E-04   10.94      10.5  T
   4  -3478.3882238 -0.258860E-07  0.960E-05   10.94      18.2  T
     SCC iter.                  ...        3 min, 32.588 sec
     gradient                   ...        3 min, 32.937 sec
 * total energy  : -3427.3909938 Eh     change    :  -0.2444453E-02 Eh
   gradient norm :     0.0275339 Eh/a0  converged?    E=F G=F D=F
   time step     :     0.6484356 fs     power     :   0.4600840E-07
   step length   :     0.1149491 a0     speed     :   0.4287992E-02

........................................................................
.............................. CYCLE   36 ..............................
........................................................................

 iter      E             dE          RMSdq      gap      omega  full diag
   1  -3478.4437694 -0.347844E+04  0.656E-03   10.94       0.0  T
   2  -3478.4437707 -0.123483E-05  0.380E-03   10.94       1.0  T
   3  -3478.4437708 -0.180995E-06  0.242E-04   10.94       7.2  T
   4  -3478.4437709 -0.232817E-07  0.109E-04   10.94      16.0  T
     SCC iter.                  ...        3 min, 35.867 sec
     gradient                   ...        3 min, 33.384 sec
 * total energy  : -3427.3936592 Eh     change    :  -0.2665380E-02 Eh
   gradient norm :     0.0233773 Eh/a0  converged?    E=F G=F D=F
   time step     :     0.7132792 fs     power     :   0.4470739E-07
   step length   :     0.1335857 a0     speed     :   0.4530181E-02

........................................................................
.............................. CYCLE   37 ..............................
........................................................................

 iter      E             dE          RMSdq      gap      omega  full diag
   1  -3478.5168617 -0.347852E+04  0.747E-03   10.95       0.0  T
   2  -3478.5168647 -0.309031E-05  0.429E-03   10.95       1.0  T
   3  -3478.5168649 -0.198115E-06  0.398E-04   10.95       4.4  T
   4  -3478.5168650 -0.331720E-07  0.114E-04   10.95      15.3  T
     SCC iter.                  ...        3 min, 38.117 sec
     gradient                   ...        3 min, 33.001 sec
 * total energy  : -3427.3963273 Eh     change    :  -0.2668141E-02 Eh
   gradient norm :     0.0228847 Eh/a0  converged?    E=F G=F D=F
   time step     :     0.7846071 fs     power     :   0.3896767E-07
   step length   :     0.1552313 a0     speed     :   0.4785663E-02

........................................................................
.............................. CYCLE   38 ..............................
........................................................................

 iter      E             dE          RMSdq      gap      omega  full diag
   1  -3478.5719824 -0.347857E+04  0.714E-03   10.95       0.0  T
   2  -3478.5719834 -0.919119E-06  0.415E-03   10.95       1.0  T
   3  -3478.5719835 -0.172511E-06  0.204E-04   10.95       8.6  T
   4  -3478.5719836 -0.186265E-07  0.942E-05   10.95      18.6  T
     SCC iter.                  ...        3 min, 41.857 sec
     gradient                   ...        3 min, 34.194 sec
 * total energy  : -3427.3990610 Eh     change    :  -0.2733679E-02 Eh
   gradient norm :     0.0249861 Eh/a0  converged?    E=F G=F D=F
   time step     :     0.8630678 fs     power     :   0.3757463E-07
   step length   :     0.1773904 a0     speed     :   0.4971646E-02

........................................................................
.............................. CYCLE   39 ..............................
........................................................................

 iter      E             dE          RMSdq      gap      omega  full diag
   1  -3478.5845387 -0.347858E+04  0.662E-03   10.95       0.0  T
   2  -3478.5845410 -0.230836E-05  0.397E-03   10.95       1.0  T
   3  -3478.5845412 -0.209542E-06  0.246E-04   10.95       7.1  T
   4  -3478.5845412 -0.292930E-07  0.120E-04   10.95      14.7  T
     SCC iter.                  ...        3 min, 34.956 sec
     gradient                   ...        3 min, 33.257 sec
 * total energy  : -3427.4021351 Eh     change    :  -0.3074132E-02 Eh
   gradient norm :     0.0216423 Eh/a0  converged?    E=F G=F D=F
   time step     :     0.9493746 fs     power     :   0.3829805E-07
   step length   :     0.2016295 a0     speed     :   0.5137261E-02

........................................................................
.............................. CYCLE   40 ..............................
........................................................................

 iter      E             dE          RMSdq      gap      omega  full diag
   1  -3478.5737965 -0.347857E+04  0.671E-03   10.96       0.0  T
   2  -3478.5738019 -0.540503E-05  0.404E-03   10.96       1.0  T
   3  -3478.5738022 -0.310265E-06  0.460E-04   10.96       3.8  T
   4  -3478.5738023 -0.613377E-07  0.168E-04   10.96      10.5  T
     SCC iter.                  ...        3 min, 36.717 sec
     gradient                   ...        3 min, 32.971 sec
 * total energy  : -3427.4053644 Eh     change    :  -0.3229271E-02 Eh
   gradient norm :     0.0238382 Eh/a0  converged?    E=F G=F D=F
   time step     :     1.0443120 fs     power     :   0.3569785E-07
   step length   :     0.2307788 a0     speed     :   0.5345406E-02

........................................................................
.............................. CYCLE   41 ..............................
........................................................................

 iter      E             dE          RMSdq      gap      omega  full diag
   1  -3478.5972512 -0.347860E+04  0.761E-03   10.96       0.0  T
   2  -3478.5972521 -0.938342E-06  0.446E-03   10.97       1.0  T
   3  -3478.5972524 -0.308321E-06  0.252E-04   10.97       6.9  T
   4  -3478.5972524 -0.353884E-07  0.152E-04   10.97      11.6  T
     SCC iter.                  ...        3 min, 42.107 sec
     gradient                   ...        3 min, 34.014 sec
 * total energy  : -3427.4090865 Eh     change    :  -0.3722048E-02 Eh
   gradient norm :     0.0216873 Eh/a0  converged?    E=F G=F D=F
   time step     :     1.1487432 fs     power     :   0.3923361E-07
   step length   :     0.2619785 a0     speed     :   0.5516426E-02

........................................................................
.............................. CYCLE   42 ..............................
........................................................................

 iter      E             dE          RMSdq      gap      omega  full diag
   1  -3478.6504187 -0.347865E+04  0.916E-03   10.97       0.0  T
   2  -3478.6504226 -0.383460E-05  0.531E-03   10.97       1.0  T
   3  -3478.6504229 -0.293171E-06  0.398E-04   10.97       4.4  T
   4  -3478.6504229 -0.429764E-07  0.132E-04   10.97      13.3  T
     SCC iter.                  ...        3 min, 43.541 sec
     gradient                   ...        3 min, 38.437 sec
 * total energy  : -3427.4131181 Eh     change    :  -0.4031664E-02 Eh
   gradient norm :     0.0220993 Eh/a0  converged?    E=F G=F D=F
   time step     :     1.2500000 fs     power     :   0.3680894E-07
   step length   :     0.2977107 a0     speed     :   0.5761022E-02
 * RMSD in coord.:     0.0341325 a0     energy gain  -0.4099156E-01 Eh

........................................................................
.............................. CYCLE   43 ..............................
........................................................................

 iter      E             dE          RMSdq      gap      omega  full diag
   1  -3478.6537349 -0.347865E+04  0.149E-03   10.98       0.0  T
   2  -3478.6537349 -0.441678E-07  0.874E-04   10.98       2.0  T
   3  -3478.6537350 -0.128216E-07  0.551E-05   10.98      31.8  T
     SCC iter.                  ...        2 min, 49.251 sec
     gradient                   ...        3 min, 34.177 sec
 * total energy  : -3427.4138890 Eh     change    :  -0.7709007E-03 Eh
   gradient norm :     0.0219372 Eh/a0  converged?    E=F G=F D=F
   time step     :     0.2500000 fs     power     :   0.4019934E-07
   step length   :     0.0577381 a0     speed     :   0.5586470E-02

........................................................................
.............................. CYCLE   44 ..............................
........................................................................

 iter      E             dE          RMSdq      gap      omega  full diag
   1  -3478.6505480 -0.347865E+04  0.142E-03   10.98       0.0  T
   2  -3478.6505482 -0.198133E-06  0.840E-04   10.98       2.1  T
   3  -3478.6505482 -0.138116E-07  0.920E-05   10.98      19.0  T
     SCC iter.                  ...        2 min, 42.447 sec
     gradient                   ...        3 min, 35.076 sec
 * total energy  : -3427.4147076 Eh     change    :  -0.8185441E-03 Eh
   gradient norm :     0.0202121 Eh/a0  converged?    E=F G=F D=F
   time step     :     0.2500000 fs     power     :   0.4249787E-07
   step length   :     0.0564696 a0     speed     :   0.5463732E-02

........................................................................
.............................. CYCLE   45 ..............................
........................................................................

 iter      E             dE          RMSdq      gap      omega  full diag
   1  -3478.6427896 -0.347864E+04  0.155E-03   10.98       0.0  T
   2  -3478.6427901 -0.453664E-06  0.913E-04   10.98       1.9  T
   3  -3478.6427901 -0.169039E-07  0.166E-04   10.98      10.5  T
     SCC iter.                  ...        2 min, 41.781 sec
     gradient                   ...        3 min, 33.140 sec
 * total energy  : -3427.4155379 Eh     change    :  -0.8302991E-03 Eh
   gradient norm :     0.0180544 Eh/a0  converged?    E=F G=F D=F
   time step     :     0.2500000 fs     power     :   0.4255914E-07
   step length   :     0.0558275 a0     speed     :   0.5401608E-02

........................................................................
.............................. CYCLE   46 ..............................
........................................................................

 iter      E             dE          RMSdq      gap      omega  full diag
   1  -3478.6335640 -0.347863E+04  0.168E-03   10.98       0.0  T
   2  -3478.6335646 -0.565186E-06  0.986E-04   10.98       1.8  T
   3  -3478.6335646 -0.187265E-07  0.190E-04   10.98       9.2  T
     SCC iter.                  ...        2 min, 45.809 sec
     gradient                   ...        3 min, 35.545 sec
 * total energy  : -3427.4163454 Eh     change    :  -0.8075725E-03 Eh
   gradient norm :     0.0169848 Eh/a0  converged?    E=F G=F D=F
   time step     :     0.2500000 fs     power     :   0.4103874E-07
   step length   :     0.0556731 a0     speed     :   0.5386672E-02

........................................................................
.............................. CYCLE   47 ..............................
........................................................................

 iter      E             dE          RMSdq      gap      omega  full diag
   1  -3478.6266177 -0.347863E+04  0.170E-03   10.98       0.0  T
   2  -3478.6266181 -0.406867E-06  0.999E-04   10.98       1.8  T
   3  -3478.6266181 -0.171717E-07  0.147E-04   10.98      11.9  T
     SCC iter.                  ...        2 min, 46.039 sec
     gradient                   ...        3 min, 33.833 sec
 * total energy  : -3427.4171234 Eh     change    :  -0.7779927E-03 Eh
   gradient norm :     0.0172434 Eh/a0  converged?    E=F G=F D=F
   time step     :     0.2500000 fs     power     :   0.3972531E-07
   step length   :     0.0556003 a0     speed     :   0.5379625E-02

........................................................................
.............................. CYCLE   48 ..............................
........................................................................

 iter      E             dE          RMSdq      gap      omega  full diag
   1  -3478.6245866 -0.347862E+04  0.184E-03   10.98       0.0  T
   2  -3478.6245868 -0.185425E-06  0.108E-03   10.98       1.6  T
   3  -3478.6245868 -0.166629E-07  0.820E-05   10.98      21.4  T
   4  -3478.6245869 -0.472573E-08  0.322E-05   10.98      54.4  T
     SCC iter.                  ...        3 min, 44.904 sec
     gradient                   ...        3 min, 32.674 sec
 * total energy  : -3427.4179654 Eh     change    :  -0.8420011E-03 Eh
   gradient norm :     0.0175353 Eh/a0  converged?    E=F G=F D=F
   time step     :     0.2750000 fs     power     :   0.3940255E-07
   step length   :     0.0609460 a0     speed     :   0.5360773E-02

........................................................................
.............................. CYCLE   49 ..............................
........................................................................

 iter      E             dE          RMSdq      gap      omega  full diag
   1  -3478.6298375 -0.347863E+04  0.204E-03   10.98       0.0  T
   2  -3478.6298375 -0.707423E-07  0.119E-03   10.98       1.5  T
   3  -3478.6298375 -0.171849E-07  0.625E-05   10.98      28.0  T
   4  -3478.6298375 -0.497130E-08  0.295E-05   10.98      59.4  T
     SCC iter.                  ...        3 min, 48.705 sec
     gradient                   ...        3 min, 34.399 sec
 * total energy  : -3427.4188905 Eh     change    :  -0.9250679E-03 Eh
   gradient norm :     0.0165862 Eh/a0  converged?    E=F G=F D=F
   time step     :     0.3025000 fs     power     :   0.3939239E-07
   step length   :     0.0668310 a0     speed     :   0.5344019E-02

........................................................................
.............................. CYCLE   50 ..............................
........................................................................

 iter      E             dE          RMSdq      gap      omega  full diag
   1  -3478.6428046 -0.347864E+04  0.234E-03   10.99       0.0  T
   2  -3478.6428048 -0.244701E-06  0.136E-03   10.99       1.3  T
   3  -3478.6428048 -0.233576E-07  0.990E-05   10.99      17.7  T
   4  -3478.6428048 -0.511045E-08  0.364E-05   10.99      48.1  T
     SCC iter.                  ...        3 min, 46.400 sec
     gradient                   ...        3 min, 33.776 sec
 * total energy  : -3427.4198881 Eh     change    :  -0.9976440E-03 Eh
   gradient norm :     0.0145475 Eh/a0  converged?    E=F G=F D=F
   time step     :     0.3327500 fs     power     :   0.3812794E-07
   step length   :     0.0737270 a0     speed     :   0.5359495E-02

........................................................................
.............................. CYCLE   51 ..............................
........................................................................

 iter      E             dE          RMSdq      gap      omega  full diag
   1  -3478.6605119 -0.347866E+04  0.260E-03   10.99       0.0  T
   2  -3478.6605125 -0.514125E-06  0.151E-03   10.99       1.2  T
   3  -3478.6605125 -0.305449E-07  0.155E-04   10.99      11.3  T
   4  -3478.6605125 -0.654245E-08  0.450E-05   10.99      39.0  T
     SCC iter.                  ...        3 min, 39.738 sec
     gradient                   ...        3 min, 35.431 sec
 * total energy  : -3427.4209200 Eh     change    :  -0.1031888E-02 Eh
   gradient norm :     0.0136006 Eh/a0  converged?    E=F G=F D=F
   time step     :     0.3660250 fs     power     :   0.3526210E-07
   step length   :     0.0819922 a0     speed     :   0.5418475E-02

........................................................................
.............................. CYCLE   52 ..............................
........................................................................

 iter      E             dE          RMSdq      gap      omega  full diag
   1  -3478.6752456 -0.347868E+04  0.260E-03   10.99       0.0  T
   2  -3478.6752460 -0.350819E-06  0.152E-03   10.99       1.2  T
   3  -3478.6752460 -0.329305E-07  0.119E-04   10.99      14.7  T
   4  -3478.6752460 -0.617592E-08  0.444E-05   10.99      39.5  T
     SCC iter.                  ...        3 min, 37.674 sec
     gradient                   ...        3 min, 35.329 sec
 * total energy  : -3427.4219771 Eh     change    :  -0.1057087E-02 Eh
   gradient norm :     0.0144839 Eh/a0  converged?    E=F G=F D=F
   time step     :     0.4026275 fs     power     :   0.3298511E-07
   step length   :     0.0910390 a0     speed     :   0.5469392E-02

........................................................................
.............................. CYCLE   53 ..............................
........................................................................

 iter      E             dE          RMSdq      gap      omega  full diag
   1  -3478.6795081 -0.347868E+04  0.249E-03   10.99       0.0  T
   2  -3478.6795082 -0.113022E-06  0.146E-03   10.99       1.2  T
   3  -3478.6795082 -0.333121E-07  0.787E-05   10.99      22.3  T
   4  -3478.6795082 -0.554655E-08  0.425E-05   10.99      41.2  T
     SCC iter.                  ...        3 min, 49.304 sec
     gradient                   ...        3 min, 34.160 sec
 * total energy  : -3427.4231021 Eh     change    :  -0.1124929E-02 Eh
   gradient norm :     0.0142606 Eh/a0  converged?    E=F G=F D=F
   time step     :     0.4428903 fs     power     :   0.3228691E-07
   step length   :     0.1001844 a0     speed     :   0.5471662E-02

........................................................................
.............................. CYCLE   54 ..............................
........................................................................

 iter      E             dE          RMSdq      gap      omega  full diag
   1  -3478.6712407 -0.347867E+04  0.258E-03   11.00       0.0  T
   2  -3478.6712412 -0.560028E-06  0.152E-03   11.00       1.2  T
   3  -3478.6712413 -0.437012E-07  0.146E-04   11.00      12.0  T
   4  -3478.6712413 -0.767795E-08  0.541E-05   11.00      32.4  T
     SCC iter.                  ...        3 min, 36.274 sec
     gradient                   ...        3 min, 34.733 sec
 * total energy  : -3427.4243038 Eh     change    :  -0.1201721E-02 Eh
   gradient norm :     0.0126092 Eh/a0  converged?    E=F G=F D=F
   time step     :     0.4871793 fs     power     :   0.3097019E-07
   step length   :     0.1104060 a0     speed     :   0.5481745E-02

........................................................................
.............................. CYCLE   55 ..............................
........................................................................

 iter      E             dE          RMSdq      gap      omega  full diag
   1  -3478.6578085 -0.347866E+04  0.266E-03   11.00       0.0  T
   2  -3478.6578095 -0.965410E-06  0.157E-03   11.00       1.1  T
   3  -3478.6578096 -0.577852E-07  0.222E-04   11.00       7.9  T
   4  -3478.6578096 -0.111045E-07  0.693E-05   11.00      25.3  T
     SCC iter.                  ...        3 min, 40.493 sec
     gradient                   ...        3 min, 34.055 sec
 * total energy  : -3427.4255447 Eh     change    :  -0.1240943E-02 Eh
   gradient norm :     0.0131309 Eh/a0  converged?    E=F G=F D=F
   time step     :     0.5358972 fs     power     :   0.2878362E-07
   step length   :     0.1224402 a0     speed     :   0.5526595E-02

........................................................................
.............................. CYCLE   56 ..............................
........................................................................

 iter      E             dE          RMSdq      gap      omega  full diag
   1  -3478.6548415 -0.347865E+04  0.259E-03   11.00       0.0  T
   2  -3478.6548418 -0.328294E-06  0.152E-03   11.00       1.1  T
   3  -3478.6548419 -0.559999E-07  0.128E-04   11.00      13.7  T
   4  -3478.6548419 -0.971932E-08  0.678E-05   11.00      25.8  T
     SCC iter.                  ...        3 min, 38.970 sec
     gradient                   ...        3 min, 34.790 sec
 * total energy  : -3427.4268667 Eh     change    :  -0.1321947E-02 Eh
   gradient norm :     0.0136396 Eh/a0  converged?    E=F G=F D=F
   time step     :     0.5894869 fs     power     :   0.2844456E-07
   step length   :     0.1348300 a0     speed     :   0.5532576E-02

........................................................................
.............................. CYCLE   57 ..............................
........................................................................

 iter      E             dE          RMSdq      gap      omega  full diag
   1  -3478.6702084 -0.347867E+04  0.302E-03   11.01       0.0  T
   2  -3478.6702089 -0.421401E-06  0.175E-03   11.01       1.0  T
   3  -3478.6702089 -0.460504E-07  0.160E-04   11.01      11.0  T
   4  -3478.6702089 -0.127552E-07  0.612E-05   11.01      28.6  T
     SCC iter.                  ...        3 min, 39.242 sec
     gradient                   ...        3 min, 33.013 sec
 * total energy  : -3427.4283115 Eh     change    :  -0.1444793E-02 Eh
   gradient norm :     0.0120084 Eh/a0  converged?    E=F G=F D=F
   time step     :     0.6484356 fs     power     :   0.2800244E-07
   step length   :     0.1484069 a0     speed     :   0.5536079E-02

........................................................................
.............................. CYCLE   58 ..............................
........................................................................

 iter      E             dE          RMSdq      gap      omega  full diag
   1  -3478.6948194 -0.347869E+04  0.340E-03   11.01       0.0  T
   2  -3478.6948200 -0.674519E-06  0.197E-03   11.01       1.0  T
   3  -3478.6948201 -0.469036E-07  0.196E-04   11.01       9.0  T
   4  -3478.6948201 -0.126647E-07  0.613E-05   11.01      28.6  T
     SCC iter.                  ...        3 min, 40.400 sec
     gradient                   ...        3 min, 34.579 sec
 * total energy  : -3427.4298341 Eh     change    :  -0.1522636E-02 Eh
   gradient norm :     0.0128401 Eh/a0  converged?    E=F G=F D=F
   time step     :     0.7132792 fs     power     :   0.2660668E-07
   step length   :     0.1647421 a0     speed     :   0.5586763E-02

........................................................................
.............................. CYCLE   59 ..............................
........................................................................

 iter      E             dE          RMSdq      gap      omega  full diag
   1  -3478.7073761 -0.347871E+04  0.325E-03   11.02       0.0  T
   2  -3478.7073764 -0.291679E-06  0.193E-03   11.02       1.0  T
   3  -3478.7073764 -0.589762E-07  0.125E-04   11.02      14.0  T
   4  -3478.7073765 -0.103259E-07  0.713E-05   11.02      24.6  T
     SCC iter.                  ...        3 min, 44.237 sec
     gradient                   ...        3 min, 34.874 sec
 * total energy  : -3427.4314944 Eh     change    :  -0.1660295E-02 Eh
   gradient norm :     0.0119268 Eh/a0  converged?    E=F G=F D=F
   time step     :     0.7846071 fs     power     :   0.2679957E-07
   step length   :     0.1818081 a0     speed     :   0.5605007E-02

........................................................................
.............................. CYCLE   60 ..............................
........................................................................

 iter      E             dE          RMSdq      gap      omega  full diag
   1  -3478.7081652 -0.347871E+04  0.350E-03   11.03       0.0  T
   2  -3478.7081668 -0.153766E-05  0.213E-03   11.03       1.0  T
   3  -3478.7081669 -0.727582E-07  0.253E-04   11.03       6.9  T
   4  -3478.7081669 -0.185519E-07  0.834E-05   11.03      21.0  T
     SCC iter.                  ...        3 min, 40.866 sec
     gradient                   ...        3 min, 35.190 sec
 * total energy  : -3427.4332626 Eh     change    :  -0.1768174E-02 Eh
   gradient norm :     0.0114416 Eh/a0  converged?    E=F G=F D=F
   time step     :     0.8630678 fs     power     :   0.2517411E-07
   step length   :     0.2020879 a0     speed     :   0.5663835E-02

........................................................................
.............................. CYCLE   61 ..............................
........................................................................

 iter      E             dE          RMSdq      gap      omega  full diag
   1  -3478.7307804 -0.347873E+04  0.417E-03   11.03       0.0  T
   2  -3478.7307807 -0.283898E-06  0.247E-03   11.03       1.0  T
   3  -3478.7307807 -0.632836E-07  0.127E-04   11.03      13.8  T
   4  -3478.7307807 -0.106534E-07  0.660E-05   11.03      26.5  T
     SCC iter.                  ...        3 min, 32.044 sec
     gradient                   ...        3 min, 33.305 sec
 * total energy  : -3427.4351276 Eh     change    :  -0.1865049E-02 Eh
   gradient norm :     0.0105454 Eh/a0  converged?    E=F G=F D=F
   time step     :     0.9493746 fs     power     :   0.2450920E-07
   step length   :     0.2243978 a0     speed     :   0.5717366E-02

........................................................................
.............................. CYCLE   62 ..............................
........................................................................

 iter      E             dE          RMSdq      gap      omega  full diag
   1  -3478.7774150 -0.347878E+04  0.565E-03   11.04       0.0  T
   2  -3478.7774164 -0.139092E-05  0.327E-03   11.04       1.0  T
   3  -3478.7774165 -0.907544E-07  0.264E-04   11.04       6.6  T
   4  -3478.7774165 -0.170076E-07  0.776E-05   11.04      22.6  T
     SCC iter.                  ...        3 min, 40.372 sec
     gradient                   ...        3 min, 33.247 sec
 * total energy  : -3427.4370319 Eh     change    :  -0.1904267E-02 Eh
   gradient norm :     0.0106998 Eh/a0  converged?    E=F G=F D=F
   time step     :     1.0443120 fs     power     :   0.2169392E-07
   step length   :     0.2502118 a0     speed     :   0.5795522E-02

........................................................................
.............................. CYCLE   63 ..............................
........................................................................

 iter      E             dE          RMSdq      gap      omega  full diag
   1  -3478.7866151 -0.347879E+04  0.511E-03   11.05       0.0  T
   2  -3478.7866164 -0.132761E-05  0.304E-03   11.05       1.0  T
   3  -3478.7866165 -0.710475E-07  0.206E-04   11.05       8.5  T
   4  -3478.7866165 -0.321525E-07  0.743E-05   11.05      23.6  T
     SCC iter.                  ...        3 min, 34.564 sec
     gradient                   ...        3 min, 34.832 sec
 * total energy  : -3427.4389533 Eh     change    :  -0.1921466E-02 Eh
   gradient norm :     0.0087166 Eh/a0  converged?    E=F G=F D=F
   time step     :     1.1487432 fs     power     :   0.1999849E-07
   step length   :     0.2765647 a0     speed     :   0.5823564E-02

........................................................................
.............................. CYCLE   64 ..............................
........................................................................

 iter      E             dE          RMSdq      gap      omega  full diag
   1  -3478.7896534 -0.347879E+04  0.533E-03   11.07       0.0  T
   2  -3478.7896546 -0.121949E-05  0.317E-03   11.07       1.0  T
   3  -3478.7896547 -0.772920E-07  0.189E-04   11.07       9.2  T
   4  -3478.7896547 -0.275049E-07  0.770E-05   11.07      22.7  T
     SCC iter.                  ...        3 min, 34.121 sec
     gradient                   ...        3 min, 33.078 sec
 * total energy  : -3427.4408117 Eh     change    :  -0.1858320E-02 Eh
   gradient norm :     0.0100867 Eh/a0  converged?    E=F G=F D=F
   time step     :     1.2500000 fs     power     :   0.1760423E-07
   step length   :     0.3040674 a0     speed     :   0.5884032E-02

........................................................................
.............................. CYCLE   65 ..............................
........................................................................

 iter      E             dE          RMSdq      gap      omega  full diag
   1  -3478.8313029 -0.347883E+04  0.611E-03   11.08       0.0  T
   2  -3478.8313049 -0.198753E-05  0.354E-03   11.08       1.0  T
   3  -3478.8313050 -0.774298E-07  0.315E-04   11.08       5.6  T
   4  -3478.8313050 -0.312107E-07  0.781E-05   11.08      22.4  T
     SCC iter.                  ...        3 min, 32.214 sec
     gradient                   ...        3 min, 34.648 sec
 * total energy  : -3427.4425019 Eh     change    :  -0.1690207E-02 Eh
   gradient norm :     0.0105970 Eh/a0  converged?    E=F G=F D=F
   time step     :     1.2500000 fs     power     :   0.1543942E-07
   step length   :     0.3022025 a0     speed     :   0.5847943E-02

........................................................................
.............................. CYCLE   66 ..............................
........................................................................

 iter      E             dE          RMSdq      gap      omega  full diag
   1  -3478.8265015 -0.347883E+04  0.457E-03   11.09       0.0  T
   2  -3478.8265034 -0.188616E-05  0.274E-03   11.09       1.0  T
   3  -3478.8265035 -0.890418E-07  0.267E-04   11.09       6.6  T
   4  -3478.8265035 -0.265363E-07  0.926E-05   11.09      18.9  T
     SCC iter.                  ...        3 min, 41.334 sec
     gradient                   ...        3 min, 34.842 sec
 * total energy  : -3427.4440873 Eh     change    :  -0.1585427E-02 Eh
[...]
  3011   6 C     3012   6 C                                       1.5271516
  3012   6 C     3013   6 C                                       1.5267252
  3013   6 C     3014   6 C                                       1.5266124
  3014   6 C     3015   6 C                                       1.5289639
  3015   6 C     3016   6 C                                       1.5238819
  3015   6 C     3017   1 H                                       1.0934781
  3015   6 C     3018   1 H                                       1.0931516
  3014   6 C     3019   1 H                                       1.0936003
  3014   6 C     3020   1 H                                       1.0921250
  3013   6 C     3021   1 H                                       1.0916034
  3013   6 C     3022   1 H                                       1.0938498
  3012   6 C     3023   1 H                                       1.0932781
  3012   6 C     3024   1 H                                       1.0916644
  3011   6 C     3025   1 H                                       1.0912256
  3011   6 C     3026   1 H                                       1.0937515
  3010   6 C     3027   1 H                                       1.0918269
  3010   6 C     3028   1 H                                       1.0936070
  3009   6 C     3029   1 H                                       1.0935331
  3009   6 C     3030   1 H                                       1.0922704
  3008   6 C     3031   1 H                                       1.0935786
  3008   6 C     3032   1 H                                       1.0912839
  3007   6 C     3033   1 H                                       1.0916255
  3007   6 C     3034   1 H                                       1.0931517
  3006   6 C     3035   1 H                                       1.0925632
  3006   6 C     3036   1 H                                       1.0917548
  3005   6 C     3037   1 H                                       1.0935153
  3005   6 C     3038   1 H                                       1.0934400
  3004   6 C     3039   1 H                                       1.0911598
  3004   6 C     3040   1 H                                       1.0927549
  3003   6 C     3041   1 H                                       1.0936582
  3003   6 C     3042   1 H                                       1.0932604
  3002   6 C     3043   1 H                                       1.0911632
  3002   6 C     3044   1 H                                       1.0935944
  3001   6 C     3045   1 H                                       1.0932558
  3001   6 C     3046   1 H                                       1.0916884
  3000   6 C     3047   1 H                                       1.0917128
  3000   6 C     3048   1 H                                       1.0935874
  2999   6 C     3049   1 H                                       1.0933724
  2999   6 C     3050   1 H                                       1.0899405
  2998   6 C     3051   1 H                                       1.0936557
  2998   6 C     3052   1 H                                       1.0921599
  2997   6 C     3053   1 H                                       1.0921984
  2997   6 C     3054   1 H                                       1.0935884
  2996   6 C     3055   1 H                                       1.0916017
  2996   6 C     3056   1 H                                       1.0938179
  2995   6 C     3057   1 H                                       1.0930530
  2995   6 C     3058   1 H                                       1.0896966
  2994   6 C     3059   1 H                                       1.0930847
  2994   6 C     3060   1 H                                       1.0934964
  2993   6 C     3061   1 H                                       1.0934986
  2993   6 C     3062   1 H                                       1.0930354
  2992   6 C     3063   1 H                                       1.0896411
  2992   6 C     3064   1 H                                       1.0932177
  2991   6 C     3065   1 H                                       1.0937528
  2991   6 C     3066   1 H                                       1.0930083
  2990   6 C     3067   1 H                                       1.0935236
  2990   6 C     3068   1 H                                       1.0932311
  2989   6 C     3069   1 H                                       1.0916871
  2989   6 C     3070   1 H                                       1.0917072
  2988   6 C     3071   1 H                                       1.0938286
  2988   6 C     3072   1 H                                       1.0923251
  2987   6 C     3073   1 H                                       1.0917958
  2987   6 C     3074   1 H                                       1.0917111
  2986   6 C     3075   1 H                                       1.0904218
  2986   6 C     3076   1 H                                       1.0925811
  2985   6 C     3077   1 H                                       1.0928164
  2985   6 C     3078   1 H                                       1.0921055
  2984   6 C     3079   1 H                                       1.0930681
  2984   6 C     3080   1 H                                       1.0942242
  2983   6 C     3081   1 H                                       1.0913695
  2983   6 C     3082   1 H                                       1.0921674
  2982   6 C     3083   1 H                                       1.0938087
  2982   6 C     3084   1 H                                       1.0938376
  2981   6 C     3085   1 H                                       1.0911101
  2981   6 C     3086   1 H                                       1.0928063
  2980   6 C     3087   1 H                                       1.0937461
  2980   6 C     3088   1 H                                       1.0919189
  2979   6 C     3089   1 H                                       1.0931295
  2979   6 C     3090   1 H                                       1.0938947
  2978   6 C     3091   1 H                                       1.0931920
  2978   6 C     3092   1 H                                       1.0908085
  2977   6 C     3093   1 H                                       1.0928755
  2977   6 C     3094   1 H                                       1.0933797
  2976   6 C     3095   1 H                                       1.0927469
  2976   6 C     3096   1 H                                       1.0917205
  2975   6 C     3097   1 H                                       1.0931098
  2975   6 C     3098   1 H                                       1.0931962
  2974   6 C     3099   1 H                                       1.0910201
  2974   6 C     3100   1 H                                       1.0911407
  2973   6 C     3101   1 H                                       1.0935078
  2973   6 C     3102   1 H                                       1.0932003
  2972   6 C     3103   1 H                                       1.0921985
  2972   6 C     3104   1 H                                       1.0936953
  2971   6 C     3105   1 H                                       1.0917275
  2971   6 C     3106   1 H                                       1.0915715
  2970   6 C     3107   1 H                                       1.0934728
  2970   6 C     3108   1 H                                       1.0932501
  2969   6 C     3109   1 H                                       1.0929743
  2969   6 C     3110   1 H                                       1.0939102
  2968   6 C     3111   1 H                                       1.0931985
  2968   6 C     3112   1 H                                       1.0914185
  2967   6 C     3113   1 H                                       1.0916779
  2967   6 C     3114   1 H                                       1.0930833
  2966   6 C     3115   1 H                                       1.0931268
  2966   6 C     3116   1 H                                       1.0914974
  2965   6 C     3117   1 H                                       1.0922751
  2965   6 C     3118   1 H                                       1.0937209
  2964   6 C     3119   1 H                                       1.0940149
  2964   6 C     3120   1 H                                       1.0930844
  2963   6 C     3121   1 H                                       1.0915118
  2963   6 C     3122   1 H                                       1.0915008
  2962   6 C     3123   1 H                                       1.0934659
  2962   6 C     3124   1 H                                       1.0935383
  2961   6 C     3125   1 H                                       1.0936833
  2961   6 C     3126   1 H                                       1.0930381
  2960   6 C     3127   1 H                                       1.0911723
  2960   6 C     3128   1 H                                       1.0927500
  2959   6 C     3129   1 H                                       1.0919544
  2959   6 C     3130   1 H                                       1.0931462
  2958   6 C     3131   1 H                                       1.0925505
  2958   6 C     3132   1 H                                       1.0926607
  2957   6 C     3133   1 H                                       1.0925904
  2957   6 C     3134   1 H                                       1.0906723
  2956   6 C     3135   1 H                                       1.0918864
  2956   6 C     3136   1 H                                       1.0923425
  2955   6 C     3137   1 H                                       1.0934967
  2955   6 C     3138   1 H                                       1.0929607
  2954   6 C     3139   1 H                                       1.0914521
  2954   6 C     3140   1 H                                       1.0904949
  2953   6 C     3141   1 H                                       1.0932143
  2953   6 C     3142   1 H                                       1.0936201
  2952   6 C     3143   1 H                                       1.0933277
  2952   6 C     3144   1 H                                       1.0922490
  2951   6 C     3145   1 H                                       1.0913956
  2951   6 C     3146   1 H                                       1.0929442
  2950   6 C     3147   1 H                                       1.0928649
  2950   6 C     3148   1 H                                       1.0923850
  2949   6 C     3149   1 H                                       1.0916856
  2949   6 C     3150   1 H                                       1.0931332
  2948   6 C     3151   1 H                                       1.0932852
  2948   6 C     3152   1 H                                       1.0923471
  2947   6 C     3153   1 H                                       1.0931737
  2947   6 C     3154   1 H                                       1.0932638
  2946   6 C     3155   1 H                                       1.0919133
  2946   6 C     3156   1 H                                       1.0915701
  2945   6 C     3157   1 H                                       1.0930840
  2945   6 C     3158   1 H                                       1.0931579
  2944   6 C     3159   1 H                                       1.0928799
  2944   6 C     3160   1 H                                       1.0930114
  2943   6 C     3161   1 H                                       1.0932882
  2943   6 C     3162   1 H                                       1.0923025
  2942   6 C     3163   1 H                                       1.0921081
  2942   6 C     3164   1 H                                       1.0911421
  2941   6 C     3165   1 H                                       1.0937859
  2941   6 C     3166   1 H                                       1.0936721
  2940   6 C     3167   1 H                                       1.0936649
  2940   6 C     3168   1 H                                       1.0910018
  2939   6 C     3169   1 H                                       1.0913394
  2939   6 C     3170   1 H                                       1.0938196
  2938   6 C     3171   1 H                                       1.0929357
  2938   6 C     3172   1 H                                       1.0940588
  2937   6 C     3173   1 H                                       1.0912885
  2937   6 C     3174   1 H                                       1.0916639
  2936   6 C     3175   1 H                                       1.0928426
  2936   6 C     3176   1 H                                       1.0928938
  2935   6 C     3177   1 H                                       1.0923092
  2935   6 C     3178   1 H                                       1.0914143
  2934   6 C     3179   1 H                                       1.0934965
  2934   6 C     3180   1 H                                       1.0927398
  2933   6 C     3181   1 H                                       1.0929486
  2933   6 C     3182   1 H                                       1.0916747
  2932   6 C     3183   1 H                                       1.0938949
  2932   6 C     3184   1 H                                       1.0939903
  2931   6 C     3185   1 H                                       1.0910602
  2931   6 C     3186   1 H                                       1.0922748
  2930   6 C     3187   1 H                                       1.0944805
  2930   6 C     3188   1 H                                       1.0915915
  2929   6 C     3189   1 H                                       1.0932314
  2929   6 C     3190   1 H                                       1.0942551
  2928   6 C     3191   1 H                                       1.0915548
  2928   6 C     3192   1 H                                       1.0938754
  2927   6 C     3193   1 H                                       1.0930755
  2927   6 C     3194   1 H                                       1.0923778
  2926   6 C     3195   1 H                                       1.0924195
  2926   6 C     3196   1 H                                       1.0901866
  2925   6 C     3197   1 H                                       1.0931524
  2925   6 C     3198   1 H                                       1.0927358
  2924   6 C     3199   1 H                                       1.0931246
  2924   6 C     3200   1 H                                       1.0937509
  2923   6 C     3201   1 H                                       1.0913531
  2923   6 C     3202   1 H                                       1.0934923
  2922   6 C     3203   1 H                                       1.0926180
  2922   6 C     3204   1 H                                       1.0936134
  2921   6 C     3205   1 H                                       1.0930085
  2921   6 C     3206   1 H                                       1.0934067
  2920   6 C     3207   1 H                                       1.0925258
  2920   6 C     3208   1 H                                       1.0934719
  2919   6 C     3209   1 H                                       1.0928356
  2919   6 C     3210   1 H                                       1.0932072
  2918   6 C     3211   1 H                                       1.0925628
  2918   6 C     3212   1 H                                       1.0934417
  2917   6 C     3213   1 H                                       1.0921102
  2917   6 C     3214   1 H                                       1.0931410
  2916   6 C     3215   1 H                                       1.0922038
  2916   6 C     3216   1 H                                       1.0938838
  2915   6 C     3217   1 H                                       1.0920127
  2915   6 C     3218   1 H                                       1.0932954
  2914   6 C     3219   1 H                                       1.0926928
  2914   6 C     3220   1 H                                       1.0922871
  2913   6 C     3221   1 H                                       1.0923034
  2913   6 C     3222   1 H                                       1.0927491
  2912   6 C     3223   1 H                                       1.0919002
  2912   6 C     3224   1 H                                       1.0910062
  2911   6 C     3225   1 H                                       1.0917040
  2911   6 C     3226   1 H                                       1.0927854
  2910   6 C     3227   1 H                                       1.0935362
  2910   6 C     3228   1 H                                       1.0928915
  2909   6 C     3229   1 H                                       1.0936459
  2909   6 C     3230   1 H                                       1.0912401
  2908   6 C     3231   1 H                                       1.0922944
  2908   6 C     3232   1 H                                       1.0919778
  2907   6 C     3233   1 H                                       1.0936700
  2907   6 C     3234   1 H                                       1.0935159
  2906   6 C     3235   1 H                                       1.0936706
  2906   6 C     3236   1 H                                       1.0924666
  2905   6 C     3237   1 H                                       1.0930033
  2905   6 C     3238   1 H                                       1.0925070
  2904   6 C     3239   1 H                                       1.0925885
  2904   6 C     3240   1 H                                       1.0931761
  2903   6 C     3241   1 H                                       1.0917199
  2903   6 C     3242   1 H                                       1.0937798
  2902   6 C     3243   1 H                                       1.0923059
  2902   6 C     3244   1 H                                       1.0926615
  2901   6 C     3245   1 H                                       1.0924587
  2901   6 C     3246   1 H                                       1.0941062
  2900   6 C     3247   1 H                                       1.0924732
  2900   6 C     3248   1 H                                       1.0922361
  2899   6 C     3249   1 H                                       1.0928888
  2899   6 C     3250   1 H                                       1.0934722
  2898   6 C     3251   1 H                                       1.0930411
  2898   6 C     3252   1 H                                       1.0927053
  2897   6 C     3253   1 H                                       1.0878245
  2897   6 C     3254   1 H                                       1.0881170
  2897   6 C     3255   1 H                                       1.0881775
  3016   6 C     3256   1 H                                       1.0869620
  3016   6 C     3257   1 H                                       1.0878395
  3016   6 C     3258   1 H                                       1.0879587

 * 2 distinct bonds (by element types)

   Z      Z             #   av. dist./Å        max./Å        min./Å
   1 H    6 C        2178     1.0925760     1.0945584     1.0865660
   6 C    6 C        1071     1.5272820     1.5343249     1.5224849


optimized geometry written to: xtbopt.xyz


           -------------------------------------------------
          | TOTAL ENERGY            -3427.517923813499 Eh   |
          | GRADIENT NORM               0.000878772736 Eh/α |
          | HOMO-LUMO GAP              11.388351636579 eV   |
           -------------------------------------------------

------------------------------------------------------------------------
 * finished run on 2024/06/20 at 13:58:38.996     
------------------------------------------------------------------------
 total:
 * wall-time:     3 d,  0 h, 11 min, 51.970 sec
 *  cpu-time:    16 d,  9 h, 17 min, 37.000 sec
 * ratio c/w:     5.447 speedup
 SCF:
 * wall-time:     0 d,  0 h,  6 min, 49.861 sec
 *  cpu-time:     0 d,  0 h, 37 min,  8.536 sec
 * ratio c/w:     5.437 speedup
 ANC optimizer:
 * wall-time:     3 d,  0 h,  4 min, 20.372 sec
 *  cpu-time:    16 d,  8 h, 39 min, 31.512 sec
 * ratio c/w:     5.448 speedup

