3864
 energy: -5104.132364509329 gnorm: 0.000769785526 xtb: 6.6.1 (8d0f1dd)
C           63.01985991792655       33.30725289822325       48.16967534269605
C           62.46291119399405       34.55987109551728       48.39865328264337
C           61.20420911200313       34.62617980523304       48.98277306980636
C           60.52051650171192       33.47374282574857       49.32890941680716
C           61.08451931382080       32.23269818640840       49.09500839230509
C           62.33761636774211       32.15405846592586       48.51302203755566
C           63.20931910778118       35.82301131861075       48.04676325308482
C           64.49869765230324       35.92670543865605       48.86602389942151
C           63.51415622069693       35.89430516293938       46.54421096969140
C           62.23968156089138       36.00633967787358       45.69557676988639
C           61.50985594048920       37.28837737666760       46.00678295595798
C           60.24917635620100       37.26154962288916       46.59015202576912
C           59.56678502921096       38.43610631029639       46.85512860344860
C           60.12998684083763       39.65496412304363       46.52411604543940
C           61.39151895494009       39.69681678231579       45.95568931096152
C           62.07787453205582       38.52252006873001       45.70825101781831
C           62.58382183277621       35.92577939790272       44.20042755218861
C           61.34493690116056       36.08859478830210       43.31143099776525
C           60.38535694167244       34.93467215855096       43.46675458668053
C           60.77165517485858       33.63135963194613       43.17809561192445
C           59.87253487225365       32.58542344699091       43.28203090010245
C           58.56423325226410       32.82635022313702       43.66408415087908
C           58.16517382553955       34.12003998368953       43.94910981932450
C           59.07179879166551       35.16172439015786       43.85769635189238
C           61.71197469789842       36.25141806263323       41.82537593612056
C           62.23558962312196       37.65571429395332       41.48642692208357
C           63.71621754378303       37.81530184173938       41.73429480244754
C           64.18186746403127       38.84847634392669       42.53957698489475
C           65.53699136779106       39.04074543172919       42.74303051757028
C           66.45396002930809       38.20096019150203       42.13545789170617
C           66.00421901022888       37.17313714523677       41.32405517135792
C           64.64858340028967       36.98472735963426       41.12358754880403
C           61.97051925015035       38.05254201939268       40.02199880042846
C           60.49608327599681       38.13907461768329       39.58847225856423
C           60.45764270410556       38.61064127668282       38.15502382498538
C           60.07292775780788       37.74019020089175       37.14324063706604
C           60.06060791287285       38.14870457836351       35.82108100028265
C           60.43271107070920       39.44004072286733       35.48943428013419
C           60.81984721763170       40.31422700739061       36.48981706570688
C           60.83601326255945       39.90236242151012       37.80923034646445
C           59.66979724950356       39.04325249571462       40.50930896955114
C           58.19884599372553       39.16556897979821       40.08004828111119
C           57.58501141813771       37.80600250552378       39.86044633399685
C           57.55518548928087       36.85731288115345       40.87698382184717
C           57.00018598451861       35.60766063955440       40.66868302816098
C           56.46103234412564       35.28567221627169       39.43484375109509
C           56.48648518131051       36.22014639786811       38.41425195148000
C           57.04259328598512       37.46954807169161       38.62665214676090
C           57.42410325905107       39.93862809827853       41.15690351381917
C           55.94923487709943       40.17572626000818       40.79864574849398
C           55.82671649171665       41.22319472424093       39.71768606613518
C           56.25048439645382       42.53099629053342       39.93356762564411
C           56.16504541640224       43.48250747613282       38.93305688000687
C           55.64441729218083       43.14345676205187       37.69537369427090
C           55.19360988281959       41.85346916105009       37.47459728516564
C           55.28801308714100       40.90373103040702       38.47794042085157
C           55.15437529316257       40.59186052073547       42.04686598304670
C           54.93115827839078       39.43439312232476       43.04141785311419
C           53.67485915119070       38.66602624096176       42.72414445081159
C           52.41662170016558       39.21307782584220       42.94997186718162
C           51.27031553462169       38.47448450154325       42.72189801158379
C           51.36280581706423       37.17849302222457       42.24237602616466
C           52.60710950166177       36.63522137346300       41.97738376146184
C           53.75269500792977       37.37289705677577       42.22192069710644
C           54.92418582426362       39.99695108125074       44.47278916939700
C           54.49917784208176       39.00832364953409       45.56943264973789
C           54.32497827176580       39.77557408316570       46.85939005111563
C           53.08194313635250       39.81712648631598       47.47925560507752
C           52.86879100854621       40.59106680753251       48.60559339295442
C           53.90154323101073       41.34481575908091       49.13352449447113
C           55.15080560208141       41.29664759017331       48.54004585431469
C           55.36118538929533       40.51479484337978       47.41781163643952
C           55.48009519380486       37.83579739816036       45.68996266501379
C           55.11916846244686       36.85845801493579       46.81977692908459
C           53.65888775914584       36.48419224405247       46.80130908365224
C           53.05447522677246       36.03471582987557       45.63181360775113
C           51.71406122526282       35.69978972944120       45.61058011301542
C           50.95618826452769       35.79032813628474       46.76558614855794
C           51.54875491464417       36.22294907670113       47.93872185264855
C           52.88898366575696       36.57108917242749       47.95372309776374
C           55.98334940053313       35.58457248165477       46.72013388592895
C           56.29441087813429       34.97070594540821       48.09371375993054
C           56.79372637087088       33.55463410458248       47.94663406520531
C           57.94467249200461       33.28082287062936       47.21564308772713
C           58.42181001279847       31.98893480898883       47.10051046291537
C           57.76372884136936       30.94717294259538       47.73167782204815
C           56.61982127660955       31.20585450688000       48.46565658835824
C           56.13613834025258       32.49892081872645       48.56411539963654
C           57.33812983591456       35.82752121146476       48.84059262017754
C           56.82924931810702       36.46737536920005       50.13925691235053
C           57.74129205033484       37.61576403844815       50.48784085265851
C           59.03109833235926       37.40331652041259       50.96143016429451
C           59.86308617970898       38.46980320993809       51.24775590739470
C           59.42629627883902       39.76841550441437       51.04967644702008
C           58.15172807995690       39.98873409092295       50.56038549198877
C           57.31584566688612       38.92150469180803       50.28497094416355
C           56.72163651278506       35.44815913410083       51.27720370844925
C           56.20503516264598       36.10544050295136       52.56395909112919
C           54.86135820912077       36.74158342376416       52.30295790831677
C           54.71182327314308       38.11779615536989       52.42438439062182
C           53.52048924691903       38.73877950033673       52.09520180058919
C           52.45001642130550       37.98491941180073       51.64835214736770
C           52.57224491776616       36.60846819455972       51.55530550469234
C           53.77033919890739       35.99496599201338       51.87544902622825
C           56.14114438494888       35.12276314005469       53.74333863850470
C           57.50718643404129       34.62258805381425       54.25735228939357
C           57.26927999509813       33.72411643808289       55.44643199911432
C           57.55482780163528       32.36731268112406       55.37380643358400
C           57.31894273872477       31.53331558859893       56.45314931979942
C           56.80463968341743       32.04684685737666       57.63078338177387
C           56.52806966286974       33.40052780408215       57.71863995372888
C           56.75258600073855       34.22748684611829       56.63375666589591
C           58.44285734394043       35.78918187708192       54.60423305061609
C           59.74854826333332       35.37662684331450       55.30376919220373
C           60.52116624599555       34.38502340445217       54.47265690216769
C           60.70733297251059       33.08628741598643       54.92798574378714
C           61.39625692839702       32.15898412783360       54.16632216663421
C           61.92486484959490       32.52140492728686       52.93986867011676
C           61.76353118325773       33.81811088185326       52.48349640978967
C           61.06162467415971       34.73755681079022       53.24119605745403
C           60.56697909857925       36.64559234641753       55.58266137439450
C           61.93577073630387       36.38200291611032       56.22501642655372
C           61.80877313927366       35.61097993616760       57.51236551921713
C           61.06283542827939       36.10484116525911       58.57603054343868
C           60.95690683285217       35.39503763511187       59.75836181053720
C           61.59819855754550       34.17610206109786       59.89517518395951
C           62.33984603944835       33.67144749410924       58.84089730109928
C           62.44275922403659       34.38411264693295       57.65929113593130
C           62.64500939227290       37.72576527053859       56.44782667161786
C           64.10573371944245       37.59411263267535       56.89739245122441
C           64.91064946912019       36.80555608168727       55.89448495225655
C           65.56345875835825       35.64143676088825       56.27890901184593
C           66.32829132585516       34.92499462433688       55.37500122762780
C           66.45332948279332       35.36374242954172       54.06813541714278
C           65.80137246191542       36.51742457098087       53.66886205601946
C           65.03689646709576       37.22938211720109       54.57548965334445
C           64.70779155623609       38.99629009436975       57.08686022590727
C           66.16738685667541       38.95502538915845       57.55582646084354
C           66.25346418378919       38.46003102757215       58.98054012474157
C           65.63501243938612       39.13892754991128       60.02390522260889
C           65.71971541860808       38.67749119929672       61.32417048385833
C           66.42750438755125       37.52220213444493       61.60585737561789
C           67.05214814746968       36.83773603109067       60.57809552541856
C           66.96575170575409       37.30543656492246       59.27848023263049
C           66.87136973940537       40.31976281420402       57.44350997658395
C           66.93303528671575       40.92551059700367       56.02845759637555
H           62.57474867620783       36.67882258672986       48.30470334342802
H           64.15174518461188       36.76041231814599       46.35314029166751
H           64.06705623903163       35.00390684496874       46.23949805375689
H           61.58483198723351       35.16276866857044       45.94463906320327
H           63.30401714437128       36.70524618683390       43.94958225832404
H           63.05922967252958       34.96437127227271       43.99809858994315
H           60.82365965675596       36.99978681407890       43.62815625670448
H           62.44640685318638       35.49616969609669       41.54522468030024
H           60.80907021286652       36.06126471702251       41.24214391790954
H           61.71916560778457       38.37333120341885       42.13112233196636
H           62.47003361959774       37.33451090455501       39.36756607334971
H           60.05776653565586       37.13597319918266       39.61964387233557
H           59.69550795058980       38.62904527842781       41.51852031088133
H           60.11420829550737       40.03966143815843       40.54192987451319
H           58.14973403694219       39.72483503983146       39.13932129202642
H           57.48412910423059       39.37904655565602       42.09209855600127
H           57.91224520892285       40.90046751149429       41.32836976921347
H           55.52385840612590       39.23906207035518       40.42320427783357
H           55.69316185322457       41.39401217339208       42.55541232145687
H           54.18661906421494       40.99071778562558       41.73379244241274
H           55.76829846207153       38.73558012843700       42.95626205654340
H           53.52326790658237       38.59629094632028       45.29322235381918
H           55.49159622979908       37.29840980175879       44.74018759456125
H           56.48896178260807       38.21634774697919       45.86937720210970
H           55.32984694169607       37.36007379558446       47.76901165372377
H           55.45818974081399       34.84639249034188       46.10888397738605
H           56.92417248672650       35.82095040293952       46.21948709680080
H           55.36090041477203       34.94805498123880       48.66577242509631
H           58.21471023641451       35.22114052279544       49.07075182900874
H           57.67073327150018       36.63129020133105       48.18281742519900
H           55.82973030186650       36.87775986634624       49.95611313791669
H           56.04171945721566       34.65145206987503       50.97084337486896
H           57.69704954867328       34.99743082155317       51.46456692834393
H           56.89253431316766       36.91440768592224       52.82698741797865
H           55.61375822265461       35.61460972446771       54.56505175214733
H           55.54954418479354       34.24915881611630       53.46024679465681
H           57.98404233335124       34.01928409077595       53.47822735270195
H           58.70696918633070       36.31033051332783       53.68248186637608
H           57.91579874155430       36.49586227147734       55.24743194737610
H           59.50455705380590       34.90234155681419       56.26042777403420
H           60.73189167389646       37.17606087573703       54.64209042306562
H           59.98098322088948       37.30295341034574       56.22928539295181
H           62.53456527505622       35.78835575081629       55.52529960136948
H           62.61865237743104       38.28421175986043       55.50880728671731
H           62.09427732766865       38.30283029345370       57.19471218065612
H           64.13205794564374       37.06849492152761       57.85858114190909
H           64.64674355449186       39.52839411783636       56.13719362831220
H           64.10544806632035       39.54277951827135       57.81514696305165
H           63.99938347270493       33.22668042727174       47.72097556090462
H           62.78779932262434       31.18931578392565       48.32736049750898
H           60.54839628176382       31.33445107091920       49.36305572130929
H           59.54271998378277       33.53841279976756       49.78470790225333
H           60.76163803919964       35.59507996438330       49.17143035229039
H           59.80258050380189       36.30833603397685       46.83633833330491
H           58.59285623412580       38.40835131995266       47.32400837884826
H           59.58705250303325       40.56687700100545       46.71322310436604
H           61.83997799743676       40.64628578074659       45.69865250749039
H           63.06374613193590       38.56742188036265       45.26987067883831
H           61.78523226799913       33.42828398273934       42.86466069225178
H           60.19266574365128       31.57799720969903       43.05799742839413
H           57.85930109913809       32.01206913674516       43.74326737020846
H           57.14496703783403       34.31391339504101       44.24633922313501
H           58.75686397192008       36.16910189499984       44.09725146034189
H           63.47196662424684       39.50949367519350       43.01612013207444
H           65.87732637891077       39.84971225843275       43.37410630180189
H           67.51262012976093       38.34864681442343       42.28932211827729
H           66.71398971074210       36.51817436411816       40.83989567809802
H           64.31674908416963       36.18371272922242       40.47895067075434
H           62.43650356371234       39.02653270199101       39.85244169120867
H           59.77671474333275       36.73072734302946       37.39420789225314
H           59.76163500121609       37.45378355769328       35.04859945734899
H           60.42006424557489       39.76657530790447       34.45955796535120
H           61.11613691125894       41.32243345433769       36.24342020666512
H           61.14705713953484       40.60194138806518       38.57102066681529
H           57.98012520862147       37.08456307904180       41.84384824714096
H           56.99946665086869       34.88186911470096       41.46979520506265
H           56.02780176181445       34.31040551624272       39.26877024408629
H           56.07645858078649       35.97086387315093       37.44644930624810
H           57.06379154356538       38.19376955122856       37.82422553828244
H           56.65692746451682       42.81671843832535       40.89329623639470
H           56.50503492803034       44.49227771876958       39.11720054978986
H           55.59076867655346       43.88507131816269       36.91151494529637
H           54.76473411867936       41.58102794849899       36.51992818559977
H           54.93073501427824       39.90165034169793       38.29215762449380
H           52.32945766099032       40.22462486526123       43.31766394628944
H           50.30366906069486       38.91414592463896       42.92254335949313
H           50.46913136890254       36.59702963842989       42.06747534682784
H           52.68897739354784       35.63196803553324       41.58475199048048
H           54.72125341844068       36.93473239740231       42.01786669957907
H           55.92754695735372       40.36969173741016       44.69264908752417
H           54.25074211100056       40.85336867347929       44.51897406025233
H           52.26884600334985       39.23301890504956       47.07258563627819
H           51.89040838876497       40.61984332036786       49.06186494252021
H           53.72991599507949       41.97123301544964       49.99682276619817
H           55.96243704858782       41.88234228845251       48.94663325580564
H           56.34382104904774       40.49030105517149       46.96895324178505
H           53.62908792674965       35.95641213663935       44.72068297621710
H           51.26234236195649       35.37130520368965       44.68573619468489
H           49.91167063304888       35.51799952524659       46.75161873950687
H           50.96368972695814       36.29612817861983       48.84430670132030
H           53.33550425404642       36.92419900609610       48.87338225253437
H           58.47939531329325       34.08307042310300       46.72964603090553
H           59.31452547558943       31.80067709764142       46.52194915669575
H           58.14027409848204       29.93789356957041       47.65309358864261
H           56.10554617622454       30.39800112598367       48.96615142418815
H           55.23377871659425       32.69021552673212       49.12928483275122
H           59.38791659540657       36.39419436234251       51.11006761308949
H           60.86049755284111       38.29354934583816       51.62399075137179
H           60.08147044053691       40.59666332555372       51.27580575605833
H           57.79792653816311       40.99411334196893       50.39233677472251
H           56.31855002264062       39.10734185532689       49.90881214010109
H           55.55089192352593       38.71147359055544       52.75966037309466
H           53.42854676509692       39.81223906688299       52.17709446220517
H           51.52622504889680       38.46830901144388       51.36997103889892
H           51.73108524981163       36.01459610153998       51.22722907270141
H           53.86273021251600       34.92309037698493       51.77455640539779
H           57.97043759778325       31.95782182690014       54.46626049703229
H           57.54262399663295       30.47944033974814       56.37065779122841
H           56.62421585811948       31.39780307556937       58.47559195032403
H           56.13807041849221       33.81483403147373       58.63763639735453
H           56.52027644248565       35.27774965178878       56.71277719903235
H           60.30643589813508       32.79997862689419       55.88998480002473
H           61.52262075775432       31.15154783615618       54.53577459795798
H           62.46452153643125       31.80273584206588       52.34054529102388
H           62.18284282770228       34.10948162543323       51.53150010950316
H           60.94300004824823       35.74477391197429       52.86918166630588
H           60.55136331916034       37.05162866397764       58.48099261713274
H           60.37750572728735       35.79544146778850       60.57859163658425
H           61.51844536777998       33.62196362980622       60.81904913749584
H           62.84003231828165       32.71858699345708       58.93872833232862
H           63.01890031243212       33.98441375551474       56.83634396468679
H           65.46997453909063       35.29711291914339       57.29953484724896
H           66.83055605418102       34.02283456657526       55.69357506100904
H           67.05477510222539       34.81071951746404       53.36224474156761
H           65.89799210923444       36.86873487093777       52.65171147718019
H           64.53318702881450       38.12610370263952       54.24350232638022
H           67.45750377262365       36.76572608010441       58.48095246100461
H           67.60999677414507       35.93654930191648       60.78838842274438
H           66.49289493060381       37.15939876160780       62.62094791498314
H           65.22740319271821       39.21986088656824       62.11797322522803
H           65.08054799689751       40.04541634491263       59.83029902764375
H           64.28081152005025       35.84873147983651       49.92948546720636
H           65.19249192642390       35.13245915791035       48.60155400265747
H           64.98438204137680       36.88274468184041       48.68385112645225
H           66.70566138143255       38.24288568925872       56.92332558569772
H           66.37427941992507       41.03949058377631       58.09702473015085
H           67.89112070025018       40.19769495694055       57.81726467163075
C           67.55635331150695       39.95978429628638       55.01343446315115
C           67.67675497697230       42.23842050981080       56.09157800713352
C           66.98835758744933       43.43458965715082       55.93779378750247
C           67.64013449053689       44.65250759905437       56.02260115161931
C           69.00315690546415       44.69065404165594       56.25591206237138
C           69.70334808640527       43.50551313782504       56.40500452558130
C           69.04520630551215       42.29146161920947       56.32828506004638
H           65.92279468437842       43.41168430623978       55.75994124303809
H           67.08046067905114       45.57140918459113       55.91330339048471
H           69.51721402443980       45.63827006910667       56.32664886491857
H           70.76816599046697       43.52726534814222       56.58784187661126
H           69.60645805896696       41.37747501730056       56.45585653869003
C           67.73347540584398       40.60049609041124       53.63060022751869
H           68.51786538177532       39.60646415103671       55.38714968808227
H           66.90588780218029       39.08946697388252       54.90555309512746
C           67.85424459393356       39.56383688704739       52.54714472534396
C           67.05168451418515       39.62503479356714       51.41527399951708
C           67.13103354355395       38.65351946747280       50.43300155095687
C           68.01827701278296       37.60049837246461       50.56625257530339
C           68.83458488725451       37.53643754872132       51.68306355728770
C           68.75378351826062       38.50969645675881       52.66208222936482
H           66.35352071625205       40.44049848717260       51.29328730738064
H           66.49204039294445       38.72261325340374       49.56429185518481
H           68.07553568593416       36.83611818792237       49.80510216746049
H           69.53681649139169       36.72271506780290       51.79290724903773
H           69.39815298001109       38.44713078265707       53.52621905517645
H           65.91185186020071       41.15025018956803       55.70151030434165
H           66.87377172485377       41.24057843572304       53.41761763492116
H           68.61706166581540       41.24513561692341       53.62936294573422
C           51.23840975257402       55.32148387218503       69.64230670241389
C           51.36765199092824       54.21480723920452       68.81251677582918
C           52.24611272155386       54.29430312605334       67.73813552634986
C           52.99277024340519       55.43606666920343       67.51472075182383
C           52.86390883163873       56.52779989036254       68.35547555626309
C           51.97731251138116       56.46995783282328       69.41659061941031
C           50.59314648179467       52.95120685240219       69.09336778662809
C           49.69552452704322       52.58249917698884       67.91196432899380
C           51.55152064207201       51.79494892610938       69.41556448834838
C           52.42170998582586       52.10652979359069       70.63856290526749
C           51.57929208181313       52.29185837748806       71.87716715957652
C           51.69428576054641       53.45093806514775       72.63393228773202
C           50.93923792477403       53.63125253881053       73.77948673335162
C           50.05496518729311       52.64878398571069       74.18894801197612
C           49.93579300597632       51.48628158152648       73.44659263728902
C           50.69289352998695       51.30941838440009       72.30303027739292
C           53.47516830983558       51.02289227749657       70.92181881843024
C           54.45184099622081       50.72910240747128       69.76959351579407
C           55.49275697946079       49.74771827705006       70.25437514364761
C           56.46674120011137       50.12252822787539       71.17258679904732
C           57.41537947778416       49.21633110862705       71.61125050795468
C           57.40884302973735       47.91563919636896       71.13744993794246
C           56.44448452313150       47.52686274084670       70.22450491832299
C           55.49322357244252       48.43604823837152       69.79604185993661
C           55.08892567529270       52.00891325023270       69.21270253488053
C           56.14861624812853       51.73407111299248       68.13437699161894
C           55.60302074778134       50.83227095028850       67.05816366041057
C           54.57614257776333       51.23029278172294       66.21014830759435
C           54.07534746157162       50.36678839198714       65.25136326099980
C           54.59455905302070       49.08952629586269       65.12024091317657
C           55.62282190084898       48.68639356313417       65.95529929984563
C           56.12253544405468       49.55256857109765       66.91053350332626
C           56.64807383753396       53.06859909585062       67.56509358142742
C           57.64166867858388       52.89514419740330       66.40781466135982
C           58.74637263695067       51.93704249500642       66.78780216382543
C           58.96578817961149       50.77840207751641       66.05258467719119
C           59.96379300363265       49.88889422398447       66.41108792243625
C           60.75889300416155       50.13955163995538       67.51457313109860
C           60.55471300011836       51.29402948581524       68.25061440790124
C           59.56039739876459       52.18427652827981       67.88771416333178
C           58.24844889352113       54.24484560747227       65.98782349987387
C           57.25779969743904       55.22026811378224       65.32289582553284
C           57.76418044409819       56.63211589271269       65.48424148694106
C           57.00336646436725       57.58733550485860       66.14473822983817
C           57.48116058543572       58.87220707889044       66.33319518495398
C           58.73555958875045       59.22032048087117       65.86593569362121
C           59.49918382961314       58.28017995817520       65.19448089629573
C           59.01602432784622       56.99922981343843       65.00254995553775
C           57.05161187393256       54.88379288472208       63.84206652598159
C           55.86452674981062       55.63263283500108       63.21017287209177
C           54.60117557546520       54.81243743131729       63.29259097598047
C           54.52945795144392       53.55893706857269       62.69136677782473
C           53.37414963077367       52.80410026415310       62.76492398264276
C           52.27098016588731       53.28711137810554       63.44941537647968
C           52.31899375999512       54.54136476667694       64.03188413714082
C           53.47502932721843       55.30009106879043       63.94241077679579
C           56.15998622720657       55.98159492504865       61.74244282749986
C           57.03627217739694       57.22904690229209       61.61977229852342
C           56.37896846360299       58.47795349947744       62.15709961874024
C           55.03748594016231       58.77124061082267       61.94917198903279
C           54.48454881791500       59.94592101412533       62.42786608346893