      -----------------------------------------------------------      
     |                   =====================                   |     
     |                           x T B                           |     
     |                   =====================                   |     
     |                         S. Grimme                         |     
     |          Mulliken Center for Theoretical Chemistry        |     
     |                    University of Bonn                     |     
      -----------------------------------------------------------      

   * xtb version 6.6.1 (8d0f1dd) compiled by 'stahn@M-Bot' on 2023-08-01

   xtb is free software: you can redistribute it and/or modify it under
   the terms of the GNU Lesser General Public License as published by
   the Free Software Foundation, either version 3 of the License, or
   (at your option) any later version.
   
   xtb is distributed in the hope that it will be useful,
   but WITHOUT ANY WARRANTY; without even the implied warranty of
   MERCHANTABILITY or FITNESS FOR A PARTICULAR PURPOSE.  See the
   GNU Lesser General Public License for more details.
   
   Cite this work as:
   * C. Bannwarth, E. Caldeweyher, S. Ehlert, A. Hansen, P. Pracht,
     J. Seibert, S. Spicher, S. Grimme, WIREs Comput. Mol. Sci., 2020, 11,
     e01493. DOI: 10.1002/wcms.1493
   
   for GFN2-xTB:
   * C. Bannwarth, S. Ehlert and S. Grimme., J. Chem. Theory Comput., 2019,
     15, 1652-1671. DOI: 10.1021/acs.jctc.8b01176
   for GFN1-xTB:
   * S. Grimme, C. Bannwarth, P. Shushkov, J. Chem. Theory Comput., 2017,
     13, 1989-2009. DOI: 10.1021/acs.jctc.7b00118
   for GFN0-xTB:
   * P. Pracht, E. Caldeweyher, S. Ehlert, S. Grimme, ChemRxiv, 2019, preprint.
     DOI: 10.26434/chemrxiv.8326202.v1
   for GFN-FF:
   * S. Spicher and S. Grimme, Angew. Chem. Int. Ed., 2020, 59, 15665-15673.
     DOI: 10.1002/anie.202004239
   
   for ALPB and GBSA implicit solvation:
   * S. Ehlert, M. Stahn, S. Spicher, S. Grimme, J. Chem. Theory Comput.,
     2021, 17, 4250-4261. DOI: 10.1021/acs.jctc.1c00471
   
   for DFT-D4:
   * E. Caldeweyher, C. Bannwarth and S. Grimme, J. Chem. Phys., 2017,
     147, 034112. DOI: 10.1063/1.4993215
   * E. Caldeweyher, S. Ehlert, A. Hansen, H. Neugebauer, S. Spicher,
     C. Bannwarth and S. Grimme, J. Chem. Phys., 2019, 150, 154122.
     DOI: 10.1063/1.5090222
   * E. Caldeweyher, J.-M. Mewes, S. Ehlert and S. Grimme, Phys. Chem. Chem. Phys.
     2020, 22, 8499-8512. DOI: 10.1039/D0CP00502A
   
   for sTDA-xTB:
   * S. Grimme and C. Bannwarth, J. Chem. Phys., 2016, 145, 054103.
     DOI: 10.1063/1.4959605
   
   in the mass-spec context:
   * V. Asgeirsson, C. Bauer and S. Grimme, Chem. Sci., 2017, 8, 4879.
     DOI: 10.1039/c7sc00601b
   * J. Koopman and S. Grimme, ACS Omega 2019, 4, 12, 15120-15133.
     DOI: 10.1021/acsomega.9b02011
   
   for metadynamics refer to:
   * S. Grimme, J. Chem. Theory Comput., 2019, 155, 2847-2862
     DOI: 10.1021/acs.jctc.9b00143
   
   for SPH calculations refer to:
   * S. Spicher and S. Grimme, J. Chem. Theory Comput., 2021, 17, 1701-1714
     DOI: 10.1021/acs.jctc.0c01306
   
   with help from (in alphabetical order)
   P. Atkinson, C. Bannwarth, F. Bohle, G. Brandenburg, E. Caldeweyher
   M. Checinski, S. Dohm, S. Ehlert, S. Ehrlich, I. Gerasimov, C. Hölzer
   A. Katbashev, J. Koopman, C. Lavigne, S. Lehtola, F. März, M. Müller,
   F. Musil, H. Neugebauer, J. Pisarek, C. Plett, P. Pracht, F. Pultar,
   J. Seibert, P. Shushkov, S. Spicher, M. Stahn, M. Steiner, T. Strunk,
   J. Stückrath, T. Rose, and J. Unsleber
   
 * started run on 2024/10/04 at 21:08:21.207     

           -------------------------------------------------
          |                Calculation Setup                |
           -------------------------------------------------

          program call               : /home/abt-grimme/AK-bin/xtb input.xyz --input input.inp --opt
          hostname                   : boar102.thch.uni-bonn.de
          coordinate file            : input.xyz
          omp threads                :                     8

   ID    Z sym.   atoms
    1    6 C      1-146, 294-300, 306, 309-314, 323-468, 616-622, 628,
                  631-636, 645-790, 938-944, 950, 953-958, 967-1112,
                  1260-1266, 1272, 1275-1280, 1289-1434, 1582-1588, 1594,
                  1597-1602, 1611-1756, 1904-1910, 1916, 1919-1924,
                  1933-2078, 2226-2232, 2238, 2241-2246, 2255-2400,
                  2548-2554, 2560, 2563-2568, 2577-2722, 2870-2876, 2882,
                  2885-2890, 2899-3044, 3192-3198, 3204, 3207-3212,
                  3221-3366, 3514-3520, 3526, 3529-3534, 3543-3688,
                  3836-3842, 3848, 3851-3856
    2    1 H      147-293, 301-305, 307, 308, 315-322, 469-615, 623-627, 629,
                  630, 637-644, 791-937, 945-949, 951, 952, 959-966,
                  1113-1259, 1267-1271, 1273, 1274, 1281-1288, 1435-1581,
                  1589-1593, 1595, 1596, 1603-1610, 1757-1903, 1911-1915,
                  1917, 1918, 1925-1932, 2079-2225, 2233-2237, 2239, 2240,
                  2247-2254, 2401-2547, 2555-2559, 2561, 2562, 2569-2576,
                  2723-2869, 2877-2881, 2883, 2884, 2891-2898, 3045-3191,
                  3199-3203, 3205, 3206, 3213-3220, 3367-3513, 3521-3525,
                  3527, 3528, 3535-3542, 3689-3835, 3843-3847, 3849, 3850,
                  3857-3864

molecular fragmentation (1/2 indicates fragments):
111111111111111111111111111111111111111111111111111111111111111111111111
111111111111111111111111111111111111111111111111111111111111111111111111
111111111111111111111111111111111111111111111111111111111111111111111111
111111111111111111111111111111111111111111111111111111111111111111111111
111111111111111111111111111111111122222222222222222222222222222222222222
222222222222222222222222222222222222222222222222222222222222222222222222
222222222222222222222222222222222222222222222222222222222222222222222222
222222222222222222222222222222222222222222222222222222222222222222222222
222222222222222222222222222222222222222222222222222222222222222222222222
222222222222222222222222222222222222222222222222222222222222222222222222
222222222222222222222222222222222222222222222222222222222222222222222222
222222222222222222222222222222222222222222222222222222222222222222222222
222222222222222222222222222222222222222222222222222222222222222222222222
222222222222222222222222222222222222222222222222222222222222222222222222
222222222222222222222222222222222222222222222222222222222222222222222222
222222222222222222222222222222222222222222222222222222222222222222222222
222222222222222222222222222222222222222222222222222222222222222222222222
222222222222222222222222222222222222222222222222222222222222222222222222
222222222222222222222222222222222222222222222222222222222222222222222222
222222222222222222222222222222222222222222222222222222222222222222222222
222222222222222222222222222222222222222222222222222222222222222222222222
222222222222222222222222222222222222222222222222222222222222222222222222
222222222222222222222222222222222222222222222222222222222222222222222222
222222222222222222222222222222222222222222222222222222222222222222222222
222222222222222222222222222222222222222222222222222222222222222222222222
222222222222222222222222222222222222222222222222222222222222222222222222
222222222222222222222222222222222222222222222222222222222222222222222222
222222222222222222222222222222222222222222222222222222222222222222222222
222222222222222222222222222222222222222222222222222222222222222222222222
222222222222222222222222222222222222222222222222222222222222222222222222
222222222222222222222222222222222222222222222222222222222222222222222222
222222222222222222222222222222222222222222222222222222222222222222222222
222222222222222222222222222222222222222222222222222222222222222222222222
222222222222222222222222222222222222222222222222222222222222222222222222
222222222222222222222222222222222222222222222222222222222222222222222222
222222222222222222222222222222222222222222222222222222222222222222222222
222222222222222222222222222222222222222222222222222222222222222222222222
222222222222222222222222222222222222222222222222222222222222222222222222
222222222222222222222222222222222222222222222222222222222222222222222222
222222222222222222222222222222222222222222222222222222222222222222222222
222222222222222222222222222222222222222222222222222222222222222222222222
222222222222222222222222222222222222222222222222222222222222222222222222
222222222222222222222222222222222222222222222222222222222222222222222222
222222222222222222222222222222222222222222222222222222222222222222222222
222222222222222222222222222222222222222222222222222222222222222222222222
222222222222222222222222222222222222222222222222222222222222222222222222
222222222222222222222222222222222222222222222222222222222222222222222222
222222222222222222222222222222222222222222222222222222222222222222222222
222222222222222222222222222222222222222222222222222222222222222222222222
222222222222222222222222222222222222222222222222222222222222222222222222
222222222222222222222222222222222222222222222222222222222222222222222222
222222222222222222222222222222222222222222222222222222222222222222222222
222222222222222222222222222222222222222222222222222222222222222222222222
222222222222222222222222222222222222222222222222
# atoms in fragment 1/2:   322  3542
 fragment masses (1/2) :     2085.00    22935.05
CMA distance (Bohr)    :  30.962
constraining FC (au)   :  0.0500

           -------------------------------------------------
          |                 G F N 2 - x T B                 |
           -------------------------------------------------

        Reference                      10.1021/acs.jctc.8b01176
      * Hamiltonian:
        H0-scaling (s, p, d)           1.850000    2.230000    2.230000
        zeta-weighting                 0.500000
      * Dispersion:
        s8                             2.700000
        a1                             0.520000
        a2                             5.000000
        s9                             5.000000
      * Repulsion:
        kExp                           1.500000    1.000000
        rExp                           1.000000
      * Coulomb:
        alpha                          2.000000
        third order                    shell-resolved
        anisotropic                    true
        a3                             3.000000
        a5                             4.000000
        cn-shift                       1.200000
        cn-exp                         4.000000
        max-rad                        5.000000


          ...................................................
          :                      SETUP                      :
          :.................................................:
          :  # basis functions                9624          :
          :  # atomic orbitals                9624          :
          :  # shells                         5784          :
          :  # electrons                      9624          :
          :  max. iterations                   250          :
          :  Hamiltonian                  GFN2-xTB          :
          :  restarted?                      false          :
          :  GBSA solvation                  false          :
          :  PC potential                    false          :
          :  electronic temp.          300.0000000     K    :
          :  accuracy                    1.0000000          :
          :  -> integral cutoff          0.2500000E+02      :
          :  -> integral neglect         0.1000000E-07      :
          :  -> SCF convergence          0.1000000E-05 Eh   :
          :  -> wf. convergence          0.1000000E-03 e    :
          :  Broyden damping             0.4000000          :
          ...................................................

 iter      E             dE          RMSdq      gap      omega  full diag
   1  -5195.8398316 -0.519584E+04  0.369E+00    4.31       0.0  T
   2  -5198.3867496 -0.254692E+01  0.218E+00    4.32       1.0  T
   3  -5198.3044391  0.823105E-01  0.495E-01    4.13       1.0  T
   4  -5198.5158415 -0.211402E+00  0.243E-01    3.96       1.0  T
   5  -5198.6727302 -0.156889E+00  0.469E-02    4.08       1.0  T
   6  -5198.6751923 -0.246211E-02  0.291E-02    4.05       1.0  T
   7  -5198.6765265 -0.133419E-02  0.111E-02    4.08       1.0  T
   8  -5198.6768227 -0.296200E-03  0.297E-03    4.07       1.0  T
   9  -5198.6768408 -0.181765E-04  0.128E-03    4.07       1.3  T
  10  -5198.6768427 -0.182886E-05  0.583E-04    4.07       2.8  T
  11  -5198.6768432 -0.546148E-06  0.300E-04    4.07       5.4  T
  12  -5198.6768434 -0.176212E-06  0.103E-04    4.07      15.6  T

   *** convergence criteria satisfied after 12 iterations ***

         #    Occupation            Energy/Eh            Energy/eV
      -------------------------------------------------------------
         1        2.0000           -0.6526659             -17.7599
       ...           ...                  ...                  ...
      4806        2.0000           -0.3820164             -10.3952
      4807        2.0000           -0.3819076             -10.3922
      4808        2.0000           -0.3814916             -10.3809
      4809        2.0000           -0.3812266             -10.3737
      4810        2.0000           -0.3809675             -10.3667
      4811        2.0000           -0.3804794             -10.3534
      4812        2.0000           -0.3799027             -10.3377 (HOMO)
      4813                         -0.2303429              -6.2679 (LUMO)
      4814                         -0.2291595              -6.2357
      4815                         -0.2289467              -6.2300
      4816                         -0.2281347              -6.2079
      4817                         -0.2274956              -6.1905
       ...                                ...                  ...
      9624                          0.6796721              18.4948
      -------------------------------------------------------------
                  HL-Gap            0.1495598 Eh            4.0697 eV
             Fermi-level           -0.3051228 Eh           -8.3028 eV

 SCC (total)                   0 d,  0 h, 44 min, 50.380 sec
 SCC setup                      ...        0 min,  0.718 sec (  0.027%)
 Dispersion                     ...        0 min,  6.964 sec (  0.259%)
 classical contributions        ...        0 min,  0.144 sec (  0.005%)
 integral evaluation            ...        0 min, 11.646 sec (  0.433%)
 iterations                     ...       39 min, 28.849 sec ( 88.049%)
 molecular gradient             ...        4 min, 37.160 sec ( 10.302%)
 printout                       ...        0 min, 24.898 sec (  0.925%)

         :::::::::::::::::::::::::::::::::::::::::::::::::::::
         ::                     SUMMARY                     ::
         :::::::::::::::::::::::::::::::::::::::::::::::::::::
         :: total energy           -5104.127311043693 Eh    ::
         :: gradient norm              0.025738114479 Eh/a0 ::
         :: HOMO-LUMO gap              4.069728792222 eV    ::
         ::.................................................::
         :: SCC energy             -5198.676843390812 Eh    ::
         :: -> isotropic ES            0.263279241051 Eh    ::
         :: -> anisotropic ES          0.783107538856 Eh    ::
         :: -> anisotropic XC          3.252457843311 Eh    ::
         :: -> dispersion             -7.053366671610 Eh    ::
         :: repulsion energy          93.373440010133 Eh    ::
         :: add. restraining           0.000000000000 Eh    ::
         :: total charge              -0.000000000031 e     ::
         :::::::::::::::::::::::::::::::::::::::::::::::::::::

      ----------------------------------------------------------- 
     |              Fast Inertial Relaxation Engine              |
      ----------------------------------------------------------- 

          ...................................................
          :                      SETUP                      :
          :.................................................:
          :   energy convergence        0.5000000E-05 Eh    :
          :   grad. convergence         0.1000000E-02 Eh/a0 :
          :   optimization log               true           :
          :   writing optlog all                1     steps :
          :   Hessian reset                    20     steps :
          :   time step scaling                 5     steps :
          :   maximium step len.        1.0000000     a0    :
          :   initial time step         0.2500000     fs    :
          :   maximum time step         1.2500000     fs    :
          :   power reset thr           0.0000000     au    :
          :   alpha parameter           0.1000000           :
          :   BFGS update                   false           :
          :   preconditioning               false           :
          ...................................................

........................................................................
.............................. CYCLE    1 ..............................
........................................................................

 iter      E             dE          RMSdq      gap      omega  full diag
   1  -5198.6780482 -0.519868E+04  0.352E-04    4.07       0.0  T
   2  -5198.6780482 -0.194423E-07  0.218E-04    4.07       7.4  T
   3  -5198.6780482  0.403406E-07  0.970E-05    4.07      16.6  T
     SCC iter.                  ...        9 min, 56.418 sec
     gradient                   ...        4 min, 38.037 sec
 * total energy  : -5104.1273863 Eh     change    :  -0.7522935E-04 Eh
   gradient norm :     0.0241860 Eh/a0  converged?    E=F G=F D=F
   time step     :     0.2500000 fs     power     :   0.3869257E-08
   step length   :     0.0030165 a0     speed     :   0.2918580E-03

........................................................................
.............................. CYCLE    2 ..............................
........................................................................

 iter      E             dE          RMSdq      gap      omega  full diag
   1  -5198.6798350 -0.519868E+04  0.518E-04    4.07       0.0  T
   2  -5198.6798350 -0.369273E-07  0.319E-04    4.07       5.1  T
   3  -5198.6798350  0.594118E-07  0.119E-04    4.07      13.6  T
     SCC iter.                  ...        9 min, 55.881 sec
     gradient                   ...        4 min, 35.164 sec
 * total energy  : -5104.1274883 Eh     change    :  -0.1020698E-03 Eh
   gradient norm :     0.0219912 Eh/a0  converged?    E=F G=F D=F
   time step     :     0.2500000 fs     power     :   0.5153063E-08
   step length   :     0.0044329 a0     speed     :   0.4289052E-03

........................................................................
.............................. CYCLE    3 ..............................
........................................................................

 iter      E             dE          RMSdq      gap      omega  full diag
   1  -5198.6821918 -0.519868E+04  0.668E-04    4.07       0.0  T
   2  -5198.6821919 -0.574937E-07  0.410E-04    4.07       3.9  T
   3  -5198.6821918  0.924711E-07  0.145E-04    4.07      11.1  T
     SCC iter.                  ...        9 min, 56.157 sec
     gradient                   ...        4 min, 37.560 sec
 * total energy  : -5104.1276056 Eh     change    :  -0.1172669E-03 Eh
   gradient norm :     0.0193657 Eh/a0  converged?    E=F G=F D=F
   time step     :     0.2500000 fs     power     :   0.5797563E-08
   step length   :     0.0057166 a0     speed     :   0.5531107E-03

........................................................................
.............................. CYCLE    4 ..............................
........................................................................

 iter      E             dE          RMSdq      gap      omega  full diag
   1  -5198.6851077 -0.519869E+04  0.798E-04    4.07       0.0  T
   2  -5198.6851078 -0.763966E-07  0.491E-04    4.07       3.3  T
   3  -5198.6851076  0.144064E-06  0.174E-04    4.07       9.2  T
     SCC iter.                  ...        9 min, 55.328 sec
     gradient                   ...        4 min, 38.651 sec
 * total energy  : -5104.1277258 Eh     change    :  -0.1201933E-03 Eh
   gradient norm :     0.0165966 Eh/a0  converged?    E=F G=F D=F
   time step     :     0.2500000 fs     power     :   0.5801672E-08
   step length   :     0.0068343 a0     speed     :   0.6612515E-03

........................................................................
.............................. CYCLE    5 ..............................
........................................................................

 iter      E             dE          RMSdq      gap      omega  full diag
   1  -5198.6885714 -0.519869E+04  0.904E-04    4.07       0.0  T
   2  -5198.6885714 -0.903983E-07  0.560E-04    4.07       2.9  T
   3  -5198.6885712  0.216820E-06  0.206E-04    4.07       7.8  T
     SCC iter.                  ...        9 min, 54.196 sec
     gradient                   ...        4 min, 36.210 sec
 * total energy  : -5104.1278383 Eh     change    :  -0.1124784E-03 Eh
   gradient norm :     0.0140087 Eh/a0  converged?    E=F G=F D=F
   time step     :     0.2500000 fs     power     :   0.5274591E-08
   step length   :     0.0077593 a0     speed     :   0.7507498E-03

........................................................................
.............................. CYCLE    6 ..............................
........................................................................

 iter      E             dE          RMSdq      gap      omega  full diag
   1  -5198.6930085 -0.519869E+04  0.109E-03    4.07       0.0  T
   2  -5198.6930086 -0.121257E-06  0.681E-04    4.07       2.4  T
   3  -5198.6930082  0.419214E-06  0.275E-04    4.07       5.8  T
     SCC iter.                  ...        9 min, 56.119 sec
     gradient                   ...        4 min, 37.328 sec
 * total energy  : -5104.1279446 Eh     change    :  -0.1063500E-03 Eh
   gradient norm :     0.0118010 Eh/a0  converged?    E=F G=F D=F
   time step     :     0.2750000 fs     power     :   0.4303729E-08
   step length   :     0.0093999 a0     speed     :   0.8268098E-03

........................................................................
.............................. CYCLE    7 ..............................
........................................................................

 iter      E             dE          RMSdq      gap      omega  full diag
   1  -5198.6985503 -0.519870E+04  0.127E-03    4.07       0.0  T
   2  -5198.6985505 -0.147734E-06  0.804E-04    4.08       2.0  T
   3  -5198.6985497  0.734408E-06  0.356E-04    4.08       4.5  T
     SCC iter.                  ...        9 min, 56.069 sec
     gradient                   ...        4 min, 34.962 sec
 * total energy  : -5104.1280355 Eh     change    :  -0.9084893E-04 Eh
   gradient norm :     0.0104274 Eh/a0  converged?    E=F G=F D=F
   time step     :     0.3025000 fs     power     :   0.3088277E-08
   step length   :     0.0110201 a0     speed     :   0.8811987E-03

........................................................................
.............................. CYCLE    8 ..............................
........................................................................

 iter      E             dE          RMSdq      gap      omega  full diag
   1  -5198.7051976 -0.519871E+04  0.143E-03    4.08       0.0  T
   2  -5198.7051978 -0.170508E-06  0.912E-04    4.08       1.8  T
   3  -5198.7051967  0.110522E-05  0.437E-04    4.08       3.7  T
   4  -5198.7051980 -0.127888E-05  0.504E-05    4.08      31.9  T
   5  -5198.7051980 -0.482396E-08  0.247E-05    4.08      65.1  T
     SCC iter.                  ...       16 min, 30.241 sec
     gradient                   ...        4 min, 36.416 sec
 * total energy  : -5104.1281068 Eh     change    :  -0.7134304E-04 Eh
   gradient norm :     0.0098526 Eh/a0  converged?    E=F G=F D=F
   time step     :     0.3327500 fs     power     :   0.1893639E-08
   step length   :     0.0124550 a0     speed     :   0.9054042E-03

........................................................................
.............................. CYCLE    9 ..............................
........................................................................

 iter      E             dE          RMSdq      gap      omega  full diag
   1  -5198.7126608 -0.519871E+04  0.154E-03    4.08       0.0  T
   2  -5198.7126610 -0.207051E-06  0.990E-04    4.08       1.6  T
   3  -5198.7126596  0.141147E-05  0.510E-04    4.08       3.2  T
   4  -5198.7126613 -0.168892E-05  0.526E-05    4.08      30.6  T
   5  -5198.7126613 -0.640466E-08  0.261E-05    4.08      61.5  T
     SCC iter.                  ...       16 min, 32.086 sec
     gradient                   ...        4 min, 36.635 sec
 * total energy  : -5104.1281558 Eh     change    :  -0.4894710E-04 Eh
   gradient norm :     0.0096078 Eh/a0  converged?    E=F G=F D=F
   time step     :     0.3660250 fs     power     :   0.9224840E-09
   step length   :     0.0135725 a0     speed     :   0.8969411E-03

........................................................................
.............................. CYCLE   10 ..............................
........................................................................

 iter      E             dE          RMSdq      gap      omega  full diag
   1  -5198.7204190 -0.519872E+04  0.162E-03    4.08       0.0  T
   2  -5198.7204192 -0.221594E-06  0.103E-03    4.08       1.6  T
   3  -5198.7204178  0.142623E-05  0.529E-04    4.08       3.0  T
   4  -5198.7204195 -0.172594E-05  0.572E-05    4.08      28.1  T
   5  -5198.7204196 -0.105138E-07  0.246E-05    4.08      65.4  T
   6  -5198.7204196 -0.753062E-09  0.126E-05    4.08     127.5  T
     SCC iter.                  ...       19 min, 43.931 sec
     gradient                   ...        4 min, 36.339 sec
 * total energy  : -5104.1281849 Eh     change    :  -0.2914421E-04 Eh
   gradient norm :     0.0094451 Eh/a0  converged?    E=F G=F D=F
   time step     :     0.4026275 fs     power     :   0.1710337E-09
   step length   :     0.0143441 a0     speed     :   0.8617580E-03

........................................................................
.............................. CYCLE   11 ..............................
........................................................................

 iter      E             dE          RMSdq      gap      omega  full diag
   1  -5198.7276940 -0.519873E+04  0.163E-03    4.08       0.0  T
   2  -5198.7276943 -0.227838E-06  0.101E-03    4.08       1.6  T
   3  -5198.7276930  0.124638E-05  0.506E-04    4.08       3.2  T
   4  -5198.7276945 -0.149329E-05  0.619E-05    4.08      26.0  T
   5  -5198.7276945 -0.147711E-07  0.237E-05    4.08      67.9  T
   6  -5198.7276945 -0.592991E-09  0.121E-05    4.08     132.6  T
     SCC iter.                  ...       19 min, 47.419 sec
     gradient                   ...        4 min, 36.774 sec
 * total energy  : -5104.1281968 Eh     change    :  -0.1191354E-04 Eh
   gradient norm :     0.0097107 Eh/a0  converged?    E=F G=F D=F
   time step     :     0.4428903 fs     power     :  -0.3572224E-09
   step length   :     0.0147609 a0     speed     :   0.8061800E-03

........................................................................
.............................. CYCLE   12 ..............................
........................................................................
 * reset velocities

 iter      E             dE          RMSdq      gap      omega  full diag
   1  -5198.7275290 -0.519873E+04  0.404E-05    4.08       0.0  T
   2  -5198.7275290 -0.462023E-09  0.302E-05    4.08      53.2  T
   3  -5198.7275290  0.404725E-09  0.137E-05    4.08     117.5  T
     SCC iter.                  ...        9 min, 55.266 sec
     gradient                   ...        4 min, 36.723 sec
 * total energy  : -5104.1282011 Eh     change    :  -0.4294168E-05 Eh
   gradient norm :     0.0095178 Eh/a0  converged?    E=T G=F D=T
   time step     :     0.2214451 fs     power     :   0.2546233E-09
   step length   :     0.0004465 a0     speed     :   0.4876892E-04

........................................................................
.............................. CYCLE   13 ..............................
........................................................................

 iter      E             dE          RMSdq      gap      omega  full diag
   1  -5198.7271990 -0.519873E+04  0.821E-05    4.08       0.0  T
   2  -5198.7271990 -0.154432E-08  0.589E-05    4.08      27.3  T
   3  -5198.7271990  0.269938E-08  0.258E-05    4.08      62.5  T
     SCC iter.                  ...        9 min, 54.484 sec
     gradient                   ...        4 min, 35.195 sec
 * total energy  : -5104.1282094 Eh     change    :  -0.8240092E-05 Eh
   gradient norm :     0.0091395 Eh/a0  converged?    E=F G=F D=T
   time step     :     0.2214451 fs     power     :   0.4840075E-09
   step length   :     0.0008841 a0     speed     :   0.9656773E-04

........................................................................
.............................. CYCLE   14 ..............................
........................................................................

 iter      E             dE          RMSdq      gap      omega  full diag
   1  -5198.7267075 -0.519873E+04  0.122E-04    4.08       0.0  T
   2  -5198.7267075 -0.341242E-08  0.863E-05    4.08      18.6  T
   3  -5198.7267075  0.650198E-08  0.373E-05    4.08      43.1  T
     SCC iter.                  ...        9 min, 56.542 sec
     gradient                   ...        4 min, 36.766 sec
 * total energy  : -5104.1282209 Eh     change    :  -0.1154529E-04 Eh
   gradient norm :     0.0085912 Eh/a0  converged?    E=F G=F D=F
   time step     :     0.2214451 fs     power     :   0.6705868E-09
   step length   :     0.0013042 a0     speed     :   0.1424567E-03

........................................................................
.............................. CYCLE   15 ..............................
........................................................................

 iter      E             dE          RMSdq      gap      omega  full diag
   1  -5198.7260586 -0.519873E+04  0.158E-04    4.08       0.0  T
   2  -5198.7260586 -0.557702E-08  0.112E-04    4.08      14.4  T
   3  -5198.7260586  0.113241E-07  0.482E-05    4.08      33.4  T
     SCC iter.                  ...        9 min, 56.596 sec
     gradient                   ...        4 min, 36.302 sec
 * total energy  : -5104.1282348 Eh     change    :  -0.1394123E-04 Eh
   gradient norm :     0.0078976 Eh/a0  converged?    E=F G=F D=F
   time step     :     0.2214451 fs     power     :   0.8011738E-09
   step length   :     0.0016987 a0     speed     :   0.1855555E-03

........................................................................
.............................. CYCLE   16 ..............................
........................................................................

 iter      E             dE          RMSdq      gap      omega  full diag
   1  -5198.7252575 -0.519873E+04  0.191E-04    4.08       0.0  T
   2  -5198.7252575 -0.800082E-08  0.135E-04    4.08      11.9  T
   3  -5198.7252575  0.170230E-07  0.581E-05    4.08      27.7  T
     SCC iter.                  ...       10 min,  0.288 sec
     gradient                   ...        4 min, 37.269 sec
 * total energy  : -5104.1282502 Eh     change    :  -0.1536062E-04 Eh
   gradient norm :     0.0070928 Eh/a0  converged?    E=F G=F D=F
   time step     :     0.2214451 fs     power     :   0.8683788E-09
   step length   :     0.0020605 a0     speed     :   0.2250714E-03

........................................................................
.............................. CYCLE   17 ..............................
........................................................................

 iter      E             dE          RMSdq      gap      omega  full diag
   1  -5198.7243103 -0.519872E+04  0.220E-04    4.08       0.0  T
   2  -5198.7243103 -0.989712E-08  0.155E-04    4.08      10.4  T
   3  -5198.7243103  0.234068E-07  0.668E-05    4.08      24.1  T
     SCC iter.                  ...        9 min, 57.380 sec
     gradient                   ...        4 min, 35.914 sec
 * total energy  : -5104.1282659 Eh     change    :  -0.1564888E-04 Eh
   gradient norm :     0.0062217 Eh/a0  converged?    E=F G=F D=F
   time step     :     0.2214451 fs     power     :   0.8714706E-09
   step length   :     0.0023831 a0     speed     :   0.2603124E-03

........................................................................
.............................. CYCLE   18 ..............................
........................................................................

 iter      E             dE          RMSdq      gap      omega  full diag
   1  -5198.7231013 -0.519872E+04  0.268E-04    4.08       0.0  T
   2  -5198.7231013 -0.145537E-07  0.190E-04    4.08       8.5  T
   3  -5198.7231013  0.374166E-07  0.830E-05    4.08      19.4  T
     SCC iter.                  ...        9 min, 57.869 sec
     gradient                   ...        4 min, 35.642 sec
 * total energy  : -5104.1282823 Eh     change    :  -0.1644040E-04 Eh
   gradient norm :     0.0052529 Eh/a0  converged?    E=F G=F D=F
   time step     :     0.2435896 fs     power     :   0.8076265E-09
   step length   :     0.0029583 a0     speed     :   0.2937630E-03

........................................................................
.............................. CYCLE   19 ..............................
........................................................................

 iter      E             dE          RMSdq      gap      omega  full diag
   1  -5198.7215857 -0.519872E+04  0.319E-04    4.08       0.0  T
   2  -5198.7215857 -0.193941E-07  0.227E-04    4.08       7.1  T
   3  -5198.7215856  0.569871E-07  0.100E-04    4.08      16.1  T
     SCC iter.                  ...        9 min, 55.782 sec
     gradient                   ...        4 min, 36.661 sec
 * total energy  : -5104.1282982 Eh     change    :  -0.1587517E-04 Eh
   gradient norm :     0.0042991 Eh/a0  converged?    E=F G=F D=F
   time step     :     0.2679486 fs     power     :   0.6742568E-09
   step length   :     0.0035824 a0     speed     :   0.3233981E-03

........................................................................
.............................. CYCLE   20 ..............................
........................................................................

 iter      E             dE          RMSdq      gap      omega  full diag
   1  -5198.7197260 -0.519872E+04  0.366E-04    4.08       0.0  T
   2  -5198.7197260 -0.233740E-07  0.261E-04    4.08       6.2  T
   3  -5198.7197259  0.827458E-07  0.117E-04    4.08      13.8  T
     SCC iter.                  ...        9 min, 56.310 sec
     gradient                   ...        4 min, 36.879 sec
 * total energy  : -5104.1283118 Eh     change    :  -0.1365969E-04 Eh
   gradient norm :     0.0035936 Eh/a0  converged?    E=F G=F D=F
   time step     :     0.2947435 fs     power     :   0.4874835E-09
   step length   :     0.0042195 a0     speed     :   0.3462815E-03
 * RMSD in coord.:     0.0014515 a0     energy gain  -0.1000790E-02 Eh

........................................................................
.............................. CYCLE   21 ..............................
........................................................................

 iter      E             dE          RMSdq      gap      omega  full diag
   1  -5198.7180542 -0.519872E+04  0.309E-04    4.08       0.0  T
   2  -5198.7180542 -0.137843E-07  0.217E-04    4.08       7.4  T
   3  -5198.7180541  0.624814E-07  0.985E-05    4.08      16.3  T
     SCC iter.                  ...        9 min, 52.812 sec
     gradient                   ...        4 min, 36.491 sec
 * total energy  : -5104.1283202 Eh     change    :  -0.8364524E-05 Eh
   gradient norm :     0.0033986 Eh/a0  converged?    E=F G=F D=F
   time step     :     0.2500000 fs     power     :   0.3438050E-09
   step length   :     0.0036488 a0     speed     :   0.3530370E-03

........................................................................
.............................. CYCLE   22 ..............................
........................................................................

 iter      E             dE          RMSdq      gap      omega  full diag
   1  -5198.7163600 -0.519872E+04  0.294E-04    4.08       0.0  T
   2  -5198.7163601 -0.104628E-07  0.204E-04    4.08       7.9  T
   3  -5198.7163600  0.604314E-07  0.957E-05    4.08      16.8  T
     SCC iter.                  ...        9 min, 56.770 sec
     gradient                   ...        4 min, 36.642 sec
 * total energy  : -5104.1283263 Eh     change    :  -0.6112357E-05 Eh
   gradient norm :     0.0034891 Eh/a0  converged?    E=F G=F D=F
   time step     :     0.2500000 fs     power     :   0.2450869E-09
   step length   :     0.0036107 a0     speed     :   0.3493523E-03

........................................................................
.............................. CYCLE   23 ..............................
........................................................................

 iter      E             dE          RMSdq      gap      omega  full diag
   1  -5198.7147224 -0.519871E+04  0.275E-04    4.08       0.0  T
   2  -5198.7147224 -0.714135E-08  0.186E-04    4.08       8.6  T
   3  -5198.7147224  0.483651E-07  0.860E-05    4.08      18.7  T
     SCC iter.                  ...        9 min, 54.869 sec
     gradient                   ...        4 min, 36.251 sec
 * total energy  : -5104.1283312 Eh     change    :  -0.4928145E-05 Eh
   gradient norm :     0.0036875 Eh/a0  converged?    E=T G=F D=F
   time step     :     0.2500000 fs     power     :   0.2002542E-09
   step length   :     0.0034967 a0     speed     :   0.3383247E-03

........................................................................
.............................. CYCLE   24 ..............................
........................................................................

 iter      E             dE          RMSdq      gap      omega  full diag
   1  -5198.7132069 -0.519871E+04  0.259E-04    4.08       0.0  T
   2  -5198.7132069 -0.461478E-08  0.168E-04    4.08       9.6  T
   3  -5198.7132068  0.281971E-07  0.673E-05    4.08      23.9  T
     SCC iter.                  ...        9 min, 56.510 sec
     gradient                   ...        4 min, 36.495 sec
 * total energy  : -5104.1283359 Eh     change    :  -0.4639467E-05 Eh
   gradient norm :     0.0038600 Eh/a0  converged?    E=T G=F D=F
   time step     :     0.2500000 fs     power     :   0.2008361E-09
   step length   :     0.0033565 a0     speed     :   0.3247553E-03

........................................................................
.............................. CYCLE   25 ..............................
........................................................................

 iter      E             dE          RMSdq      gap      omega  full diag
   1  -5198.7118593 -0.519871E+04  0.249E-04    4.08       0.0  T
   2  -5198.7118593 -0.314958E-08  0.154E-04    4.08      10.5  T
   3  -5198.7118593  0.838918E-08  0.400E-05    4.08      40.2  T
     SCC iter.                  ...        9 min, 55.537 sec
     gradient                   ...        4 min, 37.632 sec
 * total energy  : -5104.1283408 Eh     change    :  -0.4971605E-05 Eh
   gradient norm :     0.0039417 Eh/a0  converged?    E=T G=F D=F
   time step     :     0.2500000 fs     power     :   0.2301793E-09
   step length   :     0.0032299 a0     speed     :   0.3125110E-03

........................................................................
.............................. CYCLE   26 ..............................
........................................................................

 iter      E             dE          RMSdq      gap      omega  full diag
   1  -5198.7105965 -0.519871E+04  0.271E-04    4.08       0.0  T
   2  -5198.7105965 -0.264117E-08  0.161E-04    4.08      10.0  T
   3  -5198.7105965  0.162800E-08  0.262E-05    4.08      61.4  T
     SCC iter.                  ...        9 min, 57.025 sec
     gradient                   ...        4 min, 37.590 sec
 * total energy  : -5104.1283470 Eh     change    :  -0.6185644E-05 Eh
   gradient norm :     0.0039053 Eh/a0  converged?    E=F G=F D=F
   time step     :     0.2750000 fs     power     :   0.2706924E-09
   step length   :     0.0034656 a0     speed     :   0.3048327E-03

........................................................................
.............................. CYCLE   27 ..............................
........................................................................

 iter      E             dE          RMSdq      gap      omega  full diag
   1  -5198.7094789 -0.519871E+04  0.300E-04    4.08       0.0  T
   2  -5198.7094789 -0.312775E-08  0.177E-04    4.08       9.1  T
   3  -5198.7094789  0.451018E-08  0.344E-05    4.08      46.8  T
     SCC iter.                  ...        9 min, 53.924 sec
     gradient                   ...        4 min, 36.553 sec
 * total energy  : -5104.1283547 Eh     change    :  -0.7669707E-05 Eh
   gradient norm :     0.0037335 Eh/a0  converged?    E=F G=F D=F
   time step     :     0.3025000 fs     power     :   0.3081129E-09
   step length   :     0.0037860 a0     speed     :   0.3027407E-03

........................................................................
.............................. CYCLE   28 ..............................
........................................................................

 iter      E             dE          RMSdq      gap      omega  full diag
   1  -5198.7085759 -0.519871E+04  0.342E-04    4.08       0.0  T
   2  -5198.7085760 -0.438649E-08  0.202E-04    4.08       8.0  T
   3  -5198.7085759  0.180898E-07  0.612E-05    4.08      26.3  T
     SCC iter.                  ...        9 min, 55.117 sec
     gradient                   ...        4 min, 36.629 sec
 * total energy  : -5104.1283638 Eh     change    :  -0.9093684E-05 Eh
   gradient norm :     0.0034351 Eh/a0  converged?    E=F G=F D=F
   time step     :     0.3327500 fs     power     :   0.3292771E-09
   step length   :     0.0042089 a0     speed     :   0.3059601E-03

........................................................................
.............................. CYCLE   29 ..............................
........................................................................

 iter      E             dE          RMSdq      gap      omega  full diag
   1  -5198.7079670 -0.519871E+04  0.391E-04    4.08       0.0  T
   2  -5198.7079670 -0.669388E-08  0.234E-04    4.08       6.9  T
   3  -5198.7079670  0.491364E-07  0.975E-05    4.08      16.5  T
     SCC iter.                  ...        9 min, 57.780 sec
     gradient                   ...        4 min, 36.660 sec
 * total energy  : -5104.1283738 Eh     change    :  -0.1001822E-04 Eh
   gradient norm :     0.0030531 Eh/a0  converged?    E=F G=F D=F
   time step     :     0.3660250 fs     power     :   0.3242294E-09
   step length   :     0.0047390 a0     speed     :   0.3131782E-03

........................................................................
.............................. CYCLE   30 ..............................
........................................................................

 iter      E             dE          RMSdq      gap      omega  full diag
   1  -5198.7077367 -0.519871E+04  0.443E-04    4.08       0.0  T
   2  -5198.7077367 -0.965338E-08  0.270E-04    4.08       6.0  T
   3  -5198.7077366  0.868513E-07  0.129E-04    4.08      12.5  T
     SCC iter.                  ...        9 min, 55.833 sec
     gradient                   ...        4 min, 37.328 sec
 * total energy  : -5104.1283840 Eh     change    :  -0.1021702E-04 Eh
   gradient norm :     0.0026801 Eh/a0  converged?    E=F G=F D=F
   time step     :     0.4026275 fs     power     :   0.2902885E-09
   step length   :     0.0053624 a0     speed     :   0.3221608E-03

........................................................................
.............................. CYCLE   31 ..............................
........................................................................

 iter      E             dE          RMSdq      gap      omega  full diag
   1  -5198.7079542 -0.519871E+04  0.489E-04    4.08       0.0  T
   2  -5198.7079542 -0.121299E-07  0.301E-04    4.08       5.3  T
   3  -5198.7079541  0.116833E-06  0.148E-04    4.08      10.8  T
     SCC iter.                  ...        9 min, 56.989 sec
     gradient                   ...        4 min, 38.028 sec
 * total energy  : -5104.1283935 Eh     change    :  -0.9479464E-05 Eh
   gradient norm :     0.0024418 Eh/a0  converged?    E=F G=F D=F
   time step     :     0.4428903 fs     power     :   0.2364841E-09
   step length   :     0.0060412 a0     speed     :   0.3299479E-03

........................................................................
.............................. CYCLE   32 ..............................
........................................................................

 iter      E             dE          RMSdq      gap      omega  full diag
   1  -5198.7086308 -0.519871E+04  0.519E-04    4.08       0.0  T
   2  -5198.7086308 -0.132804E-07  0.318E-04    4.08       5.1  T
   3  -5198.7086307  0.121027E-06  0.150E-04    4.08      10.7  T
     SCC iter.                  ...        9 min, 55.568 sec
     gradient                   ...        4 min, 37.210 sec
 * total energy  : -5104.1284025 Eh     change    :  -0.8983830E-05 Eh
   gradient norm :     0.0023964 Eh/a0  converged?    E=F G=F D=F
   time step     :     0.4871793 fs     power     :   0.1821679E-09
   step length   :     0.0067182 a0     speed     :   0.3335643E-03

........................................................................
.............................. CYCLE   33 ..............................
........................................................................

 iter      E             dE          RMSdq      gap      omega  full diag
   1  -5198.7096788 -0.519871E+04  0.524E-04    4.08       0.0  T
   2  -5198.7096789 -0.137943E-07  0.316E-04    4.08       5.1  T
   3  -5198.7096788  0.823266E-07  0.124E-04    4.08      13.0  T
     SCC iter.                  ...        9 min, 55.309 sec
     gradient                   ...        4 min, 36.223 sec
 * total energy  : -5104.1284103 Eh     change    :  -0.7778534E-05 Eh
   gradient norm :     0.0024866 Eh/a0  converged?    E=F G=F D=F
   time step     :     0.5358972 fs     power     :   0.1465263E-09
   step length   :     0.0073562 a0     speed     :   0.3320378E-03

........................................................................
.............................. CYCLE   34 ..............................
........................................................................

 iter      E             dE          RMSdq      gap      omega  full diag
   1  -5198.7109241 -0.519871E+04  0.505E-04    4.08       0.0  T
   2  -5198.7109241 -0.128402E-07  0.301E-04    4.08       5.3  T
   3  -5198.7109241  0.212813E-07  0.709E-05    4.08      22.7  T
     SCC iter.                  ...        9 min, 55.377 sec
     gradient                   ...        4 min, 34.675 sec
 * total energy  : -5104.1284183 Eh     change    :  -0.8048784E-05 Eh
   gradient norm :     0.0026050 Eh/a0  converged?    E=F G=F D=F
   time step     :     0.5894869 fs     power     :   0.1391734E-09
   step length   :     0.0079858 a0     speed     :   0.3276889E-03

........................................................................
.............................. CYCLE   35 ..............................
........................................................................

 iter      E             dE          RMSdq      gap      omega  full diag
   1  -5198.7121439 -0.519871E+04  0.472E-04    4.08       0.0  T
   2  -5198.7121439 -0.993077E-08  0.287E-04    4.08       5.6  T
   3  -5198.7121439  0.195641E-07  0.645E-05    4.08      24.9  T
     SCC iter.                  ...        9 min, 55.766 sec
     gradient                   ...        4 min, 36.817 sec
 * total energy  : -5104.1284276 Eh     change    :  -0.9272175E-05 Eh
   gradient norm :     0.0026157 Eh/a0  converged?    E=F G=F D=F
   time step     :     0.6484356 fs     power     :   0.1556554E-09
   step length   :     0.0087028 a0     speed     :   0.3246424E-03

........................................................................
.............................. CYCLE   36 ..............................
........................................................................

 iter      E             dE          RMSdq      gap      omega  full diag
   1  -5198.7131022 -0.519871E+04  0.453E-04    4.08       0.0  T
   2  -5198.7131022 -0.798627E-08  0.281E-04    4.08       5.7  T
   3  -5198.7131021  0.349892E-07  0.799E-05    4.08      20.1  T
     SCC iter.                  ...        9 min, 56.148 sec
     gradient                   ...        4 min, 37.032 sec
 * total energy  : -5104.1284388 Eh     change    :  -0.1119140E-04 Eh
   gradient norm :     0.0024292 Eh/a0  converged?    E=F G=F D=F
   time step     :     0.7132792 fs     power     :   0.1737854E-09
   step length   :     0.0096219 a0     speed     :   0.3263006E-03

........................................................................
.............................. CYCLE   37 ..............................
........................................................................

 iter      E             dE          RMSdq      gap      omega  full diag
   1  -5198.7135924 -0.519871E+04  0.454E-04    4.08       0.0  T
   2  -5198.7135924 -0.133559E-07  0.294E-04    4.08       5.5  T
   3  -5198.7135923  0.879854E-07  0.119E-04    4.08      13.5  T
     SCC iter.                  ...        9 min, 57.428 sec
     gradient                   ...        4 min, 37.664 sec
 * total energy  : -5104.1284513 Eh     change    :  -0.1246916E-04 Eh
   gradient norm :     0.0022992 Eh/a0  converged?    E=F G=F D=F
   time step     :     0.7846071 fs     power     :   0.1718419E-09
   step length   :     0.0107927 a0     speed     :   0.3327307E-03

........................................................................
.............................. CYCLE   38 ..............................
........................................................................

 iter      E             dE          RMSdq      gap      omega  full diag
   1  -5198.7134990 -0.519871E+04  0.480E-04    4.08       0.0  T
   2  -5198.7134990 -0.183591E-07  0.305E-04    4.08       5.3  T
   3  -5198.7134989  0.757482E-07  0.116E-04    4.08      13.9  T
     SCC iter.                  ...        9 min, 57.888 sec
     gradient                   ...        4 min, 37.520 sec
 * total energy  : -5104.1284651 Eh     change    :  -0.1387797E-04 Eh
   gradient norm :     0.0024815 Eh/a0  converged?    E=F G=F D=F
   time step     :     0.8630678 fs     power     :   0.1771648E-09
   step length   :     0.0121525 a0     speed     :   0.3405918E-03

........................................................................
.............................. CYCLE   39 ..............................
........................................................................

 iter      E             dE          RMSdq      gap      omega  full diag
   1  -5198.7129750 -0.519871E+04  0.547E-04    4.08       0.0  T
   2  -5198.7129750 -0.158316E-07  0.331E-04    4.08       4.9  T
   3  -5198.7129749  0.286736E-07  0.802E-05    4.08      20.1  T
     SCC iter.                  ...        9 min, 55.548 sec
     gradient                   ...        4 min, 37.312 sec
 * total energy  : -5104.1284830 Eh     change    :  -0.1782107E-04 Eh
   gradient norm :     0.0024711 Eh/a0  converged?    E=F G=F D=F
   time step     :     0.9493746 fs     power     :   0.2207587E-09
   step length   :     0.0137796 a0     speed     :   0.3510869E-03

........................................................................
.............................. CYCLE   40 ..............................
........................................................................

 iter      E             dE          RMSdq      gap      omega  full diag
   1  -5198.7125414 -0.519871E+04  0.637E-04    4.08       0.0  T
   2  -5198.7125415 -0.178652E-07  0.387E-04    4.08       4.2  T
   3  -5198.7125414  0.552291E-07  0.104E-04    4.08      15.4  T
     SCC iter.                  ...        9 min, 57.491 sec
     gradient                   ...        4 min, 37.378 sec
 * total energy  : -5104.1285054 Eh     change    :  -0.2239481E-04 Eh
   gradient norm :     0.0021216 Eh/a0  converged?    E=F G=F D=F
   time step     :     1.0443120 fs     power     :   0.2471763E-09
   step length   :     0.0159903 a0     speed     :   0.3703755E-03

........................................................................
.............................. CYCLE   41 ..............................
........................................................................

 iter      E             dE          RMSdq      gap      omega  full diag
   1  -5198.7130491 -0.519871E+04  0.688E-04    4.08       0.0  T
   2  -5198.7130492 -0.238351E-07  0.427E-04    4.08       3.8  T
   3  -5198.7130491  0.989676E-07  0.134E-04    4.08      12.0  T
     SCC iter.                  ...        9 min, 55.763 sec
     gradient                   ...        4 min, 36.230 sec
 * total energy  : -5104.1285292 Eh     change    :  -0.2381043E-04 Eh
   gradient norm :     0.0021468 Eh/a0  converged?    E=F G=F D=F
   time step     :     1.1487432 fs     power     :   0.2274773E-09
   step length   :     0.0187580 a0     speed     :   0.3949837E-03

........................................................................
.............................. CYCLE   42 ..............................
........................................................................

 iter      E             dE          RMSdq      gap      omega  full diag
   1  -5198.7148004 -0.519871E+04  0.732E-04    4.08       0.0  T
   2  -5198.7148004 -0.174896E-07  0.438E-04    4.08       3.7  T
   3  -5198.7148004  0.222863E-07  0.764E-05    4.08      21.1  T
     SCC iter.                  ...        9 min, 55.596 sec
     gradient                   ...        4 min, 34.709 sec
 * total energy  : -5104.1285565 Eh     change    :  -0.2730350E-04 Eh
   gradient norm :     0.0023612 Eh/a0  converged?    E=F G=F D=F
   time step     :     1.2500000 fs     power     :   0.2581994E-09
   step length   :     0.0214877 a0     speed     :   0.4158108E-03
 * RMSD in coord.:     0.0024339 a0     energy gain  -0.2446315E-03 Eh

........................................................................
.............................. CYCLE   43 ..............................
........................................................................

 iter      E             dE          RMSdq      gap      omega  full diag
   1  -5198.7151331 -0.519872E+04  0.142E-04    4.08       0.0  T
   2  -5198.7151331 -0.754881E-09  0.830E-05    4.08      19.4  T
   3  -5198.7151331  0.439377E-08  0.315E-05    4.08      51.0  T
     SCC iter.                  ...        9 min, 55.596 sec
     gradient                   ...        4 min, 37.927 sec
 * total energy  : -5104.1285622 Eh     change    :  -0.5698203E-05 Eh
   gradient norm :     0.0023136 Eh/a0  converged?    E=F G=F D=F
   time step     :     0.2500000 fs     power     :   0.2952314E-09
   step length   :     0.0041701 a0     speed     :   0.4034750E-03

........................................................................
.............................. CYCLE   44 ..............................
........................................................................

 iter      E             dE          RMSdq      gap      omega  full diag
   1  -5198.7154295 -0.519872E+04  0.147E-04    4.08       0.0  T
   2  -5198.7154295 -0.956788E-09  0.880E-05    4.08      18.3  T
   3  -5198.7154295  0.294131E-08  0.260E-05    4.08      61.9  T
     SCC iter.                  ...        9 min, 57.928 sec
     gradient                   ...        4 min, 36.506 sec
 * total energy  : -5104.1285683 Eh     change    :  -0.6152022E-05 Eh
   gradient norm :     0.0021223 Eh/a0  converged?    E=F G=F D=F
   time step     :     0.2500000 fs     power     :   0.3197206E-09
   step length   :     0.0040966 a0     speed     :   0.3963659E-03

........................................................................
.............................. CYCLE   45 ..............................
........................................................................

 iter      E             dE          RMSdq      gap      omega  full diag
   1  -5198.7156788 -0.519872E+04  0.163E-04    4.08       0.0  T
   2  -5198.7156788 -0.146520E-08  0.989E-05    4.08      16.3  T
   3  -5198.7156788  0.584077E-08  0.346E-05    4.08      46.4  T
     SCC iter.                  ...        9 min, 55.258 sec
     gradient                   ...        4 min, 37.572 sec
 * total energy  : -5104.1285747 Eh     change    :  -0.6349297E-05 Eh
   gradient norm :     0.0018526 Eh/a0  converged?    E=F G=F D=F
   time step     :     0.2500000 fs     power     :   0.3237001E-09
   step length   :     0.0040751 a0     speed     :   0.3942915E-03

........................................................................
.............................. CYCLE   46 ..............................
........................................................................

 iter      E             dE          RMSdq      gap      omega  full diag
   1  -5198.7158737 -0.519872E+04  0.179E-04    4.08       0.0  T
   2  -5198.7158737 -0.200635E-08  0.110E-04    4.08      14.7  T
   3  -5198.7158737  0.775617E-08  0.393E-05    4.08      40.9  T
     SCC iter.                  ...        9 min, 56.262 sec
     gradient                   ...        4 min, 37.321 sec
 * total energy  : -5104.1285807 Eh     change    :  -0.6081614E-05 Eh
   gradient norm :     0.0015982 Eh/a0  converged?    E=F G=F D=F
   time step     :     0.2500000 fs     power     :   0.3080233E-09
   step length   :     0.0040958 a0     speed     :   0.3962928E-03

........................................................................
.............................. CYCLE   47 ..............................
........................................................................

 iter      E             dE          RMSdq      gap      omega  full diag
   1  -5198.7160126 -0.519872E+04  0.188E-04    4.08       0.0  T
   2  -5198.7160126 -0.206182E-08  0.116E-04    4.08      13.9  T
   3  -5198.7160126  0.852924E-08  0.401E-05    4.08      40.1  T
     SCC iter.                  ...        9 min, 56.158 sec
     gradient                   ...        4 min, 35.813 sec
 * total energy  : -5104.1285865 Eh     change    :  -0.5703743E-05 Eh
   gradient norm :     0.0014644 Eh/a0  converged?    E=F G=F D=F
   time step     :     0.2500000 fs     power     :   0.2818441E-09
   step length   :     0.0041389 a0     speed     :   0.4004632E-03

........................................................................
.............................. CYCLE   48 ..............................
........................................................................

 iter      E             dE          RMSdq      gap      omega  full diag
   1  -5198.7161104 -0.519872E+04  0.205E-04    4.08       0.0  T
   2  -5198.7161104 -0.224009E-08  0.125E-04    4.08      12.9  T
   3  -5198.7161104  0.898217E-08  0.403E-05    4.08      39.9  T
     SCC iter.                  ...        9 min, 56.318 sec
     gradient                   ...        4 min, 37.665 sec
 * total energy  : -5104.1285922 Eh     change    :  -0.5708648E-05 Eh
   gradient norm :     0.0014947 Eh/a0  converged?    E=F G=F D=F
   time step     :     0.2750000 fs     power     :   0.2562687E-09
   step length   :     0.0045953 a0     speed     :   0.4041992E-03

........................................................................
.............................. CYCLE   49 ..............................
........................................................................

 iter      E             dE          RMSdq      gap      omega  full diag
   1  -5198.7161730 -0.519872E+04  0.207E-04    4.08       0.0  T
   2  -5198.7161730 -0.175442E-08  0.125E-04    4.08      12.8  T
   3  -5198.7161730  0.571890E-08  0.334E-05    4.08      48.1  T
     SCC iter.                  ...        9 min, 55.388 sec
     gradient                   ...        4 min, 37.987 sec
 * total energy  : -5104.1285980 Eh     change    :  -0.5874414E-05 Eh
   gradient norm :     0.0016339 Eh/a0  converged?    E=F G=F D=F
   time step     :     0.3025000 fs     power     :   0.2446004E-09
   step length   :     0.0050562 a0     speed     :   0.4043123E-03

........................................................................
.............................. CYCLE   50 ..............................
........................................................................

 iter      E             dE          RMSdq      gap      omega  full diag
   1  -5198.7162088 -0.519872E+04  0.200E-04    4.08       0.0  T
   2  -5198.7162088 -0.144973E-08  0.119E-04    4.08      13.5  T
   3  -5198.7162088  0.207001E-08  0.223E-05    4.08      72.1  T
     SCC iter.                  ...        9 min, 54.605 sec
     gradient                   ...        4 min, 37.895 sec
 * total energy  : -5104.1286045 Eh     change    :  -0.6465277E-05 Eh
   gradient norm :     0.0017579 Eh/a0  converged?    E=F G=F D=F
   time step     :     0.3327500 fs     power     :   0.2508076E-09
   step length   :     0.0055244 a0     speed     :   0.4015888E-03

........................................................................
.............................. CYCLE   51 ..............................
........................................................................

 iter      E             dE          RMSdq      gap      omega  full diag
   1  -5198.7162184 -0.519872E+04  0.193E-04    4.08       0.0  T
   2  -5198.7162184 -0.686668E-09  0.114E-04    4.08      14.1  T
   3  -5198.7162184  0.860382E-09  0.165E-05    4.08      97.5  T
     SCC iter.                  ...        9 min, 55.972 sec
     gradient                   ...        4 min, 37.132 sec
 * total energy  : -5104.1286121 Eh     change    :  -0.7581220E-05 Eh
   gradient norm :     0.0024576 Eh/a0  converged?    E=F G=F D=F
   time step     :     0.3660250 fs     power     :   0.2683515E-09
   step length   :     0.0060437 a0     speed     :   0.3993994E-03

........................................................................
.............................. CYCLE   52 ..............................
........................................................................

 iter      E             dE          RMSdq      gap      omega  full diag
   1  -5198.7161948 -0.519872E+04  0.206E-04    4.08       0.0  T
   2  -5198.7161948 -0.988621E-09  0.123E-04    4.08      13.1  T
   3  -5198.7161948  0.215641E-08  0.228E-05    4.08      70.7  T
     SCC iter.                  ...        9 min, 54.534 sec
     gradient                   ...        4 min, 38.534 sec
 * total energy  : -5104.1286205 Eh     change    :  -0.8429784E-05 Eh
   gradient norm :     0.0016912 Eh/a0  converged?    E=F G=F D=F
   time step     :     0.4026275 fs     power     :   0.2705551E-09
   step length   :     0.0065727 a0     speed     :   0.3948723E-03

........................................................................
.............................. CYCLE   53 ..............................
........................................................................

 iter      E             dE          RMSdq      gap      omega  full diag
   1  -5198.7161015 -0.519872E+04  0.224E-04    4.08       0.0  T
   2  -5198.7161015 -0.172804E-08  0.137E-04    4.08      11.8  T
   3  -5198.7161015  0.786531E-08  0.388E-05    4.08      41.5  T
     SCC iter.                  ...        9 min, 55.029 sec
     gradient                   ...        4 min, 38.659 sec
 * total energy  : -5104.1286300 Eh     change    :  -0.9508322E-05 Eh
   gradient norm :     0.0015276 Eh/a0  converged?    E=F G=F D=F
   time step     :     0.4428903 fs     power     :   0.2743484E-09
   step length   :     0.0073110 a0     speed     :   0.3992956E-03

........................................................................
.............................. CYCLE   54 ..............................
........................................................................

 iter      E             dE          RMSdq      gap      omega  full diag
   1  -5198.7158923 -0.519872E+04  0.254E-04    4.08       0.0  T
   2  -5198.7158923 -0.296313E-08  0.157E-04    4.08      10.2  T
   3  -5198.7158923  0.137525E-07  0.505E-05    4.08      31.9  T
     SCC iter.                  ...        9 min, 54.909 sec
     gradient                   ...        4 min, 38.164 sec
 * total energy  : -5104.1286403 Eh     change    :  -0.1026930E-04 Eh
   gradient norm :     0.0014378 Eh/a0  converged?    E=F G=F D=F
   time step     :     0.4871793 fs     power     :   0.2658007E-09
   step length   :     0.0082085 a0     speed     :   0.4075587E-03

........................................................................
.............................. CYCLE   55 ..............................
........................................................................

 iter      E             dE          RMSdq      gap      omega  full diag
   1  -5198.7155322 -0.519872E+04  0.278E-04    4.08       0.0  T
   2  -5198.7155322 -0.322507E-08  0.171E-04    4.08       9.4  T
   3  -5198.7155321  0.138443E-07  0.507E-05    4.08      31.7  T
     SCC iter.                  ...        9 min, 57.022 sec
     gradient                   ...        4 min, 36.115 sec
 * total energy  : -5104.1286513 Eh     change    :  -0.1096723E-04 Eh
   gradient norm :     0.0015141 Eh/a0  converged?    E=F G=F D=F
   time step     :     0.5358972 fs     power     :   0.2588948E-09
   step length   :     0.0092297 a0     speed     :   0.4165996E-03

........................................................................
.............................. CYCLE   56 ..............................
........................................................................

 iter      E             dE          RMSdq      gap      omega  full diag
   1  -5198.7150560 -0.519872E+04  0.290E-04    4.08       0.0  T
   2  -5198.7150560 -0.240289E-08  0.174E-04    4.08       9.3  T
   3  -5198.7150560  0.577893E-08  0.361E-05    4.08      44.5  T
     SCC iter.                  ...        9 min, 57.029 sec
     gradient                   ...        4 min, 36.507 sec
 * total energy  : -5104.1286635 Eh     change    :  -0.1221011E-04 Eh
   gradient norm :     0.0016052 Eh/a0  converged?    E=F G=F D=F
   time step     :     0.5894869 fs     power     :   0.2670099E-09
   step length   :     0.0103295 a0     speed     :   0.4238572E-03

........................................................................
.............................. CYCLE   57 ..............................
........................................................................

 iter      E             dE          RMSdq      gap      omega  full diag
   1  -5198.7145930 -0.519871E+04  0.306E-04    4.08       0.0  T
   2  -5198.7145930 -0.225828E-08  0.181E-04    4.08       8.9  T
   3  -5198.7145930  0.579075E-08  0.367E-05    4.08      43.8  T
     SCC iter.                  ...        9 min, 54.648 sec
     gradient                   ...        4 min, 37.286 sec
 * total energy  : -5104.1286777 Eh     change    :  -0.1422986E-04 Eh
   gradient norm :     0.0015792 Eh/a0  converged?    E=F G=F D=F
   time step     :     0.6484356 fs     power     :   0.2847205E-09
   step length   :     0.0115787 a0     speed     :   0.4319258E-03

........................................................................
.............................. CYCLE   58 ..............................
........................................................................

 iter      E             dE          RMSdq      gap      omega  full diag
   1  -5198.7143588 -0.519871E+04  0.346E-04    4.08       0.0  T
   2  -5198.7143588 -0.316868E-08  0.209E-04    4.08       7.7  T
   3  -5198.7143587  0.205519E-07  0.601E-05    4.08      26.7  T
     SCC iter.                  ...        9 min, 54.750 sec
     gradient                   ...        4 min, 37.367 sec
 * total energy  : -5104.1286940 Eh     change    :  -0.1633441E-04 Eh
   gradient norm :     0.0014317 Eh/a0  converged?    E=F G=F D=F
   time step     :     0.7132792 fs     power     :   0.2958395E-09
   step length   :     0.0130929 a0     speed     :   0.4440080E-03

........................................................................
.............................. CYCLE   59 ..............................
........................................................................

 iter      E             dE          RMSdq      gap      omega  full diag
   1  -5198.7145928 -0.519871E+04  0.401E-04    4.08       0.0  T
   2  -5198.7145928 -0.486216E-08  0.245E-04    4.08       6.6  T
   3  -5198.7145928  0.387008E-07  0.820E-05    4.08      19.6  T
     SCC iter.                  ...        9 min, 55.771 sec
     gradient                   ...        4 min, 36.054 sec
 * total energy  : -5104.1287121 Eh     change    :  -0.1807483E-04 Eh
   gradient norm :     0.0013996 Eh/a0  converged?    E=F G=F D=F
   time step     :     0.7846071 fs     power     :   0.2927478E-09
   step length   :     0.0149497 a0     speed     :   0.4608869E-03

........................................................................
.............................. CYCLE   60 ..............................
........................................................................

 iter      E             dE          RMSdq      gap      omega  full diag
   1  -5198.7153179 -0.519872E+04  0.427E-04    4.08       0.0  T
   2  -5198.7153179 -0.410455E-08  0.255E-04    4.08       6.3  T
   3  -5198.7153179  0.143318E-07  0.543E-05    4.08      29.6  T
     SCC iter.                  ...        9 min, 56.892 sec
     gradient                   ...        4 min, 38.570 sec
 * total energy  : -5104.1287323 Eh     change    :  -0.2017331E-04 Eh
   gradient norm :     0.0015173 Eh/a0  converged?    E=F G=F D=F
   time step     :     0.8630678 fs     power     :   0.3003370E-09
   step length   :     0.0170565 a0     speed     :   0.4780344E-03

........................................................................
.............................. CYCLE   61 ..............................
........................................................................

 iter      E             dE          RMSdq      gap      omega  full diag
   1  -5198.7162178 -0.519872E+04  0.465E-04    4.08       0.0  T
   2  -5198.7162178 -0.486034E-08  0.275E-04    4.08       5.8  T
   3  -5198.7162177  0.252994E-07  0.705E-05    4.08      22.8  T
     SCC iter.                  ...        9 min, 54.606 sec
     gradient                   ...        4 min, 38.849 sec
 * total energy  : -5104.1287557 Eh     change    :  -0.2337799E-04 Eh
   gradient norm :     0.0014394 Eh/a0  converged?    E=F G=F D=F
   time step     :     0.9493746 fs     power     :   0.3201027E-09
   step length   :     0.0194215 a0     speed     :   0.4948338E-03

........................................................................
.............................. CYCLE   62 ..............................
........................................................................

 iter      E             dE          RMSdq      gap      omega  full diag
   1  -5198.7168455 -0.519872E+04  0.538E-04    4.08       0.0  T
   2  -5198.7168455 -0.700038E-08  0.322E-04    4.08       5.0  T
   3  -5198.7168454  0.401860E-07  0.845E-05    4.08      19.0  T
     SCC iter.                  ...        9 min, 58.029 sec
     gradient                   ...        4 min, 36.637 sec
 * total energy  : -5104.1287824 Eh     change    :  -0.2673233E-04 Eh
   gradient norm :     0.0013710 Eh/a0  converged?    E=F G=F D=F
   time step     :     1.0443120 fs     power     :   0.3265535E-09
   step length   :     0.0223156 a0     speed     :   0.5168846E-03

........................................................................
.............................. CYCLE   63 ..............................
........................................................................

 iter      E             dE          RMSdq      gap      omega  full diag
   1  -5198.7169067 -0.519872E+04  0.590E-04    4.08       0.0  T
   2  -5198.7169067 -0.780256E-08  0.350E-04    4.08       4.6  T
   3  -5198.7169067  0.274995E-07  0.773E-05    4.08      20.8  T
     SCC iter.                  ...        9 min, 54.451 sec
     gradient                   ...        4 min, 39.247 sec
 * total energy  : -5104.1288126 Eh     change    :  -0.3019821E-04 Eh
   gradient norm :     0.0014804 Eh/a0  converged?    E=F G=F D=F
   time step     :     1.1487432 fs     power     :   0.3382472E-09
   step length   :     0.0257174 a0     speed     :   0.5415261E-03

........................................................................
.............................. CYCLE   64 ..............................
........................................................................

 iter      E             dE          RMSdq      gap      omega  full diag
   1  -5198.7165243 -0.519872E+04  0.654E-04    4.08       0.0  T
   2  -5198.7165243 -0.104283E-07  0.390E-04    4.08       4.1  T
   3  -5198.7165243  0.526525E-07  0.101E-04    4.08      16.0  T
     SCC iter.                  ...        9 min, 59.117 sec
     gradient                   ...        4 min, 36.663 sec
 * total energy  : -5104.1288475 Eh     change    :  -0.3489739E-04 Eh
   gradient norm :     0.0013765 Eh/a0  converged?    E=F G=F D=F
   time step     :     1.2500000 fs     power     :   0.3581155E-09
   step length   :     0.0292472 a0     speed     :   0.5659646E-03

........................................................................
.............................. CYCLE   65 ..............................
........................................................................

 iter      E             dE          RMSdq      gap      omega  full diag
   1  -5198.7163415 -0.519872E+04  0.690E-04    4.08       0.0  T
   2  -5198.7163415 -0.137115E-07  0.414E-04    4.08       3.9  T
   3  -5198.7163414  0.799282E-07  0.122E-04    4.08      13.2  T
     SCC iter.                  ...        9 min, 57.214 sec
     gradient                   ...        4 min, 37.325 sec
 * total energy  : -5104.1288829 Eh     change    :  -0.3543252E-04 Eh
   gradient norm :     0.0014325 Eh/a0  converged?    E=F G=F D=F
   time step     :     1.2500000 fs     power     :   0.3612204E-09
   step length   :     0.0306352 a0     speed     :   0.5928243E-03

........................................................................
.............................. CYCLE   66 ..............................
........................................................................

 iter      E             dE          RMSdq      gap      omega  full diag
   1  -5198.7168428 -0.519872E+04  0.720E-04    4.08       0.0  T
   2  -5198.7168428 -0.900855E-08  0.425E-04    4.08       3.8  T
   3  -5198.7168428  0.471791E-07  0.100E-04    4.08      16.1  T
     SCC iter.                  ...        9 min, 53.449 sec
     gradient                   ...        4 min, 36.993 sec
 * total energy  : -5104.1289199 Eh     change    :  -0.3696137E-04 Eh
   gradient norm :     0.0014364 Eh/a0  converged?    E=F G=F D=F
   time step     :     1.2500000 fs     power     :   0.3804567E-09
   step length   :     0.0318242 a0     speed     :   0.6158331E-03

........................................................................
.............................. CYCLE   67 ..............................
........................................................................

 iter      E             dE          RMSdq      gap      omega  full diag
   1  -5198.7173632 -0.519872E+04  0.732E-04    4.08       0.0  T
   2  -5198.7173632 -0.147493E-07  0.435E-04    4.08       3.7  T
   3  -5198.7173631  0.482387E-07  0.105E-04    4.08      15.3  T
     SCC iter.                  ...        9 min, 59.702 sec
     gradient                   ...        4 min, 39.069 sec
 * total energy  : -5104.1289580 Eh     change    :  -0.3809944E-04 Eh
   gradient norm :     0.0013856 Eh/a0  converged?    E=F G=F D=F
   time step     :     1.2500000 fs     power     :   0.3861133E-09
   step length   :     0.0330371 a0     speed     :   0.6393041E-03
 * RMSD in coord.:     0.0052530 a0     energy gain  -0.4015108E-03 Eh

........................................................................
.............................. CYCLE   68 ..............................
........................................................................

 iter      E             dE          RMSdq      gap      omega  full diag
   1  -5198.7174187 -0.519872E+04  0.145E-04    4.08       0.0  T
   2  -5198.7174187 -0.356522E-09  0.850E-05    4.08      18.9  T
   3  -5198.7174187  0.250748E-08  0.229E-05    4.08      70.3  T
     SCC iter.                  ...        9 min, 57.867 sec
     gradient                   ...        4 min, 37.815 sec
 * total energy  : -5104.1289655 Eh     change    :  -0.7570647E-05 Eh
   gradient norm :     0.0013312 Eh/a0  converged?    E=F G=F D=F
   time step     :     0.2500000 fs     power     :   0.3979481E-09
   step length   :     0.0065517 a0     speed     :   0.6339132E-03

........................................................................
.............................. CYCLE   69 ..............................
........................................................................

 iter      E             dE          RMSdq      gap      omega  full diag
   1  -5198.7174294 -0.519872E+04  0.149E-04    4.08       0.0  T
   2  -5198.7174294 -0.136606E-08  0.884E-05    4.08      18.2  T
   3  -5198.7174294  0.199179E-08  0.274E-05    4.08      58.8  T
     SCC iter.                  ...        9 min, 54.310 sec
     gradient                   ...        4 min, 37.007 sec
 * total energy  : -5104.1289732 Eh     change    :  -0.7676923E-05 Eh
   gradient norm :     0.0012368 Eh/a0  converged?    E=F G=F D=F
   time step     :     0.2500000 fs     power     :   0.3986931E-09
   step length   :     0.0065376 a0     speed     :   0.6325442E-03

........................................................................
.............................. CYCLE   70 ..............................
........................................................................

 iter      E             dE          RMSdq      gap      omega  full diag
   1  -5198.7174235 -0.519872E+04  0.151E-04    4.08       0.0  T
   2  -5198.7174235 -0.121963E-08  0.900E-05    4.08      17.9  T
   3  -5198.7174235  0.282944E-08  0.277E-05    4.08      58.1  T
     SCC iter.                  ...        9 min, 58.077 sec
     gradient                   ...        4 min, 38.042 sec
 * total energy  : -5104.1289807 Eh     change    :  -0.7519735E-05 Eh
[...]
  3615   6 C     3616   6 C                                       1.5405789
  3617   6 C     3618   6 C                                       1.3883847
  3618   6 C     3619   6 C                                       1.3844683
  3619   6 C     3620   6 C                                       1.3832701
  3620   6 C     3621   6 C                                       1.3849546
  3617   6 C     3622   6 C                                       1.3903223
  3621   6 C     3622   6 C                                       1.3823703
  3616   6 C     3623   6 C                                       1.5352743
  3623   6 C     3624   6 C                                       1.5390222
  3625   6 C     3626   6 C                                       1.3890871
  3626   6 C     3627   6 C                                       1.3834665
  3627   6 C     3628   6 C                                       1.3840632
  3628   6 C     3629   6 C                                       1.3841512
  3625   6 C     3630   6 C                                       1.3899801
  3629   6 C     3630   6 C                                       1.3827182
  3624   6 C     3631   6 C                                       1.5343316
  3631   6 C     3632   6 C                                       1.5343863
  3633   6 C     3634   6 C                                       1.3920290
  3634   6 C     3635   6 C                                       1.3824437
  3635   6 C     3636   6 C                                       1.3851300
  3636   6 C     3637   6 C                                       1.3830939
  3633   6 C     3638   6 C                                       1.3880103
  3637   6 C     3638   6 C                                       1.3849081
  3639   6 C     3640   6 C                                       1.5374800
  3641   6 C     3642   6 C                                       1.3898633
  3642   6 C     3643   6 C                                       1.3828734
  3643   6 C     3644   6 C                                       1.3837597
  3644   6 C     3645   6 C                                       1.3837047
  3641   6 C     3646   6 C                                       1.3890962
  3645   6 C     3646   6 C                                       1.3833816
  3640   6 C     3647   6 C                                       1.5361038
  3647   6 C     3648   6 C                                       1.5353516
  3649   6 C     3650   6 C                                       1.3889065
  3650   6 C     3651   6 C                                       1.3838771
  3651   6 C     3652   6 C                                       1.3836324
  3652   6 C     3653   6 C                                       1.3841013
  3649   6 C     3654   6 C                                       1.3907881
  3653   6 C     3654   6 C                                       1.3832740
  3648   6 C     3655   6 C                                       1.5345245
  3655   6 C     3656   6 C                                       1.5346191
  3657   6 C     3658   6 C                                       1.3900774
  3658   6 C     3659   6 C                                       1.3828304
  3659   6 C     3660   6 C                                       1.3841174
  3660   6 C     3661   6 C                                       1.3838388
  3657   6 C     3662   6 C                                       1.3893358
  3661   6 C     3662   6 C                                       1.3839058
  3656   6 C     3663   6 C                                       1.5398944
  3663   6 C     3664   6 C                                       1.5401111
  3665   6 C     3666   6 C                                       1.3900559
  3666   6 C     3667   6 C                                       1.3833194
  3667   6 C     3668   6 C                                       1.3847073
  3668   6 C     3669   6 C                                       1.3833374
  3665   6 C     3670   6 C                                       1.3893918
  3669   6 C     3670   6 C                                       1.3837338
  3664   6 C     3671   6 C                                       1.5355834
  3673   6 C     3674   6 C                                       1.3899313
  3674   6 C     3675   6 C                                       1.3825971
  3675   6 C     3676   6 C                                       1.3845171
  3676   6 C     3677   6 C                                       1.3832978
  3673   6 C     3678   6 C                                       1.3880630
  3677   6 C     3678   6 C                                       1.3832781
  3672   6 C     3679   6 C                                       1.5343837
  3679   6 C     3680   6 C                                       1.5360797
  3681   6 C     3682   6 C                                       1.3894799
  3682   6 C     3683   6 C                                       1.3828811
  3683   6 C     3684   6 C                                       1.3841062
  3684   6 C     3685   6 C                                       1.3834636
  3681   6 C     3686   6 C                                       1.3893457
  3685   6 C     3686   6 C                                       1.3829873
  3680   6 C     3687   6 C                                       1.5347279
  3687   6 C     3688   6 C                                       1.5348537
  3549   6 C     3689   1 H                                       1.0951837
  3551   6 C     3690   1 H                                       1.0933426
  3551   6 C     3691   1 H                                       1.0935012
  3552   6 C     3692   1 H                                       1.0934317
  3559   6 C     3693   1 H                                       1.0916557
  3559   6 C     3694   1 H                                       1.0900954
  3560   6 C     3695   1 H                                       1.0964641
  3567   6 C     3696   1 H                                       1.0920381
  3567   6 C     3697   1 H                                       1.0913583
  3568   6 C     3698   1 H                                       1.0944841
  3575   6 C     3699   1 H                                       1.0916756
  3576   6 C     3700   1 H                                       1.0943965
  3583   6 C     3701   1 H                                       1.0926349
  3583   6 C     3702   1 H                                       1.0931740
  3584   6 C     3703   1 H                                       1.0940842
  3591   6 C     3704   1 H                                       1.0915396
  3591   6 C     3705   1 H                                       1.0910366
  3592   6 C     3706   1 H                                       1.0954090
  3599   6 C     3707   1 H                                       1.0888314
  3599   6 C     3708   1 H                                       1.0920154
  3600   6 C     3709   1 H                                       1.0948883
  3608   6 C     3710   1 H                                       1.0950098
  3615   6 C     3711   1 H                                       1.0914408
  3615   6 C     3712   1 H                                       1.0903946
  3616   6 C     3713   1 H                                       1.0949021
  3623   6 C     3714   1 H                                       1.0927603
  3623   6 C     3715   1 H                                       1.0915977
  3624   6 C     3716   1 H                                       1.0950280
  3631   6 C     3717   1 H                                       1.0923959
  3631   6 C     3718   1 H                                       1.0911482
  3632   6 C     3719   1 H                                       1.0952527
  3639   6 C     3720   1 H                                       1.0902038
  3639   6 C     3721   1 H                                       1.0924759
  3640   6 C     3722   1 H                                       1.0958228
  3647   6 C     3723   1 H                                       1.0920883
  3647   6 C     3724   1 H                                       1.0926773
  3648   6 C     3725   1 H                                       1.0959449
  3655   6 C     3726   1 H                                       1.0913755
  3655   6 C     3727   1 H                                       1.0920083
  3656   6 C     3728   1 H                                       1.0954471
  3663   6 C     3729   1 H                                       1.0917790
  3663   6 C     3730   1 H                                       1.0923956
  3664   6 C     3731   1 H                                       1.0958587
  3671   6 C     3732   1 H                                       1.0920959
  3671   6 C     3733   1 H                                       1.0918491
  3672   6 C     3734   1 H                                       1.0941301
  3679   6 C     3735   1 H                                       1.0912723
  3679   6 C     3736   1 H                                       1.0931368
  3543   6 C     3737   1 H                                       1.0788539
  3548   6 C     3738   1 H                                       1.0795441
  3547   6 C     3739   1 H                                       1.0794505
  3546   6 C     3740   1 H                                       1.0801694
  3545   6 C     3741   1 H                                       1.0818683
  3554   6 C     3742   1 H                                       1.0812538
  3555   6 C     3743   1 H                                       1.0806549
  3556   6 C     3744   1 H                                       1.0794050
  3557   6 C     3745   1 H                                       1.0798227
  3558   6 C     3746   1 H                                       1.0817241
  3562   6 C     3747   1 H                                       1.0808389
  3563   6 C     3748   1 H                                       1.0810412
  3564   6 C     3749   1 H                                       1.0802563
  3565   6 C     3750   1 H                                       1.0803240
  3566   6 C     3751   1 H                                       1.0813362
  3570   6 C     3752   1 H                                       1.0811851
  3571   6 C     3753   1 H                                       1.0802104
  3572   6 C     3754   1 H                                       1.0794464
  3573   6 C     3755   1 H                                       1.0796169
  3574   6 C     3756   1 H                                       1.0815293
  3575   6 C     3757   1 H                                       1.0909545
  3578   6 C     3758   1 H                                       1.0798455
  3579   6 C     3759   1 H                                       1.0799251
  3580   6 C     3760   1 H                                       1.0802535
  3581   6 C     3761   1 H                                       1.0807234
  3582   6 C     3762   1 H                                       1.0803994
  3586   6 C     3763   1 H                                       1.0798928
  3587   6 C     3764   1 H                                       1.0809050
  3588   6 C     3765   1 H                                       1.0797623
  3589   6 C     3766   1 H                                       1.0804631
  3590   6 C     3767   1 H                                       1.0800198
  3594   6 C     3768   1 H                                       1.0798905
  3595   6 C     3769   1 H                                       1.0795353
  3596   6 C     3770   1 H                                       1.0807364
  3597   6 C     3771   1 H                                       1.0805258
  3598   6 C     3772   1 H                                       1.0810874
  3602   6 C     3773   1 H                                       1.0804499
  3603   6 C     3774   1 H                                       1.0801018
  3604   6 C     3775   1 H                                       1.0806378
  3605   6 C     3776   1 H                                       1.0802545
  3606   6 C     3777   1 H                                       1.0809878
  3607   6 C     3778   1 H                                       1.0927692
  3607   6 C     3779   1 H                                       1.0933264
  3610   6 C     3780   1 H                                       1.0803746
  3611   6 C     3781   1 H                                       1.0805118
  3612   6 C     3782   1 H                                       1.0800063
  3613   6 C     3783   1 H                                       1.0810016
  3614   6 C     3784   1 H                                       1.0801244
  3618   6 C     3785   1 H                                       1.0815655
  3619   6 C     3786   1 H                                       1.0815131
  3620   6 C     3787   1 H                                       1.0801625
  3621   6 C     3788   1 H                                       1.0800480
  3622   6 C     3789   1 H                                       1.0794039
  3626   6 C     3790   1 H                                       1.0814003
  3627   6 C     3791   1 H                                       1.0805190
  3628   6 C     3792   1 H                                       1.0803089
  3629   6 C     3793   1 H                                       1.0801098
  3630   6 C     3794   1 H                                       1.0800198
  3634   6 C     3795   1 H                                       1.0812723
  3635   6 C     3796   1 H                                       1.0808456
  3636   6 C     3797   1 H                                       1.0804418
  3637   6 C     3798   1 H                                       1.0807928
  3638   6 C     3799   1 H                                       1.0779308
  3642   6 C     3800   1 H                                       1.0797763
  3643   6 C     3801   1 H                                       1.0799284
  3644   6 C     3802   1 H                                       1.0802807
  3645   6 C     3803   1 H                                       1.0802784
  3646   6 C     3804   1 H                                       1.0812623
  3650   6 C     3805   1 H                                       1.0812727
  3651   6 C     3806   1 H                                       1.0804633
  3652   6 C     3807   1 H                                       1.0791603
  3653   6 C     3808   1 H                                       1.0810502
  3654   6 C     3809   1 H                                       1.0811910
  3658   6 C     3810   1 H                                       1.0802006
  3659   6 C     3811   1 H                                       1.0788472
  3660   6 C     3812   1 H                                       1.0803004
  3661   6 C     3813   1 H                                       1.0807397
  3662   6 C     3814   1 H                                       1.0816625
  3666   6 C     3815   1 H                                       1.0791665
  3667   6 C     3816   1 H                                       1.0805241
  3668   6 C     3817   1 H                                       1.0793615
  3669   6 C     3818   1 H                                       1.0799864
  3670   6 C     3819   1 H                                       1.0820454
  3674   6 C     3820   1 H                                       1.0805456
  3675   6 C     3821   1 H                                       1.0806815
  3676   6 C     3822   1 H                                       1.0802118
  3677   6 C     3823   1 H                                       1.0806360
  3678   6 C     3824   1 H                                       1.0807232
  3686   6 C     3825   1 H                                       1.0808573
  3685   6 C     3826   1 H                                       1.0800628
  3684   6 C     3827   1 H                                       1.0788024
  3683   6 C     3828   1 H                                       1.0811592
  3682   6 C     3829   1 H                                       1.0808836
  3550   6 C     3830   1 H                                       1.0873331
  3550   6 C     3831   1 H                                       1.0880812
  3550   6 C     3832   1 H                                       1.0887161
  3680   6 C     3833   1 H                                       1.0954232
  3687   6 C     3834   1 H                                       1.0911500
  3687   6 C     3835   1 H                                       1.0927719
  3688   6 C     3836   6 C                                       1.5352998
  3837   6 C     3838   6 C                                       1.3889318
  3838   6 C     3839   6 C                                       1.3837667
  3839   6 C     3840   6 C                                       1.3838342
  3840   6 C     3841   6 C                                       1.3845651
  3837   6 C     3842   6 C                                       1.3898634
  3841   6 C     3842   6 C                                       1.3827159
  3838   6 C     3843   1 H                                       1.0810587
  3839   6 C     3844   1 H                                       1.0805308
  3840   6 C     3845   1 H                                       1.0801357
  3841   6 C     3846   1 H                                       1.0808555
  3842   6 C     3847   1 H                                       1.0794857
  3836   6 C     3848   6 C                                       1.5315150
  3836   6 C     3849   1 H                                       1.0917152
  3836   6 C     3850   1 H                                       1.0903676
  3851   6 C     3852   6 C                                       1.3901511
  3852   6 C     3853   6 C                                       1.3832134
  3853   6 C     3854   6 C                                       1.3853722
  3854   6 C     3855   6 C                                       1.3844242
  3851   6 C     3856   6 C                                       1.3883670
  3855   6 C     3856   6 C                                       1.3843470
  3852   6 C     3857   1 H                                       1.0797105
  3853   6 C     3858   1 H                                       1.0815003
  3854   6 C     3859   1 H                                       1.0805309
  3855   6 C     3860   1 H                                       1.0807894
  3856   6 C     3861   1 H                                       1.0812632
  3688   6 C     3862   1 H                                       1.0960433
  3848   6 C     3863   1 H                                       1.0923541
  3848   6 C     3864   1 H                                       1.0917741

 * 2 distinct bonds (by element types)

   Z      Z             #   av. dist./Å        max./Å        min./Å
   1 H    6 C        1944     1.0851040     1.0976231     1.0762617
   6 C    6 C        1861     1.4196528     1.5408485     1.3807040


optimized geometry written to: xtbopt.xyz


           -------------------------------------------------
          | TOTAL ENERGY            -5104.132364509329 Eh   |
          | GRADIENT NORM               0.000769785526 Eh/α |
          | HOMO-LUMO GAP               4.075894500287 eV   |
           -------------------------------------------------

------------------------------------------------------------------------
 * finished run on 2024/10/07 at 12:26:20.248     
------------------------------------------------------------------------
 total:
 * wall-time:     2 d, 15 h, 17 min, 59.040 sec
 *  cpu-time:    17 d,  7 h, 17 min, 50.452 sec
 * ratio c/w:     6.561 speedup
 SCF:
 * wall-time:     0 d,  0 h, 44 min, 50.563 sec
 *  cpu-time:     0 d,  5 h, 29 min, 47.364 sec
 * ratio c/w:     7.354 speedup
 ANC optimizer:
 * wall-time:     2 d, 14 h, 31 min, 57.939 sec
 *  cpu-time:    17 d,  1 h, 46 min, 30.740 sec
 * ratio c/w:     6.553 speedup

