3795
 energy: -5103.624681819328 gnorm: 0.000970734369 xtb: 6.6.1 (8d0f1dd)
C          105.44448353708337      120.38100184928396      118.11652731442112
C          104.35666109660112      121.04506343477992      118.91964837554488
C          105.93860861925289      121.27439118505647      116.98271222614672
C          104.79178839339134      121.58364961769291      116.02180726913979
H          106.33745013911485      122.20288387425620      117.39715224074727
H          106.73901424080849      120.75528254944072      116.45421556674223
C          105.29660253811485      122.28314757888251      114.76999285514268
H          104.29073165292998      120.65128409493421      115.75342715656633
H          104.08244471327109      122.22201462084628      116.54932341350077
C          104.25683843636656      122.82272923313506      113.80735993608218
H          105.92087640207853      123.13327368306497      115.05941286549411
H          105.93250498182194      121.60735025756350      114.19161077651881
N          102.97851126854950      122.81219200232729      114.19811088506241
O          103.44295400072204      120.20350952200735      119.34524880575373
O          104.31815931792735      122.23710734430497      119.16849396510375
H          102.71559162306839      120.65935150101487      119.85816862787784
H          105.05171480341174      119.44374359338529      117.71847991001253
H          106.27078428663941      120.15920943937833      118.79435732902843
C          101.92559980732361      123.42204463429528      113.41434562350067
H          102.76077006861995      122.64454112445684      115.16819462627079
C          100.62066682670169      122.63375804968463      113.45410049192999
H          101.74251950218087      124.43678472111355      113.79106488004528
H          102.29804084986858      123.48559992915425      112.39097579289368
C          100.73373006705987      121.25212598952577      112.81273266730739
H          100.28015950376549      122.53815770238529      114.48630618702565
H           99.87454112010423      123.21840266530782      112.91446659292458
C           99.35732907024486      120.62647053918445      112.59080044075228
H          101.24771825846250      121.34516237281011      111.85481966893980
H          101.33560444660245      120.60129249951633      113.44845380454375
C           99.44966889937173      119.24375040877671      111.95172256933944
H           98.83020853564646      120.55678115994601      113.54418629813826
H           98.76549046076009      121.27639660530077      111.94261749624106
C           98.07967086204951      118.61864202523394      111.69606895462042
H           99.97193071188771      119.31717267545650      110.99717380412768
H          100.02065619673736      118.56726194746760      112.58917131661390
N           97.35757712560772      118.38054921160023      112.92699834229757
H           97.45100819228965      119.28139986231999      111.09741593061517
H           98.20839892056067      117.66494111268074      111.17538624721885
C           96.17280432188672      118.94128071272426      113.21233513655397
H           97.79675161099595      117.76566530522608      113.59437865942812
O          104.60965868206333      123.23275933477814      112.70203398925814
C           95.60429025693925      118.59211877562917      114.57601785823660
C           95.99668834062851      119.66347801676559      115.60240850650989
H           94.51771771819610      118.57544153635088      114.47798186785310
H           95.93974765252767      117.60750824383798      114.90173435662113
C           95.11017526658455      119.59362066559318      116.84342582168257
H           97.04270779978273      119.53974478036794      115.88434320038883
H           95.89032524539250      120.64898900358301      115.14437819926179
C           95.34622843573511      120.76355871781816      117.80713271457384
H           94.06435870242595      119.61722961389097      116.52991852138132
H           95.27764216619872      118.65178279420012      117.37027284810796
C           96.63517926863706      120.60052777253179      118.58969998109680
H           95.36584112839279      121.69783649858307      117.24677357665537
H           94.52905025843964      120.79422560266771      118.53011864751279
N           97.68020749499682      121.26985199494273      118.10763330832476
C           98.98509772293657      121.24702825846677      118.73022961007237
H           97.57647771418648      121.83363239269654      117.26204795722457
O           95.59251350254787      119.69526330328473      112.44076330529907
C          100.11648142004563      121.37296274650157      117.71600722380374
H           99.06539148780898      122.07176991353830      119.45048743996082
H           99.07308060200958      120.31651524489965      119.29479229809392
C          100.06689762158369      120.34939703931083      116.58366742260786
H          100.09332159212677      122.37392691163122      117.28281836141059
H          101.05066656897307      121.27302130949123      118.26814530106647
C           99.94021554993905      118.91341235418390      117.08349296369786
H           99.22244968053911      120.58045267976604      115.93090031820185
H          100.98122513440964      120.45336416417487      115.99676623584395
C          100.11114356945086      117.88404120348511      115.96513903354004
H          100.68582661613658      118.73017963128525      117.85982302253923
H           98.95361701997953      118.78800417133472      117.53208801822461
C          101.56995626252926      117.57786019766483      115.64022755218880
N          102.22327556729144      116.86983131490406      116.72222681076980
H          101.61645116181725      116.97146008957270      114.72624270614583
H          102.13483408842178      118.49721481417635      115.46705866875352
C          103.50145041225176      117.06272572771719      117.05094159798904
H          101.67649480782913      116.19242392220131      117.24556315289058
O           96.68976779551313      119.89716358962261      119.60220467642361
C          104.01464683205785      116.19318249246339      118.18489013896371
C          103.93563899675310      116.88258516023302      119.55360365586012
H          103.43579161527143      115.27067351509329      118.21287703735511
H          105.06043387963480      115.95960882346800      117.97600723868568
C          102.50100755319122      117.11610358447612      120.01732170612033
H          104.45566667745611      116.26145740894060      120.28663753398486
H          104.45307264268293      117.84215623946571      119.50741352232455
C          102.43462749481090      117.72667408074378      121.42094551849667
H          102.02097094767838      117.81595106816697      119.33226022565294
H          101.93645906542068      116.18341741452055      119.99150676984554
C          102.92012197537085      116.79187376214927      122.50814366640979
H          103.04734767817737      118.62877375476430      121.44332324149366
H          101.39928589810117      117.98786759930596      121.63457426062668
N          102.03715622593984      115.86825385252105      122.89261215085790
C          102.32044951524531      114.91828458136116      123.95239338069493
H          101.08788568994575      115.89808181178982      122.53637578169761
H           99.62907276830042      116.95019999090178      116.25612092583822
H           99.62572183587694      118.25092905654276      115.05962181234750
O          104.22479097363129      117.86715418148924      116.46179695971077
O          104.04087710939189      116.88358866667014      123.01388038178034
C          101.09619351445623      114.05884336441447      124.23377908380832
H          103.17700135649768      114.30505442489125      123.65380438837656
H          102.61134803526588      115.46546290421817      124.85809901211783
C          101.28516067463983      113.10609153107866      125.41567894490217
H          100.25646227994469      114.72484123848552      124.44109569455921
H          100.84312721163766      113.48668903383621      123.33920234438604
C          102.18138722066935      111.90687657590559      125.10029525993589
H          101.68838571411332      113.66030233876670      126.26478941684168
H          100.30135533427975      112.73009587427829      125.70360908392894
C          102.14254699530593      110.85402362242063      126.21094683392009
H          101.83034403986207      111.44859139614157      124.17397914213571
H          103.21223899425379      112.23081051011725      124.95000530279597
C          103.05743703453952      111.17746777974898      127.39640654725395
H          101.11762315663519      110.75734375860456      126.57034210735993
H          102.43851076050751      109.88505524062495      125.80427006293530
N          104.38453777066997      110.62335792967896      127.22297244353388
H          103.17677485567386      112.25457307862037      127.52122282621932
H          102.63063572467603      110.76638725698899      128.31756479807075
C          105.52985473556633      111.31560165120150      127.33171806696866
H          104.43565707201545      109.62626593914041      127.07863521965140
C          106.77742709308407      110.45297008448688      127.22802714402731
C          107.04293968189106      109.92319905765507      125.81376690338060
H          107.63098262327627      111.04844279761119      127.55521372386646
H          106.66558238776146      109.60859386125657      127.91233376284534
C          108.07914944864994      108.79924904972820      125.85281891324183
H          106.11981631795193      109.54861554931486      125.36577241285960
H          107.41256024681299      110.73313896831355      125.18338806222438
C          108.63083906876554      108.45441844700635      124.46685990472649
H          108.91895573087616      109.11042533397259      126.47723554885779
H          107.63245829831567      107.90795234025578      126.29859494806563
C          107.53858398586009      108.05932949840158      123.49281414640674
H          109.16785279592673      109.31390439479134      124.07075055540392
H          109.32046300364622      107.61381923563748      124.56086195597494
N          107.25034934440845      108.99188602230588      122.58741470205422
C          106.29281881479663      108.82454919522604      121.51694263098702
H          107.78050443413831      109.85889576771996      122.59711271287755
O          105.56755561405600      112.52274720412400      127.52661701826003
C          105.66473933305103      110.15033452582003      121.11036471792099
H          106.79722004047028      108.39936712467517      120.64211741965558
H          105.53222017425045      108.11286546912348      121.85149298145888
C          104.69641060021821      110.70170845426016      122.15181684488843
H          106.45931353918780      110.87552839164279      120.92825531396041
H          105.14549167777025      109.98907594502650      120.16723687832692
C          103.96373805203949      111.95004226690790      121.66035742629332
H          103.96211772317930      109.93304132905099      122.40244619212919
H          105.24922058248426      110.94225219746046      123.06253380428910
C          103.06403805467424      111.65911498158296      120.46074533724617
H          103.34788972510161      112.33787635706084      122.47195224173835
H          104.69035937819976      112.72025118017579      121.39579696276888
C          102.12823621561905      112.81855083097270      120.14857498190973
H          103.67101415933318      111.45787972314810      119.57836627166242
H          102.46465467995671      110.76896247473901      120.66469010244791
N          101.37649715257493      112.54342239001780      118.94014666362862
H          101.43240571714833      112.98273253697522      120.98043456721463
H          102.69053188299094      113.74618965605737      120.00371349849824
O          106.97586086402677      106.96153698922900      123.53440545505562
C          100.90946489113320      113.49394748641488      118.12610483169517
H          101.34462382613995      111.58604277043952      118.61415417393064
C          100.16873412128307      112.96031195149871      116.91529306421974
C           99.75212411417925      114.09268947416166      115.98708919173923
H          100.79877286564894      112.23120094837007      116.40290183242416
H           99.28704953676214      112.42193227604584      117.27264985967709
C           98.96361946638658      113.59613785319867      114.78446262725984
H           99.14258440624025      114.79243975292296      116.56112978566334
H          100.64154399726152      114.62395425217345      115.64495296443731
C           98.41817448286952      114.77080703905393      113.96322943001276
H           99.60145960604096      112.96763271319270      114.15808123805331
H           98.13125601159892      112.97865886626990      115.12402384122666
C           97.76164854561709      114.22011740514347      112.71507142263616
H           97.67505367951966      115.30379302799874      114.55803435680413
H           99.22572951477490      115.45055213081388      113.69386578934540
N           98.48422648546233      114.36893343637418      111.60475752669984
O          101.04910196016301      114.69347536750428      118.34676388825582
C           98.09191545065018      113.82799433756432      110.32277484144940
H           99.32829769148410      114.93280389820480      111.65317911027293
C           97.72823296300491      114.91702497124993      109.31266787296579
H           98.91194690898877      113.21685431916227      109.93353624509923
H           97.22693178459333      113.18643376913833      110.50680815353813
C           98.95222188296408      115.67392279701677      108.80127505590332
H           97.21747988479812      114.44749768976352      108.47079474143743
H           97.02677510676422      115.61034792403142      109.78168115871577
C           98.55093270381479      116.79367010725396      107.84384597078092
H           99.50043749107289      116.09715265316397      109.64421945363912
H           99.61596736048874      114.97634293894826      108.28715512864730
C           99.76532843228834      117.46731342806021      107.20536352995303
H           97.91809937222938      116.38298975094274      107.05470148214189
H           97.95458121778654      117.52492109504722      108.39339409291880
C           99.37779434286875      118.69366199662385      106.38331295144093
H          100.47366473381318      117.77158142292835      107.97779493913065
H          100.27067478685218      116.75362841063941      106.55445786173304
N           99.05575972754158      119.80939508412186      107.24836516330649
H          100.20542418442325      119.01741970186042      105.74777193451690
H           98.52384759074006      118.45970475011177      105.73785875831325
C           99.40525524236728      121.07460011394467      106.98864945281480
H           98.52711966543204      119.59889279628021      108.08070331392238
O           96.67939409984130      113.63223869016495      112.75049086210031
C           99.04379739143246      122.07072542063892      108.07158838039719
C          100.22403028111817      122.28501703242078      109.03431241314840
H           98.77350641021776      123.00799992079276      107.58494044654962
H           98.17973126514309      121.71823823676215      108.63514032637623
C          101.52086780391608      122.69996023553759      108.33698226976031
H           99.94309265163751      123.04373124837288      109.76690022266222
H          100.40704060257282      121.35281859729919      109.57076857649612
C          101.40503431316385      124.04478455673186      107.60917548275602
H          102.31949305493519      122.76575208580833      109.07757469914621
H          101.80374495172747      121.92441257404700      107.62529379001124
C          102.40723807337193      124.17372752923895      106.48099006086994
H          100.42092914937857      124.14606155487175      107.15046910215275
H          101.55158798906702      124.87022983255895      108.30455169884829
N          102.22537296735878      123.29442532401934      105.49647574328138
C          103.00902030869403      123.26259837200017      104.28228663700979
H          101.42400531761511      122.67128683570209      105.54299250244962
O          100.00706817407203      121.39456240556227      105.96748648870098
C          103.13081556543422      121.85543937353341      103.70776544103391
H          102.54678058475091      123.91551992962836      103.53045054713149
H          104.00040265314263      123.65834370080366      104.51243582493598
C          101.80067387927238      121.34369744127497      103.15728609719903
H          103.86717599489869      121.89465022443072      102.90238031781256
H          103.51314593097997      121.18190208449586      104.47515815141604
C          101.94473243921618      120.08958224286044      102.29769344288705
H          101.11313641522568      121.13843948908492      103.97727538470471
H          101.35304139887070      122.12614819039990      102.53994428680321
C          102.50418479288321      118.88366327007908      103.05318555777841
H          100.95884427929984      119.82976229800062      101.90645110695398
H          102.58860093526286      120.30590145070340      101.44133352420160
C          102.30047557942623      117.61803159799764      102.23359747315013
H          103.56948784166262      119.02132977668843      103.24531721517003
H          101.99399856385190      118.78223595183762      104.01195483198873
N          102.97185128658563      116.47168121418818      102.81695522920836
H          101.23247714991830      117.38737176302591      102.14812047171206
H          102.67692223430106      117.76238356516075      101.21335026218659
C          103.04417492089922      115.30870759065846      102.16054147633116
H          103.52929684693770      116.60699825674988      103.64959274690852
O          103.28882948706809      125.03575594841986      106.48276142686925
C          103.77625901641304      114.21094542628825      102.89885609364231
C          104.40141622616163      113.19735806368800      101.94315291093248
H          104.52709691537741      114.67726130242691      103.53462170512121
H          103.04653810705612      113.70252813551822      103.53402979774131
C          104.98225129092688      111.98463041697515      102.66620346906002
H          103.63336064809012      112.86460997233046      101.24176055189156
H          105.19095649884824      113.68570937909631      101.36394838156401
C          106.09151065696919      112.39069025775154      103.63997305105153
H          104.18603814173473      111.46912050215599      103.20652969905939
H          105.38858537181092      111.29616233004754      101.92387741058357
C          106.69667160746019      111.18808534498712      104.33472470561404
H          106.87423974467414      112.91205044366617      103.08612175268685
H          105.68470964785008      113.05291084592538      104.40171709264904
N          107.41422947525332      110.41002902133299      103.52151093652600
O          102.52677666258201      115.14636086544839      101.05479150445662
C          108.00455487689540      109.15441513710242      103.91474633904566
H          107.54454916516315      110.71953372069933      102.56601683517128
C          109.51976540527581      109.22476836065218      104.11142250838222
H          107.53222144716386      108.86734483330136      104.85864243226780
H          107.77509948038276      108.41034306007863      103.14850245105613
C          110.02657490256435      107.88583130308419      104.64523781850204
H          110.00172369631561      109.46702540269764      103.16302595198830
H          109.74717620160888      110.02929855083244      104.81170846316070
C          111.43892826674576      107.94931595393852      105.22110009224997
H          109.35015642392143      107.55237872110405      105.43655655955386
H          109.98678224704913      107.13879382243154      103.85080310405124
C          111.82774080283131      106.60771313240099      105.84339745063600
H          112.14754597949062      108.22144587950419      104.43947429988222
H          111.47218984927099      108.72452041163800      105.99051227397787
C          112.96387987112607      106.73587641410393      106.85122770246953
H          110.96564045359239      106.19177660403525      106.36966706426131
H          112.10752237271331      105.89904989145984      105.06335165840234
N          113.21358552477284      105.45484555437829      107.47796493002552
H          113.89274714347530      107.05937403779248      106.37382677627458
H          112.68809819415593      107.47195706323024      107.61707922644203
C          114.41550214392186      105.05323298149683      107.88580292161966
H          112.40193165073961      104.86042537818535      107.63293648960233
O          106.51225794818899      110.95720021932689      105.52799730629165
C          114.46388508626833      103.65097704184929      108.46705615031897
C          115.04207086002879      103.67485313929120      109.88316265515475
H          113.46338296988273      103.21880351622150      108.47159292652388
H          115.10304127112128      103.04374331031774      107.82155275264617
C          114.11870257394489      104.42382445014596      110.83759851861736
H          115.20205277411470      102.65671395070201      110.24258080871203
H          116.01250861716755      104.17442793030393      109.86287460315161
C          114.69821342308570      104.52392392196322      112.24988335202325
H          113.94485865041095      105.43082322595272      110.45495441681433
H          113.15048676552135      103.91697628206470      110.88285060155427
C          116.09643984487437      105.11359836579113      112.23775225432276
H          114.05453078162543      105.17260687773057      112.84685880457097
H          114.74587773459207      103.53426716927525      112.70426102796812
N          116.14759895525920      106.38522478635241      111.83872514069184
C          117.37426207636072      107.11275715515529      111.59919070018917
H          115.26676992237050      106.85230183118759      111.64116856870437
O          115.41854881295454      105.76108763960494      107.79263435829358
C          117.52854969713665      107.47397164427620      110.11863653573556
H          117.38405389398275      108.01007030635699      112.22491355407904
H          118.19475615236352      106.46313029693052      111.90470113246408
C          118.96198517595083      107.83698085815520      109.73674683705168
H          117.20657661030107      106.61739871484593      109.52418283124105
H          116.87036928806195      108.30507593563583      109.87415496136636
C          119.45280050435255      109.13773288784586      110.37148491664453
H          119.63436327984890      107.02670667602987      110.02799441365350
H          119.01010428363050      107.92636787930222      108.65119848082627
C          120.82654243807620      109.53672757286614      109.82442820833511
H          118.73538502783948      109.93705525989385      110.17872981367979
H          119.52463945381542      108.99906700651940      111.45037788566354
C          120.75760590088457      110.30297436634976      108.50783321346915
H          121.34654360707277      110.16121785202708      110.55350935092615
H          121.42188256059831      108.63386132557646      109.68762977564816
N          120.38134433269985      111.68431050926978      108.74223819328147
H          121.73384251119813      110.28251189757991      108.00983133394631
H          120.02656143139512      109.86046174173258      107.82726883297124
C          120.01618890241582      112.54085605808365      107.78082970994468
H          120.53594559747204      112.04161486826587      109.67256555822777
O          117.08265210506580      104.46243418958106      112.58251762148659
C          119.86356811263231      113.97119591323832      108.26683708517348
C          121.23699829064782      114.62114263348178      108.47946192421331
H          119.31342714899979      114.54115698921193      107.51955452466902
H          119.29950504962072      113.98109506677993      109.20027312301004
C          121.90314284595372      114.94924725487908      107.14615372372256
H          121.11600888578256      115.53435648837413      109.06456840268805
H          121.88087492691668      113.94518083568811      109.04132735137543
C          123.33397008053765      115.47122403618856      107.32115685593935
H          121.93542760335853      114.04620137901507      106.53355357108718
H          121.30562393017544      115.69824933822332      106.62120320568228
C          123.88331737213888      115.83250818681998      105.96003624438244
H          123.34453679140802      116.35205030430288      107.96307977005486
H          123.95230058919994      114.69547814236812      107.77097151617902
N          124.37620777826680      114.80434650717156      105.27172257672596
O          119.83163183443348      112.19864026031945      106.61795309029522
C          124.86311243075298      114.95423519632629      103.91258961748073
H          124.33365535527008      113.86783363998511      105.67261643715995
C          125.47584374507609      113.67081658451026      103.37138200053168
H          124.03585085521925      115.26302748790836      103.26161173731576
H          125.60389478738834      115.76079626021152      103.90367132943692
C          124.43110842197072      112.57556661528680      103.15132487897331
H          125.95286265292623      113.91106324428378      102.41954225217749
H          126.25112076921413      113.32168160554991      104.05357404692137
C          124.95082286097296      111.42551153684742      102.28883908687212
H          124.09239205113055      112.18409345062037      104.11131670656189
H          123.56435802745361      113.01532486631750      102.65162042624196
C          126.07228948902862      110.62767042403848      102.94787650711078
H          124.12282514157182      110.74711937397042      102.07597239607864
H          125.30457206282271      111.81911644479504      101.33339694379787
C          126.43342480232077      109.38344423080029      102.12508337754697
H          126.96346988807922      111.25080021507551      103.04834676242612
H          125.75870015388813      110.31615004916885      103.94766691407544
N          127.50075006601782      108.56648730714723      102.67971624501669
H          125.55220417355136      108.74432084200592      102.02328414597805
H          126.74305849044953      109.68838207592670      101.12122418401150
H          128.34665514926286      109.11754823427282      102.77408129081697
H          127.24290031781707      108.24057900984360      103.60462188853153
O          123.84434084606319      116.98186457582126      105.50592163288607
C          129.35406971167478      106.58464574837579      108.37999059867698
C          128.00033956020178      105.91096633587340      108.46794191934494
C          129.97646444328848      106.72481046448253      109.77117140216167
C          129.23071084559851      107.77400803869000      110.59068580292714
H          129.92370494369806      105.75391257402997      110.26937290779631
H          131.02473474197998      107.00941651274607      109.67667623132081
C          129.63068852583376      107.77270298330815      112.06431049092139
H          129.42296892037965      108.76049393147504      110.16448991385813
H          128.15791477968719      107.57767276123491      110.52112150064310
C          128.61364724457471      108.49884148345217      112.93006692842992
H          129.68931272328751      106.74275825917721      112.42949292021308
H          130.61339583170374      108.22112814789601      112.21009277775353
N          129.05957344147839      108.83327023577871      114.14479591829456
O          127.06403977111493      106.53320989300829      107.77507158571031
O          127.79542366690579      104.89946433832203      109.10299385246532
H          126.17375743736692      106.07769422609775      107.87399863896937
H          129.24434510423600      107.55792451417692      107.90412710943058
H          129.98852730698889      105.95337143998381      107.75487426330699
C          128.26179073841445      109.53656135611298      115.12708311662665
H          130.04092216731027      108.71164752336200      114.35886969220732
C          129.00427009720499      110.74620315507113      115.68833688114999
H          127.33465919171952      109.83806506532653      114.63346855510878
H          128.01326094854906      108.84967775725040      115.94505717540437
C          129.28667928959177      111.79141988688852      114.61513112085014
H          128.40432171604829      111.18493997719068      116.48566335486780
H          129.95148307274428      110.41554719609820      116.11853187597514
C          130.20313317910802      112.91497872135420      115.09517524544371
H          129.76492731967275      111.29662534468149      113.76671017507637
H          128.34161832017850      112.21376513673421      114.26981678932772
C          129.53091104886252      113.89026247333345      116.06221439664455
H          131.08466463896849      112.48013086443437      115.57238498740448
H          130.54378433588158      113.47469123082077      114.22122072699480
C          130.43697383656882      115.08809881500355      116.31815091521520
H          128.59403499602149      114.25037243677204      115.63457799384119
H          129.29777212515390      113.39586606751122      117.00596618897752
N          129.70849292794705      116.20765041219049      116.88083225756957
H          131.25383740174888      114.82560184078031      116.99767988751798
H          130.88772923618600      115.40741841569432      115.37021992910152