3795
 energy: -5103.720813088607 gnorm: 0.000871873716 xtb: 6.6.1 (8d0f1dd)
C          107.66202091211629      111.84525019645044      132.55984147940720
C          106.34026827575261      111.62420213153480      131.85935061486555
C          108.76733021943338      112.04208896883419      131.51881119990631
C          109.06044333054541      110.74479717018920      130.76454630468660
H          108.45442927393798      112.81390585834059      130.81244710084155
H          109.67358173199240      112.38765479805882      132.01702152148093
C          109.90955879124613      110.98863080887951      129.51324627952141
H          109.57967265356878      110.05117910989179      131.42696543481748
H          108.11861057846262      110.28069934981171      130.45984191630356
C          111.08040727468949      111.90501919515475      129.81102925552872
H          110.28640325052885      110.03818220561496      129.13229450586036
H          109.31036366096595      111.46527059488724      128.73361101709017
N          111.98482251488694      111.41993209229076      130.65819228863870
O          105.75680222012109      110.49479538053235      132.18081622990127
O          105.88041614295071      112.41309631572759      131.05667389463929
H          104.88697299059413      110.33263542346431      131.65604759068287
H          107.87914806716141      110.99098312980242      133.19918596608613
H          107.56967290283555      112.74307839354286      133.17284883258878
C          113.14102933314821      112.17268623827296      131.09901142131946
H          111.83223863437446      110.51333078042549      131.09907720777565
C          114.24556556742124      111.23241418967994      131.56557834323289
H          113.47951555500781      112.79448279672874      130.26607114830577
H          112.85502304309101      112.84119281235986      131.92165992744097
C          115.52545663924687      111.98189981131846      131.94164232105683
H          113.87368089393782      110.67621036189153      132.42847187299836
H          114.46885642875898      110.51436414052296      130.77454135228444
C          116.40164709115061      112.28751364869768      130.72762776309091
H          115.26750986884761      112.90988260710236      132.45568973332317
H          116.10242216580434      111.36900166282713      132.63727581431709
C          117.64687647710009      113.08223427184228      131.12147465633217
H          116.70284282820543      111.34061069104729      130.27402183669659
H          115.82872159106643      112.83882057464113      129.98194070773721
C          118.70050856482257      113.12217076461074      130.01650712074854
H          117.36557802247756      114.10114257891355      131.39210884096559
H          118.10364937127166      112.61745352065650      131.99791732099334
N          118.26982376839639      113.88958340512605      128.87153710881202
H          119.61639782355823      113.59353890225577      130.38598596713479
H          118.93610451347230      112.09756075822064      129.70941494659888
C          119.08100885017127      114.72117412574794      128.20930149372020
H          117.35404848870212      113.68307940295075      128.48738586791146
O          111.16356250466181      113.01989451957284      129.29464455225991
C          118.39044144724130      115.52412820887761      127.12958838917309
C          117.59099724542709      116.66373610744262      127.76996932062590
H          119.13124513610410      115.95168938217063      126.45342145290435
H          117.71342667511317      114.87345195221627      126.57738660137852
C          116.91160307289836      117.52080695622188      126.70594538513903
H          116.83611493993331      116.25027962518644      128.44268463131678
H          118.26536865391225      117.28612172635607      128.36306723268220
C          116.12647327287296      118.67641037693167      127.33318923910375
H          117.67171713126338      117.91845643319270      126.03063086909071
H          116.22551212671185      116.89728309171498      126.13056241774467
C          115.35939828952026      119.42873313159279      126.26384729824495
H          115.42076555536015      118.28484460436863      128.06676882967557
H          116.81723965542517      119.35881059953827      127.83091221235776
N          114.20458805678108      118.85443255915111      125.92678948702884
C          113.23860990640827      119.44210909350979      125.02574598898003
H          113.85379367361980      118.10776763247301      126.52647569008921
O          120.27548607627936      114.84492955125674      128.48223321941728
C          111.87422802881547      119.56382403792259      125.70376581555175
H          113.61395660007481      120.42539893883568      124.73041893081388
H          113.15257852604142      118.81394825475930      124.13173413383633
C          110.85051465667674      120.24935334711513      124.80280588516599
H          111.52066540922645      118.56630322774932      125.97187589081750
H          111.98878857934342      120.12847094914733      126.63045298741893
C          109.44972439841071      120.22608636500981      125.41553886328902
H          111.15664608704387      121.28297393045189      124.63595848392238
H          110.83573657835670      119.74148537092489      123.83870904508333
C          108.46445579894684      121.14612245300070      124.69290211110389
H          109.06066490509443      119.20603598482290      125.40477939726459
H          109.51629758123210      120.54547950203531      126.45727814280120
C          108.19371722882140      120.69069363903006      123.26446128436925
N          107.24259246074936      121.54797179348535      122.59098525420536
H          109.12780616977770      120.68377390376608      122.69354851924599
H          107.77730093812285      119.68167371157278      123.26723491606170
C          106.29944135929485      121.09163498861908      121.76339027444962
H          107.36549855831224      122.55220519354775      122.66904569705562
O          115.79846367711519      120.44200015292411      125.71689445528368
C          105.53133289455859      122.19702876548106      121.06792269457996
C          104.27699781201514      121.73718744327884      120.33262278334252
H          105.28674326935780      122.94876120546898      121.81713804322548
H          106.22736331118470      122.64701521884119      120.35459044443864
C          103.87648986759598      122.71400619414236      119.22768878697684
H          104.46547353692091      120.75824496713373      119.88716547912983
H          103.46393101702151      121.62747217507334      121.05313645829989
C          103.53038379574681      124.10768466674730      119.75123850756827
H          104.70066893791517      122.81312063319074      118.51705303456072
H          103.01835029658166      122.31623346156731      118.67971454190847
C          103.53892531178020      125.14932773672409      118.64454214266421
H          102.56987198204342      124.10807721277541      120.26609597214490
H          104.28646936564657      124.42464396227295      120.47435718261201
N          102.66518593289592      126.13918051323796      118.80778297531090
C          102.54250295524700      127.27654415771109      117.91854549346232
H          102.05006011207905      126.14227212541408      119.62039662101141
H          107.52039356678183      121.16375226753910      125.24053491055675
H          108.86130762888958      122.16309345430480      124.67316580705081
O          106.12398536742971      119.89361797860543      121.54968966599742
O          104.32193269133710      125.08419492947719      117.69523512874039
C          101.95385717977615      128.48661098731483      118.63702864445838
H          103.53307439694734      127.51776425470200      117.52807758720650
H          101.89864104527221      126.99817807917420      117.07449689187901
C          102.96327678575565      129.23036225655886      119.51156179486173
H          101.56477700973288      129.17627955653134      117.88672637431294
H          101.12010717495451      128.15825519644721      119.25965133544369
C          103.51898476451937      128.37113203415859      120.64546509923800
H          103.78878498271953      129.59137279055892      118.89374418191728
H          102.46661898065236      130.10189180308910      119.94257694037174
C          104.24530508318503      129.20694593948227      121.69362521313261
H          102.70139926133569      127.83349268769673      121.12789269932948
H          104.21438803845756      127.63154020805183      120.24537813216041
C          104.92508229895931      128.31369766733224      122.72749644971221
H          104.99885688456740      129.84083044604617      121.22231816614077
H          103.53224139576702      129.85799046121670      122.20345288374034
N          105.46204318419517      129.09240805005606      123.82055698830277
H          104.20764930829193      127.60777322398474      123.15366124738053
H          105.73060669421152      127.73899658248234      122.25473440202639
C          105.12888736195524      128.86592340516239      125.09445781271515
H          106.02546389140278      129.89409082307279      123.55188107809853
C          105.68691833494040      129.84216998221859      126.11510017320539
C          107.17737878459249      130.16072152304153      125.95474048127090
H          105.09890833098723      130.76018385146205      126.05491250550369
H          105.50325685679501      129.39793611449335      127.09583244062141
C          107.77311220609491      130.58817662817489      127.29796518263136
H          107.70150532177530      129.27841059019588      125.58268990528246
H          107.31637146622184      130.95460385041173      125.21893880379439
C          109.24998172479968      130.97627788167199      127.21397031161908
H          107.22030131853278      131.45354041187306      127.66814649909185
H          107.63153992132517      129.78495902573209      128.02450836497815
C          110.17794674244936      129.94391151864284      126.60037374618963
H          109.36328036371873      131.88450859254826      126.61861381254607
H          109.62448466432978      131.19777026955674      128.21671662618323
N          109.93097660907647      128.66324139873339      126.89117011806307
C          110.67689824811313      127.55183608863075      126.33112297894445
H          109.19623585479384      128.43218303058720      127.54110426670357
O          104.41651132587755      127.92546643929811      125.44332171458161
C          109.88936016954278      126.25156183865222      126.45008288354505
H          110.88702756198010      127.78488473711988      125.28327304233260
H          111.63620931481941      127.45307642509229      126.85266351557982
C          108.59926630329809      126.25197951193151      125.62899757743364
H          110.52869289141481      125.43292056666468      126.11939127638314
H          109.64860023941846      126.07965202019827      127.50122635436762
C          107.74004775983825      125.02437558015457      125.92306347923174
H          108.01173680883458      127.14319825439324      125.85815485877330
H          108.83536352583378      126.28353912821377      124.56336261833968
C          106.39912405866458      125.08464138650939      125.19546120707095
H          108.27410654576337      124.12124844713647      125.62592564766820
H          107.55817155818995      124.96432180264827      126.99862839806588
C          105.51811800543497      123.88020263465481      125.53491089892394
H          105.86964994076543      125.99536754848431      125.48591967813994
H          106.56405996100648      125.12601753570438      124.11860881264678
N          104.11433030472061      124.16247234191930      125.32801961572827
H          105.76859230263759      123.01995608316416      124.91125457024910
H          105.65947652664133      123.60649616280041      126.58722167346733
O          111.11772146929695      130.29121113244480      125.88887011241387
C          103.31479504088831      123.49178433619285      124.48693098411303
H          103.76551564678689      125.00032998451286      125.76931177363484
C          101.87932663371870      123.99254150566094      124.45874386780562
C          101.77131634771270      125.37834769466335      123.81815516609967
H          101.29611085228926      123.26504581201793      123.89313310137898
H          101.49602834670024      124.02760032425914      125.48039943921195
C          100.32802544507051      125.88473900805943      123.73271267543579
H          102.35264542471666      126.09529844603560      124.40275747577462
H          102.20191174551562      125.35053210115422      122.81649289153033
C           99.47206755472305      125.15531203508441      122.69554689594456
H           99.85627623812697      125.79446144319962      124.71280129508685
H          100.35600209779983      126.94289129862861      123.46649462951568
C           99.94461037976450      125.41138530550967      121.27675324189576
H           99.48463198942201      124.07841721658940      122.87125278921440
H           98.43485447615366      125.48745282373557      122.77197540997602
N           99.27505738859972      124.76551541441249      120.32157080605724
O          103.68655380758761      122.53269562238616      123.82149998656868
C           99.64983388681956      124.91240549131065      118.92737381155577
H           98.44362082710224      124.21581792878615      120.52627832862859
C           98.57854246442317      124.38968813249329      117.98721957825913
H           99.83244184027457      125.97336354902326      118.72725762513937
H          100.58774207970403      124.37255146258582      118.75998246357607
C           98.97111460799081      124.60512699578651      116.52541705598857
H           98.41081392600931      123.33032662603233      118.18174429508115
H           97.64245709746828      124.91295428646191      118.18856263595380
C          100.25182617864886      123.88566124820663      116.08813379728427
H           98.14605003569478      124.26780861473962      115.89622454371687
H           99.09292768082449      125.67524357758288      116.34682145816731
C          100.25574400852899      122.39669002157774      116.43195222857641
H          100.33493987656689      123.98311595979756      115.00319133851268
H          101.12900398029001      124.36372483368065      116.52873953118977
C          101.32776536746577      121.64450106030384      115.65494696814675
H          100.42174358876125      122.24808427046908      117.50016294073363
H           99.28622285999579      121.96807700615219      116.18200860029155
N          101.16072765059363      120.21355043592347      115.82577996706020
H          101.25122490781995      121.88032073201340      114.58713940076611
H          102.32850934605977      121.94752278092791      115.98791476016852
C          101.81769130305841      119.31291237697195      115.09635743325008
H          100.51539628327659      119.90576388437303      116.54820805962834
O          100.89389736849257      126.15260957822741      121.01721252731002
C          101.42462846728469      117.86742854325071      115.33744902280989
C           99.95917217523487      117.59863505814627      114.98440517658456
H          102.07712324004540      117.23847669158042      114.72930976897059
H          101.58878893097611      117.63315805372235      116.38966078736634
C           99.63677866034801      117.97074071480738      113.53735683649319
H           99.74910935263361      116.53816216736141      115.14360637024505
H           99.31430826635629      118.16651768113945      115.65694981260428
C           98.21586600926310      117.54304053863193      113.15904227754530
H           99.73371649382165      119.05131459548967      113.41025526045595
H          100.34787160699238      117.48876685490032      112.86309121178543
C           97.80487235924667      118.11761737728688      111.81639083305019
H           98.16025535065819      116.45374105373394      113.12675369576803
H           97.51500837900997      117.90776219854791      113.91069140471151
N           98.32155456297417      117.50345982487185      110.75300330707519
C           98.01021297672938      117.88078571909988      109.39052361097662
H           98.96193412409343      116.71630638956285      110.86544576434332
O          102.68731994309556      119.61530595422553      114.28103743425487
C           99.23273792762764      117.73899811925224      108.49183555308561
H           97.19929173206188      117.24319458002259      109.01552560414918
H           97.64448233448694      118.91130828753269      109.39860192227721
C           98.90988986953862      118.13076962496234      107.05141702717472
H          100.03561829608132      118.36854454081738      108.87497953219197
H           99.57042153237215      116.70214952608114      108.52495902549630
C           99.99045605613148      117.70040831430697      106.06029549110815
H           97.96407272035121      117.66957282307563      106.75818052435312
H           98.78218105472833      119.21314893334183      106.99463576691660
C          101.36620449208651      118.26574521253001      106.40293963204608
H          100.04281672783792      116.60976353592339      106.03011734657974
H           99.70382850836431      118.04282411751149      105.06366403814214
C          102.36004273153549      118.13210057036881      105.25617915725365
H          101.28756638240350      119.32817676620249      106.63816356579616
H          101.76823128509288      117.75312809031463      107.27814715474733
N          102.64807741123214      116.75178962944265      104.93113425657133
H          101.97061142263516      118.60451180903948      104.35146431830340
H          103.28273933341141      118.64658623125072      105.53844623620361
C          102.82129844878243      116.29431302898348      103.68598193878024
H          102.77147274760267      116.10773981023497      105.70526774807773
O           97.05145863197281      119.08891597932733      111.72278720351085
C          103.05224495747083      114.79462353549459      103.62519854986004
C          101.71221730454316      114.05307084325138      103.61853647053680
H          103.62084363018019      114.55698530984296      102.72712305495749
H          103.62186774317539      114.48371475970757      104.50058987348102
C          101.90370699606581      112.53748475581540      103.68237080244779
H          101.13359912474533      114.37486890869215      104.48684683790559
H          101.14509825018510      114.32052048020566      102.72506407363376
C          102.38294735185389      111.94967070780621      102.35034581079047
H          102.63378761860100      112.30506484481091      104.46138603945549
H          100.96504252211406      112.05336142240810      103.95717998036496
C          102.87101845034660      110.52936744531775      102.56486637634370
H          101.55390399594064      111.93496984964558      101.64120610707062
H          103.19529532633061      112.54730102183561      101.94348881527685
N          104.19644837717630      110.37968433628812      102.43388214738917
O          102.78331762933900      117.00785309676671      102.68778036310552
C          104.87911760879851      109.12438052266261      102.66053866811446
H          104.75606932216321      111.16558068744020      102.13124278024367
C          105.91347973953219      108.81219262596711      101.58636023184287
H          105.39202736226392      109.15974665954960      103.62847658090119
H          104.10701914957691      108.35199665905623      102.70663310847254
C          105.30092120216337      108.56529223566029      100.20889284742806
H          106.61957455082337      109.64255534354871      101.53892009156513
H          106.45939043219072      107.92546359355381      101.90973789546841
C          106.25306589169838      107.82236361546727       99.26598105315186
H          104.39443292190266      107.96602684980611      100.32330241450053
H          104.99723459101797      109.51651693275187       99.76901701788134
C          107.65057576747850      108.43443746943760       99.16859022997527
H          106.36041464751096      106.79478547859249       99.61827262958680
H          105.80518496579380      107.78707341887323       98.27145562140657
C          107.64381773899265      109.85918289147229       98.62306324627603
H          108.12004437533707      108.44063322413407      100.15264869290843
H          108.26476255307956      107.81725749858134       98.51039000935100
N          108.96884069788376      110.43503898410965       98.71241403180849
H          107.30783190592723      109.86248480253272       97.58043223753654
H          106.97212703526540      110.49456130259183       99.20368869938544
C          109.21919357288752      111.64633122586287       99.19505336666471
H          109.75168320258422      109.82154744986623       98.50805099057392
O          102.11928110303096      109.60990875451377      102.87544550110559
C          110.67642241654359      112.03376677080361       99.24890063565512
C          111.26300502549662      112.19126748580449       97.83970664568955
H          110.75922875713616      112.98366502167842       99.77928832091949
H          111.22393073168742      111.26694616776801       99.79408661690728
C          112.42900519978411      113.17906727185833       97.83651466655166
H          111.58793172769633      111.21794809081527       97.46926030473631
H          110.49247091721709      112.56937318690980       97.16413410322390
C          113.55126990303231      112.74924188860039       98.78306897618840
H          112.82553846796603      113.27128085588265       96.82292720610099
H          112.05860701583129      114.15608212193311       98.15002647141961
C          114.69575283178037      113.73758124792411       98.75300549096369
H          113.16881556747686      112.69749152720573       99.80082421656772
H          113.92917184714794      111.77239399975900       98.48414180691091
N          114.44400958421211      114.90866335716508       99.34004564352153
C          115.43860332170060      115.96113261332778       99.39705542459292
H          113.54061381457771      115.07625948574112       99.77463254490162
O          108.33484060385528      112.43042404571628       99.56293868591676
C          115.22728512787438      116.86552897413883      100.60378018644693
H          116.41778345750271      115.47367148367255       99.44881113131537
H          115.40942547420063      116.53926076323015       98.46499404829358
C          116.44921596647406      117.73206746942945      100.91010281494026
H          114.37031274822333      117.51780076061540      100.43218889236837
H          115.00321752662821      116.23964169553369      101.46878290821149
C          116.81758907545694      118.65868023557064       99.75057924273462
H          116.21338252992318      118.33897797999681      101.78586004628413
H          117.29765745825674      117.09061346837606      101.15690841909429
C          117.65454461335730      119.86142047355439      100.18151984401295
H          117.34898357169179      118.09834451597906       98.98003168533761
H          115.89386564224402      119.04258310802700       99.31492936032481
C          119.01429228495724      119.50439948974841      100.77331567653111
H          117.81353474110280      120.51243845249590       99.31918433228580
H          117.09717863489978      120.43051351825635      100.92811989364452
N          119.69123105097195      120.72434021398496      101.16533583963381
H          118.89148008189674      118.86154746780711      101.65201217259009
H          119.63742166353676      118.97343593126946      100.04774447760070
C          121.00715022588452      120.92398692929612      101.10477841246707
H          119.08897896071029      121.52055838680147      101.35089764042407
O          115.77216524452493      113.48436826106675       98.20841256151947
C          121.43761165072961      122.32540676193695      101.49845891307780
C          122.69296466333937      122.31704865289606      102.37210336436692
H          121.63253536366589      122.88390772301507      100.58019088949524
H          120.61312932280455      122.81345441402372      102.01791583074085
C          122.91903348978552      123.67424703322840      103.02766549686100
H          122.58786917248339      121.55407169320860      103.14640201148785
H          123.55572370826665      122.04109735379424      101.76437574218529
C          124.16218318021882      123.68613006110790      103.91512922919445
H          123.01281744179845      124.44570162453412      102.26118821426959
H          122.04951255367831      123.93258691817861      103.63592142790317
C          124.19319618709272      124.89761226217944      104.81244984162180
H          124.18735185895906      122.79551259422084      104.55023783229008
H          125.06800665412240      123.67174922039052      103.30690186157412
N          125.26784605540391      125.06479291212092      105.57883520977724
O          121.81327118913607      120.04973995145573      100.78028929718462
C          126.34652112488513      124.10721131528810      105.73643650665878
H          125.27041314470587      125.86983879993346      106.20021304893747
C          127.24371385133399      124.47696601698152      106.91793824275180
H          125.90828667481711      123.11864354672326      105.90852685815980
H          126.93130422439903      124.05833307950107      104.81216734161005
C          127.84424745539886      123.23908361575130      107.58486615385134
H          128.04069360427135      125.14792307656373      106.59606249777271
H          126.64676031338176      125.00463429847277      107.66211892534223
C          128.55544291384535      123.59411151246680      108.88812243848521
H          127.03976257910726      122.53110668740372      107.79986712140942
H          128.53948001512407      122.74751894321845      106.90236296729896
C          128.97684231583131      122.36271058077945      109.68356937571993
H          129.43772443127369      124.20042501377165      108.68445368211862
H          127.88550106342777      124.18365616720361      109.51555827355413
C          129.61505822801428      122.75974337215531      111.01373154706465
H          128.10091663597916      121.74507919487685      109.89023224218967
H          129.68311339962975      121.76554566954552      109.10239516625015
N          130.86837597412011      123.46781976110451      110.79008049898358
H          128.93828222000252      123.43638445772159      111.54389876337356
H          129.74218189602237      121.85614283608561      111.63642440569528
H          131.53263629883770      122.84896322004337      110.33736100921554
H          131.26711884744191      123.75510153567100      111.67560795020830
O          123.24853688973633      125.69918606341086      104.84565214888754
C          105.69192034079168      104.19803267975254      122.45395443514303
C          105.63240669297355      105.44169912396315      123.30539117873427
C          104.84841123830725      104.32437638816994      121.18676969036025
C          105.41341893493173      105.40220121657840      120.26415121620289
H          104.83569452293490      103.36235800819044      120.67366233772674
H          103.82588044034705      104.58253793782791      121.46869584272595
C          104.54972643939409      105.64193139118579      119.02575829442964
H          105.50296754059131      106.32767181437487      120.83315564346145
H          106.41077904152756      105.09836426063590      119.93667526992758
C          105.06368851930534      104.90122443353532      117.80256457518792
H          103.51990817173964      105.35173551460593      119.22536481114241
H          104.54496031235647      106.70226256362129      118.76064522178989
N          104.20044175965653      104.74359233313309      116.79795583690063
O          106.65646715277215      105.55550561968887      124.13446329838419
O          104.73489944861751      106.25540067767614      123.26984719398821
H          106.56416823173491      106.37957086082358      124.71494589725981
H          105.32151004321260      103.37125154950485      123.06528330319026
H          106.73393997535644      103.98429832331487      122.21487913141114
C          102.92003506543668      105.40598891860964      116.65983843819251
H          104.56026302613603      104.29371602311268      115.95595228534195
C          102.19522985966988      104.93595530549828      115.40177613258668
H          102.29446996363392      105.20148349223214      117.53355174580165
H          103.07778709533154      106.48921355171838      116.60557504255129
C          101.12155456074920      105.93188140080161      114.95784753581792
H          102.92037666649937      104.80730494635456      114.59546562678962
H          101.74132491391728      103.96206461190710      115.59059550277536
C          101.72137165635820      107.16548035374733      114.28257296585821
H          100.46234175291468      105.43301553963799      114.24645703156679
H          100.51730570339052      106.23453942705473      115.81412062161007
C          100.66179083495872      107.99381177313207      113.55858994315496
H          102.22067911350022      107.80378879930146      115.01236766177055
H          102.46925231065259      106.83171915087436      113.56080306092095
C          101.25935280683105      109.21139581985102      112.86935667433133
H          100.16176097359921      107.37880803974627      112.80819301055513
H           99.91079889916882      108.33860691379023      114.27081916953479
N          102.20236597375606      108.82818960737778      111.83413261595354
H          100.46754214561201      109.81825754979643      112.41281961147499
H          101.77464056347739      109.84026233248299      113.60444830491009