3258
 energy: -3427.462685180916 gnorm: 0.000667272542 xtb: 6.6.1 (8d0f1dd)
C          117.30525688037487       93.83883077986648      127.36610751245391
C          116.83677054755115       95.20550144407630      126.88189220865577
C          115.32809895452347       95.24244648873179      126.64939748588323
C          114.85937439432763       96.60527898730584      126.14861694954200
C          113.35506369867073       96.64938005521006      125.89311083887206
C          112.92766606907891       97.96744504360083      125.25319000273051
C          111.42041681591697       98.03826579088746      125.01835719012530
C          111.03312592190969       99.22497027847685      124.13941438974031
C          109.52450119555668       99.32051991312518      123.92710905147136
C          109.15880605116257      100.36883300600040      122.87938293267310
C          107.65035837237147      100.47926498800039      122.67760556576354
C          107.28735767971190      101.42549650115404      121.53626055729207
C          105.78102018278484      101.47922039842430      121.30069603646676
C          105.39908578846460      102.38821086369522      120.13542933796403
C          103.91481905180048      102.27693355442149      119.79840554137489
C          103.49292274493429      103.22432632452016      118.67912734448778
C          102.04208882731352      102.99944866256735      118.26026276949533
C          101.58007307709239      104.01847709133436      117.22326302489380
C          100.13413974490480      103.79473567544427      116.78767806058806
C           99.66151519235071      104.87513260679331      115.81832809463899
C           98.19717311069044      104.70692875738168      115.41820594555756
C           97.70744190978870      105.89801110582668      114.59874533307902
C           96.23750781152776      105.80377444344872      114.18777767753731
C           96.00391957522109      104.89079863446115      112.98627117833570
C           94.53463379109229      104.88129720222067      112.57141845630814
C           94.25158072961659      104.05720767867076      111.31405274109413
C           94.95593703520399      104.54724433890483      110.04724177871515
C           94.67360253087632      106.00971835698945      109.71092011290182
C           95.18233591712797      106.37527421563715      108.31786478426959
C           95.07414192499205      107.86787229408726      108.00251983369286
C           95.96001718636859      108.77271479673806      108.86189414480093
C           97.44910510436929      108.46977810118005      108.71564915846952
C           98.31716968220636      109.46433324506380      109.48011021815802
C           99.81747657510128      109.22310884566637      109.30839069769742
C          100.33526140775791      107.99439024078683      110.05389244937174
C          101.85938836221052      107.91526229479253      110.00488620836492
C          102.43343725837885      106.74338969062950      110.80032027167148
C          103.95935775392444      106.79352683816363      110.81820234889005
C          104.61523867070547      105.70235618396192      111.66240576388219
C          106.11371156407957      105.96274075742105      111.79987919194724
C          106.86424955740320      104.91261357885729      112.61596698704952
C          108.32851602870200      105.31230984007065      112.79673035188414
C          109.09425570020760      104.43295019654465      113.78375440245553
C          110.52321165278767      104.93969338115890      113.98426878292317
C          111.23661747221321      104.29389343093654      115.17048370751284
C          112.65947130293652      104.82731435076199      115.33134541555495
C          113.33594817663604      104.35264292579726      116.61664532013266
C          114.74438236333515      104.93071216495694      116.75031925949074
C          115.44592371551232      104.58448150642991      118.06522956029458
C          115.81486829249550      103.10758316660734      118.18515770310405
C          116.59729709584997      102.77177443232026      119.45590798651486
C          118.06592597281049      103.18331213073431      119.41148460761789
C          118.79589680231170      102.81003422869745      120.70066294982891
C          120.29372602751236      103.11237209990135      120.65641482579869
C          120.60972978403863      104.60549145794964      120.64056460425269
C          122.11504092993391      104.87153833093222      120.62139486794237
C          122.47084829581100      106.28196428714955      120.15025839816127
C          121.91488152800754      107.38501351377300      121.04734442887222
C          122.24627088304327      108.77007708719262      120.49751415246106
C          121.80847185681561      109.91067871746122      121.41649206978646
C          120.30870446244364      109.90928230333751      121.71391531136075
C          119.80890177843524      111.24689241995797      122.25793567581202
C          120.45073679586757      111.62707635963312      123.58988696924999
C          119.84933587424125      112.88889934734200      124.20853164390840
C          120.07286866882158      114.13553418635098      123.35566154358143
C          119.63506356525320      115.41090296161551      124.07081384407617
C          119.69933134090765      116.62440033140886      123.14670544861512
C          119.19183911365467      117.89105070941045      123.83150666117763
C          119.06574796837288      119.09128411615046      122.88998142410864
C          118.16321398561823      118.85869159045789      121.67501176187808
C          116.78126651888032      118.31941871537758      122.03509770500641
C          115.90253748900311      118.15135211640275      120.79991823145228
C          114.53724635882109      117.53808350857787      121.11242845407575
C          114.56579832696940      116.08914927678407      121.60544289214938
C          115.22578630934829      115.12711217449787      120.61986805425514
C          114.94173238078099      113.66397111169326      120.95335409673335
C          115.64779211423480      112.72182106746330      119.98232447770660
C          115.22240648340988      111.26276702053994      120.13210904310536
C          115.98359006631549      110.38032779413444      119.14553398709673
C          115.40495934992811      108.97970498433172      118.96110354844063
C          115.46204127033130      108.08549254311674      120.19736126697724
C          116.88359614071928      107.86567577005897      120.72224835649266
C          117.05931623200000      106.51030178144647      121.40670913733805
C          116.09017124599205      106.27185886722614      122.56015621105870
C          116.28968443775365      104.88993460888871      123.17686657401717
C          115.31340712121177      104.58494332182141      124.31226691864339
C          113.84726970117664      104.48585514786092      123.88749226110602
C          113.55077199839906      103.25142544256950      123.04078540465282
C          112.09812650203341      103.17449583510283      122.57162710202711
C          111.78960047239208      104.12828727849684      121.41990068106199
C          110.31926841420106      104.06999280105052      121.01491909800976
C          110.01752976014633      104.92545175729066      119.78723174500659
C          108.52731964694020      104.94940872580189      119.45806159829306
C          108.23019421427355      105.71500720871428      118.17171540488157
C          106.74011489879243      105.72915843185429      117.84019115621196
C          106.46422375493144      106.37749012015871      116.48541325968084
C          105.02171166403778      106.19948737363677      116.01209423490971
C          103.98541097974413      107.02289831337129      116.77558947833535
C          104.11618012829324      108.53687682635864      116.60551715999510
C          104.06699716968987      109.03168551358814      115.15843735796280
C          102.82488861661456      108.61297394117564      114.37217161728537
C          101.52768793238070      109.16138861332205      114.95924484953133
C          100.33414365944063      108.93011181752559      114.03641055983543
C           99.06654627092435      109.59894511761586      114.56435744973855
C           97.94659000597912      109.65064094468863      113.52823195172134
C           96.67399784970075      110.26809897294417      114.10333906971046
C           95.55358347963752      110.44244898515156      113.07594645595320
C           95.86729609511364      111.49586929189543      112.01307959053470
C           94.62306962261202      111.90283026471853      111.22517028456946
C           94.92742977835663      112.81512876099228      110.03510206654670
C           95.65647796965682      114.09963134362566      110.42498150882714
C           95.72274377455715      115.10845227592004      109.27903120002581
C           96.66233866464459      116.26324406363773      109.61147790043455
C           96.73844846681799      117.32412942667339      108.51711697787722
C           97.72091881537605      118.42901393676748      108.89886903475033
C           97.78969638869901      119.55579132883760      107.87163064025690
C           98.74070197484684      120.66369744933669      108.31972361976840
C           98.75767566411950      121.84840065000108      107.35683814948231
C           99.67593591847424      122.96709820615578      107.84374753154398
C           99.64538784418075      124.18194849605268      106.92478909295777
H           99.37213427577618      123.26857869207119      108.84915209486533
H          100.69869408274853      122.58971700388669      107.90824362124344
H           99.08580472138452      121.51107198108173      106.37015987145759
H           97.74209949337762      122.23836429623405      107.24882332501625
H           98.43916158047425      121.01367316653523      109.31052310676222
H           99.75045995003731      120.25554385954629      108.41240176108214
H           98.12089784691102      119.15722833976449      106.90945997421264
H           96.79044251272289      119.97542047579581      107.72761677010287
H           97.42525012301248      118.84770638868427      109.86429698935545
H           98.71584325975861      117.99501580543127      109.02361608404009
H           97.05243080036202      116.86165180353231      107.57826681089620
H           95.74728101944048      117.75573777538948      108.35574913782089
H           96.33549213839794      116.73465857575623      110.54158661623704
H           97.66447106205503      115.86319433607326      109.78200349881617
H           96.07428490079378      114.60650433602507      108.37486570807428
H           94.72231103719486      115.49895230494003      109.07780862878583
H           95.15319500632334      114.55971608042991      111.27939576798239
H           96.67486059959000      113.85696514526082      110.73386282996186
H           95.53448853206000      112.26819831777891      109.30949815168302
H           93.98465417217264      113.07192490707304      109.54450898152210
H           94.12625614116588      111.00227973293582      110.85412322149324
H           93.92362588442280      112.40922686722361      111.89633777686277
H           96.28358028889838      112.37503257240982      112.50799248352178
H           96.61571615164125      111.11321335723480      111.31865232589195
H           95.34739173834095      109.48363863858356      112.59328459395554
H           94.64508254738870      110.74198138828693      113.60648677777944
H           96.31030337739014      109.63399317969628      114.91750217624180
H           96.91228007395445      111.24526130644296      114.53297485169783
H           98.28283866779748      110.24686743048740      112.67854103351853
H           97.73030728074455      108.64153762675116      113.16972048466808
H           98.71848760835459      109.06632252357382      115.45204275001946
H           99.30375787584927      110.62087891533596      114.87323101302300
H          100.57034426335225      109.33352864937842      113.04908227083781
H          100.16071711394939      107.85743531621972      113.92159434099362
H          101.32911858985842      108.69010233457860      115.92368676879192
H          101.64247850883902      110.23588391631401      115.12767327941908
H          102.92812810582420      108.98429125273964      113.34858300525242
H          102.76733988775806      107.52483306425739      114.31478737502542
H          104.11899463305512      110.12420883922212      115.17270734304456
H          104.95219861354254      108.67557512006003      114.62837513035852
H          103.31576943082955      109.01340059719190      117.17646755328171
H          105.06036947461719      108.86809434701992      117.04392105427058
H          102.99210408818499      106.71232832606546      116.44435740738354
H          104.05405613706074      106.78750488261402      117.84054564825060
H          104.96508871585614      106.45295014279866      114.95199596648411
H          104.75209111041171      105.14365353916624      116.10852432345131
H          106.71560471716046      107.43866847130930      116.52931923204991
H          107.12424814617989      105.91897684313487      115.74419280660861
H          106.36921689744393      104.70044360848338      117.82752492895602
H          106.20315235701277      106.26227345886201      118.62760136896725
H          108.59284655655664      106.74226463444101      118.26406065280648
H          108.77654426197370      105.24857718216636      117.34673662912189
H          108.16608732295846      103.92265998365191      119.35644563788750
H          107.98176613788328      105.40686289782695      120.28725549856397
H          110.36555688328572      105.94762174449815      119.95893550562279
H          110.57186999252561      104.53178823676710      118.93032330199482
H          110.04330797462396      103.03284592067942      120.80805836566360
H          109.70375991206166      104.41016773077473      121.85191595024163
H          112.04131696343497      105.15193848564303      121.70607905815409
H          112.41372350253943      103.86589176980009      120.56070344273991
H          111.88510311098842      102.15403202061944      122.24438198406351
H          111.43435053209103      103.39273160215228      123.41262959691450
H          114.19817661972785      103.24462431474736      122.16227313681658
H          113.78058242408625      102.36040291307168      123.63126137963690
H          113.22716300775846      104.44801815493253      124.78714538620974
H          113.56591138497572      105.38635482255394      123.34244426064035
H          115.60546813235172      103.64320597575649      124.78529320596128
H          115.40886935612758      105.36860941588940      125.06732836487168
H          116.19393618927543      104.13129745261089      122.39788109870064
H          117.30905425222382      104.81988761493959      123.56739575861131
H          116.22968989919801      107.03784051281906      123.32568660468603
H          115.06992873921226      106.35643472411029      122.18645614373918
H          116.91755998121086      105.72213431595537      120.66463828868460
H          118.08558611518006      106.42948830905240      121.77662654170872
H          117.58536640374652      107.91230868264903      119.88516892141760
H          117.15144567290812      108.66473530616750      121.41785640200096
H          114.83545706749219      108.51007607197589      120.98384609282398
H          115.03365435848079      107.11940436277416      119.92044958194951
H          114.36394196902108      109.06672153989550      118.64176185843814
H          115.95359059911128      108.48562881404470      118.15339867412801
H          115.96739058804562      110.87307925135146      118.16909424910780
H          117.02619046009097      110.31078809858494      119.45963889001750
H          115.40873194508390      110.93118051829751      121.15578284507924
H          114.14942764981485      111.17979704897405      119.94444769369770
H          115.43008674821199      113.04437452900828      118.96009306457356
H          116.72893423837138      112.79747114319038      120.12614200378367
H          115.26670776758387      113.44881536438244      121.97402037223719
H          113.86393606990927      113.49039517457483      120.90759824536373
H          114.85129635644763      115.33836301710701      119.61498951519079
H          116.30604843800029      115.28752151996693      120.61237020674638
H          115.07158999757756      116.02871102371041      122.57135787271557
H          113.53122514209868      115.77134447149778      121.76513991435941
H          114.03699756542011      118.15496063557156      121.86448883467784
H          113.93138090806758      117.57546178313765      120.20558028071133
H          115.74588075709202      119.13116737799301      120.33967373173104
H          116.42413955664124      117.53184282613219      120.06796995086655
H          116.88890557347678      117.35184932730388      122.52327689995444
H          116.29581455812668      118.99964143433219      122.73989912637204
H          118.05004112732813      119.80824690135938      121.14467708796352
H          118.64780333410543      118.16457231984003      120.98493376547746
H          118.67342483938306      119.93411538319380      123.46528205898078
H          120.06010547185647      119.37258017096943      122.53346117263794
H          118.22046897496048      117.68780900046440      124.28672184782808
H          119.87510628361863      118.15679515163953      124.64246594382051
H          120.72709884127742      116.77718350982862      122.80875325967831
H          119.09071000577322      116.41355785784972      122.26663096669614
H          118.60767435226474      115.28684366402830      124.42400101411036
H          120.26487988577611      115.57807553282582      124.94804765493055
H          121.13119993360270      114.21251966346566      123.09426631163353
H          119.50628935431210      114.04578965904967      122.42708587873679
H          118.77610534127065      112.74492701014883      124.35855800836292
H          120.30040106661906      113.04727203544560      125.19207107671782
H          120.32481024596029      110.79733376240934      124.29023176167540
H          121.52224848879769      111.78189012348010      123.44970074048321
H          120.01480082539467      112.02530803210057      121.52044785444549
H          118.72517170019181      111.19218818123838      122.39088121060702
H          119.76425855031454      109.68833767117262      120.79252326228440
H          120.07838875885719      109.12215422245605      122.43337848918871
H          122.36631504198735      109.84569954932793      122.35312567572943
H          122.07421653047319      110.85809091300784      120.93885700577835
H          123.32658448521680      108.84395386055212      120.34291949981032
H          121.76921716954108      108.88855815311874      119.52209280713694
H          120.83224454381448      107.28032557336562      121.11728105957344
H          122.32892168392459      107.28042902919329      122.05352589937742
H          123.55982660074663      106.37517436258754      120.10542436451719
H          122.09055539892296      106.42267881619712      119.13549914304315
H          122.53089064855432      104.70081385517355      121.61784140371300
H          122.58781357487412      104.15713206516894      119.94190247058351
H          120.16025463240766      105.06050591202691      119.75708268637544
H          120.16025104686314      105.07300775459161      121.51877439530134
H          120.77470822248831      102.65811524177622      121.52751875170449
H          120.72667046872060      102.64679470296932      119.76798038067295
H          118.34501234922550      103.34043483611684      121.54216136333871
H          118.66466083792551      101.73981901851518      120.88146209437046
H          118.55101771028009      102.68118548153369      118.57125062631998
H          118.14310113041613      104.25794998149433      119.24581060890995
H          116.11126010261584      103.24610591454109      120.31172292186538
H          116.55261543891926      101.69316056760087      119.61691531206424
H          114.89835511277064      102.51397417571640      118.18419913201672
H          116.40586957194058      102.81138849499091      117.31568647666083
H          116.35438577768930      105.18785731980920      118.13647407985161
H          114.79912977533003      104.86160504204079      118.90218879230432
H          115.35550691698866      104.57901590154130      115.91639717135742
H          114.67704092044617      106.01951051198091      116.67140462557298
H          112.73532074081777      104.66518288787130      117.47508821023419
H          113.37449158201413      103.26114601009157      116.62295760712357
H          113.25938558138017      104.51677355049890      114.47110727264624
H          112.63045474859780      105.92006789663513      115.33185160592238
H          110.67093045409116      104.49767915130091      116.08364274987132
H          111.26415936548283      103.20905398687820      115.04102932384305
H          111.10285689429098      104.76403130586553      113.07457512233771
H          110.49220963906396      106.02002380660323      114.14721009564589
H          108.57341742937686      104.43376634833908      114.74477573302759
H          109.11116874726827      103.40000101680424      113.42635385882922
H          108.82994898636586      105.28945829631483      111.82599269064734
H          108.36273189378460      106.34339420247787      113.15748921726845
H          106.39135755353651      104.81241434209855      113.59480693354705
H          106.80223236880950      103.94144075843388      112.11949652811269
H          106.55641829137082      106.02730918681945      110.80272817992548
H          106.25118476094997      106.93594613533753      112.27629266952849
H          104.15917559979621      105.68536426854027      112.65491209227933
H          104.44440530841219      104.72506305605501      111.20558401738121
H          104.33048856417020      106.72074280783679      109.79327928385075
H          104.26959106168881      107.76739721680552      111.20616868086229
H          102.05803799479224      106.78810880895234      111.82590774121412
H          102.09819736564994      105.79906829887327      110.36484977274820
H          102.18261851686981      107.83649428002306      108.96422903476886
H          102.27181235575978      108.84645067548772      110.40321161367605
H          100.00954867524648      108.04221988200186      111.09589315222452
H           99.90968813853216      107.08889279281431      109.61746267930658
H          100.04878916294780      109.12469237664203      108.24494751577730
H          100.35295607179521      110.09989174788454      109.68171440627944
H           98.08317229690975      110.47366543589068      109.13142847904292
H           98.06819300286281      109.41360185480403      110.54224975467724
H           97.65515677829517      107.46370813796065      109.08140689352363
H           97.71078644192860      108.50496958461697      107.65684946519772
H           95.77940508562305      109.80810026388095      108.55972407741385
H           95.67153126514839      108.69279134741686      109.91202255632092
H           95.33990401459194      108.01809222979028      106.95269640666845
H           94.03219443342586      108.17841865919716      108.12160039668706
H           96.22136126263520      106.05672688577350      108.21799274121331
H           94.60323301653919      105.82292811723819      107.57305493845710
H           93.59690751537502      106.19508545042943      109.76471899634370
H           95.15797908865679      106.64622766360939      110.45107268020695
H           96.03336265673808      104.40318014142672      110.14980819899633
H           94.62638305615891      103.92364361556861      109.21321022743894
H           94.54971919612403      103.02092732726160      111.49666781299479
H           93.17153445928673      104.06191644760736      111.13927034610145
H           93.93906002314701      104.47191969289068      113.39262179952074
H           94.19771064941894      105.90801776404814      112.41349561257383
H           96.61601662922611      105.24944381002497      112.15731799382091
H           96.31905975221591      103.87221675505387      113.22219833771670
H           95.64376933899227      105.45484800969230      115.03665675501972
H           95.87889483759014      106.80490377530393      113.93178557262210
H           97.84664547873182      106.80110908696497      115.19748433713370
H           98.32460247648146      105.99723507221427      113.70267892700980
H           98.07564567962304      103.78273355526923      114.84944087192831
H           97.58537609651128      104.61895871058239      116.32043583101721
H           99.78972617008459      105.85318248257596      116.28914691705354
H          100.28635632541580      104.85662115517088      114.92258224973681
H          100.03821599013551      102.81158484802589      116.31896356242656
H           99.48845474991978      103.79712587142861      117.67061277939347
H          101.67294176989337      105.02013154415631      117.64860926801337
H          102.23309723351107      103.96652204961352      116.34954474611665
H          101.93514122824860      101.98990168252135      117.85430418522752
H          101.39783538195287      103.06644778845975      119.14163681662136
H          103.61762673880720      104.25755178228572      119.01174890865163
H          104.14341880563092      103.07448315385537      117.81485200807217
H          103.69589787819289      101.24844807786438      119.49876708530630
H          103.32328579822344      102.48958706276962      120.69329360734760
H          105.64168196878953      103.42420702113502      120.38311139377760
H          105.98671086037710      102.11198107014344      119.25701552223931
H          105.41930568895478      100.46778897422934      121.09557163665298
H          105.28224484246557      101.82470053091950      122.21032227744008
H          107.66012491608755      102.42793683001759      121.75772358184740
H          107.78032986863408      101.08525153266226      120.62237846822154
H          107.24420813672670       99.48689106697130      122.46148011114066
H          107.18135708626231      100.82378658186919      123.60341180066908
H          109.55939035961111      101.34025933802641      123.17702417890996
H          109.62635044230286      100.09741939519353      121.92920844489616
H          109.14386319955049       98.34637656177168      123.60675878736002
H          109.03528473957832       99.55950993175895      124.87532006026073
H          111.39796571350753      100.15153919047657      124.58850767178546
H          111.52160798057650       99.11606560733806      123.16737069990556
H          111.08832968826115       97.11524208581127      124.53513247358255
H          110.90379252689270       98.10477764699249      125.97929805835963
H          113.23670044553438       98.79976943097743      125.89023028740566
H          113.44389945951713       98.07458271083675      124.29580149295730
H          113.07849775681652       95.82535326116302      125.23044087242971
H          112.82064291946571       96.50757740948990      126.83575684819618
H          115.12089061250946       97.36946237022514      126.88487271856607
H          115.38725239747914       96.84461798419076      125.22188271613082
H          115.05936490641282       94.47797553767522      125.91602688030923
H          114.81165166752021       94.99972616114509      127.58157865105704
H          117.10717973105491       95.96451005576294      127.61986536678469
H          117.35012329393493       95.45395732896662      125.95046812565533
H          117.05414291213279       93.06937910882614      126.63859087386622
H          118.38276784979601       93.83237327923780      127.51373254701680
H          116.82750716524039       93.58270730728557      128.30943193303571
H          100.32193093174055      124.95233899373510      107.28787767009537
H           99.94853450891775      123.90965758432877      105.91574085451859
H           98.64212066635571      124.60055914406313      106.87646523438427
C          108.64339941892312      128.25779875518083      109.83835252839700
C          109.46877472865175      127.00635551173234      110.11224727343529
C          110.70878220621181      127.32305639398520      110.94590126983321
C          111.63939177775546      126.12413861392238      111.13425391017422
C          111.06884113764463      124.99000356566440      111.98641265577101
C          110.93012110484182      125.35261188863187      113.46370725421926
C          110.46148099458073      124.16440060868960      114.30084320797636
C          110.53238052481224      124.44154577480882      115.80173690260277
C          110.20121678878834      123.19878663479099      116.62566590641680
C          110.44559113683273      123.40653227739119      118.11996911529913
C          110.15864402945799      122.15952939074107      118.96212906071358
C          111.15360148725942      121.03250630980105      118.69590346769419
C          110.85421908140118      119.74500589783990      119.46786110252982
C          111.48621172982455      118.54766285403024      118.76204919281749
C          111.11003665860603      117.19062488717697      119.35074159158557
C          111.72367274916091      116.07362450969113      118.51030628477035
C          111.38093690223619      114.66765363890920      118.99005456480492
C          111.97768528889068      113.61825452509190      118.05402084334376
C          111.58838599540108      112.18845234510523      118.41624133044954
C          112.06946506853915      111.18707189309350      117.36778924494601
C          111.57555203469182      109.77134965944278      117.65546554415312