3795
 energy: -5103.714337796447 gnorm: 0.000899650838 xtb: 6.6.1 (8d0f1dd)
C          103.92188632665112      111.03598535332173      112.22676014776661
C          105.13144378502061      111.88069042479472      112.54447968422086
C          103.15193412222860      110.73002406597162      113.51659603281360
C          102.01974022428962      109.73223081120101      113.28668735666876
H          103.83889386553642      110.31129500239155      114.25626934685705
H          102.73475111885412      111.65264361983627      113.92195681579140
C          101.21107150008417      109.56897132994887      114.57498239635437
H          101.37023789426009      110.08873749624067      112.48496120070622
H          102.43583082190946      108.77105831100253      112.98035261411748
C          100.03185537653316      108.63249228013159      114.43173991304380
H          101.86420794109127      109.17396328972542      115.35452550015538
H          100.84539962733189      110.54403749161013      114.90073573519186
N          100.34595932499477      107.38825684673080      114.06075741981857
O          104.85190528055435      113.15634296941833      112.68023115298936
O          106.24763892928918      111.42454211244014      112.68534801808208
H          105.65912696029140      113.70915181168887      112.86645864375339
H          104.24597622697662      110.10494989369553      111.76043098060278
H          103.27962722572369      111.57792885057519      111.53536364475423
C           99.36709768024822      106.35029250300379      113.82337592248965
H          101.32377055016745      107.12621117306371      113.97798201921412
C           99.67381903645121      105.59430124959665      112.53180001720004
H           99.36076624693914      105.65285195025535      114.66880956212934
H           98.38682058810096      106.83039333440203      113.77085033057961
C           98.70264020483962      104.43903578518325      112.30073960299217
H           99.63428963587317      106.29106696351261      111.69324763580533
H          100.68714438129693      105.19295778278995      112.59473827704832
C           99.14268542852463      103.51073658097131      111.16743756815225
H           98.63684978943563      103.84941384312103      113.21751194396774
H           97.70641316249360      104.83015854039601      112.08794294838580
C           98.96577734031058      104.11961277850929      109.77764597808296
H          100.18734090541112      103.22978031839226      111.31881793262704
H           98.55233752415725      102.59288418028807      111.21554088579330
C           99.38674723376275      103.14764402218137      108.67065768558962
H           97.91611148635225      104.37677257023455      109.62862336195671
H           99.55760210160307      105.03117476607285      109.68145478466062
N          100.82645764522384      103.00657275746002      108.61316730444335
H           98.95655868176794      102.15985801594657      108.84963677864602
H           99.05129749183077      103.52046206647475      107.70001140809735
C          101.48523496741932      101.96147355614561      109.09107782141241
H          101.31354350911936      103.81821722374670      108.23501403909751
O           98.87422440985516      108.99161956575001      114.64771560048436
C          103.00037933944954      102.02892390240287      109.08996065243892
C          103.67130098901063      102.66803973868686      107.87689800797342
H          103.27844858338041      102.58441312023878      109.99079362624931
H          103.37211318318278      101.00858813993638      109.21454441182108
C          105.17337613774050      102.80517388142118      108.13114812238494
H          103.49744324882576      102.03826912936645      107.00197673415566
H          103.24941425271557      103.65301959718506      107.67541265598179
C          105.94324712255548      103.31898221237910      106.90963397947009
H          105.33884347487331      103.49143595335794      108.96358626305314
H          105.58770241944447      101.83602742464851      108.41713537614049
C          105.44461760561943      104.68997568763180      106.49435960561624
H          106.99653354480898      103.40450972510020      107.18073293117905
H          105.84476433939783      102.61503027355634      106.08325615917849
N          104.58036281191904      104.68825880282694      105.47498192239421
C          103.97206832209713      105.87214958662791      104.90725396810254
H          104.26453695578434      103.80838987383667      105.09794920974193
O          100.90579455307929      100.97015330598930      109.56450979762489
C          104.04971096321302      105.83334617284144      103.38340094460857
H          102.92862768184469      105.94210769621449      105.23692657117090
H          104.51582350755392      106.73354072334460      105.30247685211839
C          103.47191672537959      107.10479667868154      102.76851497984995
H          105.09348301023223      105.71197492074238      103.09141918792065
H          103.48712553929597      104.97023690270926      103.02014761861773
C          103.41286570791966      107.06459102719707      101.24118296805784
H          102.45614172261978      107.25296284136435      103.14486387504988
H          104.06534451642158      107.95937460433197      103.09104268413155
C          104.77069079124752      107.05171532839229      100.53576737832482
H          102.85679151983726      106.17498173319407      100.93717767571553
H          102.84636769419748      107.93358201929274      100.89723258017425
C          105.58309433538005      108.33342684508736      100.71818214824917
N          106.26965622027816      108.36177106248562      101.99134819817192
H          106.32690964389627      108.40282191691874       99.91468318879491
H          104.93885409711542      109.21546964866624      100.66747654605213
C          106.31881523695985      109.42956950980366      102.78372936411152
H          106.66904251142410      107.47882565648023      102.29917073827424
O          105.80917450085752      105.71979414156176      107.05638809916120
C          107.05851496643041      109.21833190914184      104.09335452252363
C          108.55788482394605      109.00941174144826      103.86239813081121
H          106.89535743166741      110.09504013627419      104.72212087806788
H          106.64882059933056      108.34228105534697      104.59864292669688
C          109.18398258973255      110.14229917834153      103.05117533505332
H          109.05854031139640      108.93198009734654      104.82971567553861
H          108.71232046626820      108.06576752559991      103.33621610189363
C          110.69792101229567      109.95442686165622      102.92218270388504
H          108.72079548565482      110.17121082757173      102.06258946681929
H          108.98397681037333      111.10039429496044      103.53502997953967
C          111.30029800148282      110.91521638636704      101.91899439999465
H          111.17208698260812      110.11545836876340      103.89112824577718
H          110.92317501583780      108.93002652985624      102.62114862687083
N          111.01833407961219      110.63796192830988      100.63674405947664
C          111.42530365084599      111.49127078957321       99.53803156141291
H          110.36192584292542      109.90046892644807      100.43135079072533
H          105.36657351715392      106.20847811971429      100.88582621284444
H          104.59340725396274      106.91451942942085       99.46804433756944
O          105.82717397382535      110.51632358739526      102.47781596270177
O          112.00221104658475      111.86639684643545      102.24129080391967
C          110.33165378854554      112.50074673321789       99.17595988151960
H          112.32806066397072      112.01029092629462       99.86321351757364
H          111.66103507011901      110.86114953788777       98.67828801675370
C          110.63860360380339      113.28106693891338       97.89843991200298
H          109.39283757388475      111.95961373899414       99.03697030375663
H          110.20514770313126      113.19229104794435      100.01130593195791
C          111.86145586459355      114.19059850262980       98.01361398554583
H          110.79236705683734      112.57825475913171       97.07772945127192
H          109.76882162387840      113.89252620538058       97.65026789711257
C          112.06614748583199      114.99623490461525       96.72959859315988
H          111.73141052889545      114.86007664973394       98.86606962774971
H          112.75235571960249      113.58738056688310       98.19237925244934
C          113.36106713304054      115.80599025361077       96.73514333329317
H          112.10797376505552      114.30621062924230       95.88594968530029
H          111.22217379153561      115.66867423884769       96.56696755871050
N          113.26317762396921      116.98293344795673       97.57241114105412
H          114.18821361501024      115.17419735065998       97.07825719855586
H          113.60006690752675      116.16402168515565       95.73088316152491
C          113.74537948063100      118.18359854475129       97.22181152949150
H          112.81215506347536      116.87944503942316       98.46769696122691
C          113.43965149447183      119.29326278370718       98.20775516555524
C          111.99954468112438      119.78890726430846       98.04700823127044
H          113.60196383532812      118.94849582305179       99.23045751158138
H          114.11951839123303      120.12339880529383       98.00851800272326
C          111.66743517397401      120.82035973444303       99.12159204978815
H          111.87993098053423      120.22932568983711       97.05475331378385
H          111.30139534718441      118.95370867372058       98.12546750274259
C          110.30919390658784      121.48555664246524       98.87325612384554
H          111.65916348504550      120.32588846791104      100.09522042821656
H          112.44551491052243      121.58540894009192       99.15148882487884
C          109.85923366873890      122.18099817691248      100.14516182110512
H          110.39617124304837      122.21598395607062       98.06824279950597
H          109.57635875716299      120.73020215068368       98.59133775383307
N          108.94242420395349      121.49566983619134      100.82683490515213
C          108.38291544540306      121.86883493601434      102.10729018153638
H          108.59112673784954      120.62582519326853      100.43450899397982
O          114.36488647645480      118.37421701053860       96.18034178827550
C          108.32512539573045      120.63966726287589      103.01385615172990
H          109.00460799829153      122.66164291372172      102.52852962513921
H          107.37099844741202      122.26475886208331      101.95643389393787
C          107.39415277656876      120.82140780697638      104.20947803196469
H          107.95942335642576      119.80344708068453      102.41562117281291
H          109.33014616072701      120.39073471952419      103.34998781958569
C          107.09974413073441      119.49642929144015      104.91171140971868
H          107.82692598282057      121.52075460771073      104.92514263651061
H          106.45162359353149      121.25093471840297      103.86065479787467
C          108.28515263535843      118.96121880980382      105.70732928975029
H          106.26399393566577      119.64073024859837      105.59785363371653
H          106.79575629720514      118.75235221851774      104.17191814007342
C          107.93770356839977      117.63457229665987      106.36671637623220
H          109.14795107394831      118.82392611042123      105.05758833724569
H          108.54832500630253      119.67812179632067      106.48595791336157
N          108.94688548119541      117.26326764859292      107.33438470649305
H          106.95952838628311      117.71087314429295      106.85780812169291
H          107.86858681601461      116.83943795113478      105.61674910049092
O          110.33768388492547      123.25052024945111      100.52157543236885
C          109.03298196691664      116.03263656344087      107.84234748369762
H          109.50564204581597      118.02230384782646      107.71468826609552
C          110.18081469477947      115.83072748449848      108.81248574565146
C          109.92500528246032      116.46228520189885      110.18747678077831
H          110.34704202230434      114.75863953328822      108.92455073524616
H          111.07019201806804      116.28208742699557      108.36988265067221
C          108.98931251160811      115.61794702575312      111.04828180977346
H          110.88224344879303      116.55641028214511      110.70241623009242
H          109.51857008048742      117.46648832380531      110.05899449223286
C          108.72203764304784      116.27152038837156      112.41008131688490
H          108.04484699920818      115.45703367758109      110.52887121015738
H          109.44406747275482      114.63809674078514      111.20821800930914
C          108.05082364147022      115.29392364834050      113.34763546845905
H          109.65146035954901      116.64430740271814      112.83323288501020
H          108.03399041754263      117.11158939460785      112.28515237495193
N          108.58988558020211      115.08320509253517      114.55329930473260
O          108.26786509282161      115.12561880713152      107.51155332210037
C          109.75719893514928      115.67824614030999      115.17793690888708
H          108.07384875066151      114.44163695250559      115.14351995965555
C          110.18673141359076      114.82831994712286      116.37479941949888
H          110.57358989822541      115.74390424063800      114.45705779101736
H          109.52661404227933      116.69832616764810      115.50159133822621
C          111.43650644590566      115.37642759771126      117.06797992830751
H          109.37061555519317      114.79364097805919      117.09715591720867
H          110.38420218351854      113.80946703900675      116.03674301952962
C          111.72040798501558      114.61670214538478      118.36358999000335
H          112.29485725580491      115.27941658510315      116.40304262457221
H          111.29977242978546      116.43474940958605      117.27899651950246
C          113.04564855758890      114.99665412277704      119.02726467257312
H          110.90815757256490      114.76730290243057      119.07364663876713
H          111.75848394271276      113.55023618636172      118.13686035965105
C          113.07347670569325      116.39141865918943      119.64245257067152
H          113.25411969978953      114.27916974431368      119.81978607930371
H          113.85095063897208      114.91615674048752      118.29810931292280
N          112.25345422972248      116.46094132138246      120.83956481299526
H          114.09921557560465      116.66032281396217      119.91873858279375
H          112.71785507990467      117.14005269820335      118.92796374044993
C          112.35018424583421      117.45614079008777      121.71939183968075
H          111.69551605936620      115.63688900527549      121.06215588409678
O          107.02867705382639      114.68750755575789      113.01691194136311
C          111.41347493904708      117.34424554271951      122.90821050439442
C          112.10495229144153      116.67634280561178      124.09864075095965
H          111.11206196192394      118.34685773838177      123.21229907577276
H          110.53698526342190      116.75954998618454      122.62982745075635
C          111.10744710965754      116.32065024688180      125.20020904022778
H          112.59697783896623      115.75757260562852      123.76810017079201
H          112.87295184442803      117.34470457601928      124.49586031765983
C          110.45286074536484      117.53063522039574      125.87899218511058
H          110.30880576949150      115.71676338843854      124.76694299154737
H          111.61753952882860      115.70975106960502      125.94577896916236
C          111.43975394971574      118.47700380938051      126.53281803681762
H          109.90594294351199      118.10829109069421      125.13408693801750
H          109.74602560458339      117.18342170712022      126.63263864035565
N          111.95555328195766      118.11965431268567      127.71683508812023
C          111.53071866068584      117.01811468131721      128.55205029146290
H          112.56486028546084      118.79639083994206      128.16624901745939
O          113.11921604549295      118.41181409216024      121.57984887046922
C          112.56392490346286      116.69656631211689      129.62891208390812
H          110.57735273785819      117.27247551896627      129.03781133144281
H          111.36758545450137      116.13183966353837      127.93915163034657
C          113.99849870215031      116.54255281472554      129.11493477156651
H          112.55852009062924      117.48800297868391      130.38104957365547
H          112.24397214106908      115.77150092390899      130.11078691354047
C          114.15125420584933      115.66687838333974      127.86962291719263
H          114.41018883080552      117.52995542794461      128.90457944192835
H          114.58428806399507      116.10672113334351      129.92686164922941
C          115.59247618657885      115.17222970195158      127.72878485082718
H          113.48204799989858      114.80810157792136      127.93715696698771
H          113.87626429808712      116.24288370220668      126.98488382718180
C          115.91390442013596      114.59906930092885      126.35052984741273
H          116.28038437504148      115.99876992591554      127.91957883875514
H          115.77969705197007      114.40424503264329      128.48038313115146
N          116.15214037496864      115.65671248895035      125.39143231164350
H          116.81029954853095      113.97036918455407      126.42165794851164
H          115.09427922823483      113.98072389690485      125.97601518984867
C          115.95079780377353      115.54462622204331      124.07690728095226
H          116.61504161028080      116.49120916827134      125.74341437064615
O          111.77046396452482      119.52911950532278      125.98986732741372
C          116.26070392984032      116.79933101596266      123.28671321250613
C          117.16545595511091      116.51963473149108      122.08331078656215
H          115.30846850642564      117.21579440910467      122.94863720997624
H          116.74227162365281      117.52573170854293      123.94008881733481
C          117.77128566268024      117.80669823395482      121.52911105570485
H          117.98337040907870      115.86790480800344      122.39838979965612
H          116.60269179924634      115.99798730355315      121.30781656296750
C          116.75999744072280      118.73379552020654      120.85776084208851
H          118.24683513290249      118.34967462095359      122.34999443673993
H          118.55251462873427      117.55100737202305      120.81041828924481
C          117.21346677223289      120.18091680215763      120.88232562126431
H          116.59137178759848      118.43261181160908      119.82386801459457
H          115.79906864587404      118.69344328384827      121.37644836903766
N          116.51116471015901      121.04132665229407      120.14661868961696
O          115.53996770604516      114.51167118288441      123.54696612077258
C          115.35344667496850      120.77232182552036      119.32354138158051
H          116.84280196405135      122.00708475947128      120.14957593839267
C          114.54922804489935      122.05821798583170      119.15695105866949
H          115.67648998599455      120.40264395906483      118.34299953313533
H          114.73108662851142      120.01070788111443      119.80028504959355
C          113.41533546755230      121.92231728695828      118.14381719209685
H          114.13433309328276      122.33266854852904      120.12835112087021
H          115.21790679056699      122.86172172279886      118.84496975269471
C          113.87907386870498      122.06760965888144      116.69576109153611
H          112.93128282622891      120.95584651396788      118.27314228972796
H          112.68738946333525      122.70155314548298      118.36418510965356
C          112.71194303816380      122.02628599492066      115.71088152887616
H          114.41003174099774      123.01320948996280      116.57841305868963
H          114.56966114874264      121.26221846571289      116.44478247330345
C          111.80817978692367      123.25570239473902      115.84067200036394
H          113.10153532611828      121.99668721084606      114.69291068987467
H          112.12747397373751      121.12039858381688      115.86943976841823
N          110.71246423213940      123.23651460071802      114.89732539772157
H          111.38084882171654      123.31887727337124      116.84193667438230
H          112.39114847701558      124.15985556224017      115.64786256643364
C          110.79115668986677      123.76496508615614      113.66994591093635
H          109.87550920518386      122.72970021496572      115.14120815241409
O          118.17032790852259      120.57744800191861      121.55213319179853
C          109.56620324885704      123.54236949845424      112.80881725580133
C          109.82335177761571      122.38247405769329      111.82514930722716
H          108.70606740606296      123.32579241925234      113.43728273900658
H          109.36804061098275      124.46963480126597      112.27117270405610
C          108.89385939916504      121.17678223721769      111.99723714008275
H          109.71258386018228      122.75178414241491      110.80363352370000
H          110.85985951489967      122.05629995169708      111.92871996704032
C          109.29014949922180      120.17782177424684      113.08384138625840
H          107.87889252391719      121.52531910244537      112.19948074128740
H          108.88107023694242      120.63318250025748      111.05153765269064
C          109.00542271587986      120.62296274285097      114.50249461897681
H          108.69534800235989      119.27199471534216      112.93501386772003
H          110.34176966116733      119.90572894417055      113.00087752443169
N          109.70971884707296      119.96019669205482      115.42401738844488
C          109.54736529415730      120.18757939564982      116.84912384727605
H          110.48171545311172      119.36453542571252      115.13140826665735
O          111.79323349685707      124.33893842869945      113.25927129491237
C          110.15263368106281      119.04149350904343      117.65097680697177
H          110.01993248771271      121.13450171236678      117.12888844110724
H          108.47664325354963      120.27881367908687      117.05118870355827
C          109.85779979537264      119.16420125835300      119.14741165722306
H          109.72838013905059      118.10940480323326      117.28097985928972
H          111.22989410311612      119.01356276440781      117.47992213164632
C          110.70766734929830      120.23692841543409      119.82656235991465
H          108.80084265357318      119.40200056067660      119.27669682559731
H          110.04675149206770      118.20743869691137      119.63555382227371
C          110.18238535177339      120.60014360296654      121.21141482969389
H          111.73440941921437      119.88305258894306      119.92149215313616
H          110.71341042459686      121.14091685272403      119.21886057328861
C          110.98118104886686      121.72095629944259      121.85751115537667
H          109.14842063759824      120.93902874833449      121.13216408816038
H          110.20153919827790      119.72425156207927      121.85959839192607
N          112.32415898494622      121.31763192088083      122.23195524524598
H          111.06716964997312      122.57191098987930      121.17255709676142
H          110.46472143971735      122.07510195324633      122.75968903843027
C          113.17665181574790      122.21830156135466      122.72362761651610
H          112.56379391335034      120.33303391908160      122.20967485095949
O          108.17383049188489      121.48704774234112      114.79038604058876
C          114.47906741934202      121.68907837636431      123.29483227894224
C          114.29625381567269      120.43262652170544      124.14737117104625
H          115.18229010019601      121.49396608639128      122.48144798427221
H          114.89620127728784      122.48876221765306      123.91211702974493
C          115.47349022503487      120.22748064348674      125.09881479627589
H          113.38498294555984      120.52252766255133      124.74050438134343
H          114.18977657357901      119.55706155988909      123.50449845001107
C          115.20863774685644      119.07209513623313      126.07084296925032
H          116.38369567086390      120.02723049237895      124.52620048049583
H          115.62619569573988      121.14236731906267      125.67567072858311
C          116.45852821347763      118.72465440399696      126.84739208003390
H          114.40150878210427      119.34567026980311      126.74672111303128
H          114.90417892213401      118.19101920731065      125.50216923451075
N          116.51184457052811      119.17738962829027      128.09915609359041
O          112.92371927449457      123.42499897511681      122.71173823572944
C          117.60277720593926      118.90090941190975      129.00920471484028
H          115.69760707935409      119.64583172846859      128.48918205564760
C          117.08920157820116      118.35853107980475      130.34011284704991
H          118.25762954479815      118.17634052362337      128.52035854540199
H          118.17968334583681      119.81654839869941      129.18140000982754
C          118.20385150746408      118.23507465696923      131.37509728494325
H          116.31621736321596      119.03165015314708      130.71676321132790
H          116.62592634203151      117.38432729419938      130.18197915261689
C          117.65843099964680      117.85412881482186      132.74972278488590
H          118.92534045611038      117.48378553146769      131.04902887650567
H          118.73929216312459      119.18482442044667      131.44719639354884
C          118.76367029596830      117.77380587665569      133.79822183361460
H          116.92060189650515      118.59542419687975      133.06429018673103
H          117.14904911775027      116.89071210217675      132.68513333434558
C          118.22333786781728      117.38830375205001      135.18168501472940
H          119.50973058878675      117.03656416124065      133.48635979135318
H          119.26164834745252      118.74532590880094      133.86888385704702
N          119.22860003447813      117.33082279693829      136.23180025460769
H          117.46446050790122      118.11184235843395      135.49248495840069
H          117.74808448719369      116.40504471126076      135.12769193162922
H          119.95707101634054      116.67577383830907      135.96786537822709
H          119.66600129632499      118.24035179873717      136.33474963422427
O          117.37000619911298      118.06421362269884      126.33855655338715
C          103.03672739752967      129.86253623346749      124.01263567336113
C          102.68133441923922      128.91266452497356      122.89097759332641
C          104.11232581127409      129.23899136030670      124.91417542166947
C          105.46237592345783      129.13639914563825      124.20739379752166
H          104.21630993206010      129.85589939121130      125.80782179394348
H          103.77761312184759      128.24822597753590      125.23080256104342
C          106.50097913438373      128.41501656553945      125.07505933757440
H          105.35445302945132      128.58937791215308      123.26931513397058
H          105.81908601719853      130.13951946339498      123.96504299469527
C          107.82914056023112      128.39709342029113      124.34229462335001
H          106.59388342526769      128.91153617256413      126.04063388162814
H          106.16877286316863      127.38764996949169      125.23725726571300
N          108.73246811115042      129.28335828343884      124.77306236820489
O          103.23081764379229      129.23788905859789      121.74730422894177
O          101.98161796250017      127.93101444820616      123.05313417908987
H          103.03145931073885      128.60336549390448      120.97751092784036
H          102.13686244013209      130.04256564558173      124.60107336007381
H          103.39652114744086      130.79736504048535      123.58524425147137
C          110.00236537377870      129.51876408499518      124.11821958120650
H          108.51066052221795      129.88532607625066      125.55095920367806
C          110.19565314300088      130.99916664655242      123.78330049025811
H          110.81913196768735      129.17893130356666      124.76463887332763
H          110.00795344526604      128.91205723962713      123.21175707231752
C          109.01300220516639      131.62273812472094      123.03527444546313
H          110.34915932047618      131.55866113069004      124.70816422479076
H          111.10636567547412      131.09472715983671      123.19257509075031
C          108.59302317324293      130.88001910923552      121.76568138389615
H          108.15075294208013      131.65929708444031      123.70446825002918
H          109.27048958121793      132.65233724072752      122.78311811550293
C          109.63426806258438      130.89985555508429      120.64823518905203
H          108.35853575362890      129.84414380191711      122.01035472762980
H          107.67310303716539      131.33766090449728      121.39312652541633
C          109.75444460162849      132.26686122905215      119.97133758442097
H          110.60848351120924      130.59500488208121      121.02983312996457
H          109.34158389271771      130.17943823953087      119.88230333248720
N          110.43318460323583      132.14142668170041      118.70069390391474
H          108.75359175531277      132.68207742623562      119.80114986712975
H          110.32511363491447      132.97568400060180      120.57499294723172