      -----------------------------------------------------------      
     |                   =====================                   |     
     |                           x T B                           |     
     |                   =====================                   |     
     |                         S. Grimme                         |     
     |          Mulliken Center for Theoretical Chemistry        |     
     |                    University of Bonn                     |     
      -----------------------------------------------------------      

   * xtb version 6.6.1 (8d0f1dd) compiled by 'stahn@M-Bot' on 2023-08-01

   xtb is free software: you can redistribute it and/or modify it under
   the terms of the GNU Lesser General Public License as published by
   the Free Software Foundation, either version 3 of the License, or
   (at your option) any later version.
   
   xtb is distributed in the hope that it will be useful,
   but WITHOUT ANY WARRANTY; without even the implied warranty of
   MERCHANTABILITY or FITNESS FOR A PARTICULAR PURPOSE.  See the
   GNU Lesser General Public License for more details.
   
   Cite this work as:
   * C. Bannwarth, E. Caldeweyher, S. Ehlert, A. Hansen, P. Pracht,
     J. Seibert, S. Spicher, S. Grimme, WIREs Comput. Mol. Sci., 2020, 11,
     e01493. DOI: 10.1002/wcms.1493
   
   for GFN2-xTB:
   * C. Bannwarth, S. Ehlert and S. Grimme., J. Chem. Theory Comput., 2019,
     15, 1652-1671. DOI: 10.1021/acs.jctc.8b01176
   for GFN1-xTB:
   * S. Grimme, C. Bannwarth, P. Shushkov, J. Chem. Theory Comput., 2017,
     13, 1989-2009. DOI: 10.1021/acs.jctc.7b00118
   for GFN0-xTB:
   * P. Pracht, E. Caldeweyher, S. Ehlert, S. Grimme, ChemRxiv, 2019, preprint.
     DOI: 10.26434/chemrxiv.8326202.v1
   for GFN-FF:
   * S. Spicher and S. Grimme, Angew. Chem. Int. Ed., 2020, 59, 15665-15673.
     DOI: 10.1002/anie.202004239
   
   for ALPB and GBSA implicit solvation:
   * S. Ehlert, M. Stahn, S. Spicher, S. Grimme, J. Chem. Theory Comput.,
     2021, 17, 4250-4261. DOI: 10.1021/acs.jctc.1c00471
   
   for DFT-D4:
   * E. Caldeweyher, C. Bannwarth and S. Grimme, J. Chem. Phys., 2017,
     147, 034112. DOI: 10.1063/1.4993215
   * E. Caldeweyher, S. Ehlert, A. Hansen, H. Neugebauer, S. Spicher,
     C. Bannwarth and S. Grimme, J. Chem. Phys., 2019, 150, 154122.
     DOI: 10.1063/1.5090222
   * E. Caldeweyher, J.-M. Mewes, S. Ehlert and S. Grimme, Phys. Chem. Chem. Phys.
     2020, 22, 8499-8512. DOI: 10.1039/D0CP00502A
   
   for sTDA-xTB:
   * S. Grimme and C. Bannwarth, J. Chem. Phys., 2016, 145, 054103.
     DOI: 10.1063/1.4959605
   
   in the mass-spec context:
   * V. Asgeirsson, C. Bauer and S. Grimme, Chem. Sci., 2017, 8, 4879.
     DOI: 10.1039/c7sc00601b
   * J. Koopman and S. Grimme, ACS Omega 2019, 4, 12, 15120-15133.
     DOI: 10.1021/acsomega.9b02011
   
   for metadynamics refer to:
   * S. Grimme, J. Chem. Theory Comput., 2019, 155, 2847-2862
     DOI: 10.1021/acs.jctc.9b00143
   
   for SPH calculations refer to:
   * S. Spicher and S. Grimme, J. Chem. Theory Comput., 2021, 17, 1701-1714
     DOI: 10.1021/acs.jctc.0c01306
   
   with help from (in alphabetical order)
   P. Atkinson, C. Bannwarth, F. Bohle, G. Brandenburg, E. Caldeweyher
   M. Checinski, S. Dohm, S. Ehlert, S. Ehrlich, I. Gerasimov, C. Hölzer
   A. Katbashev, J. Koopman, C. Lavigne, S. Lehtola, F. März, M. Müller,
   F. Musil, H. Neugebauer, J. Pisarek, C. Plett, P. Pracht, F. Pultar,
   J. Seibert, P. Shushkov, S. Spicher, M. Stahn, M. Steiner, T. Strunk,
   J. Stückrath, T. Rose, and J. Unsleber
   
 * started run on 2024/10/08 at 23:50:07.828     

           -------------------------------------------------
          |                Calculation Setup                |
           -------------------------------------------------

          program call               : /home/abt-grimme/AK-bin/xtb input.xyz --input input.inp --opt
          hostname                   : boar076.thch.uni-bonn.de
          coordinate file            : input.xyz
          omp threads                :                     8

   ID    Z sym.   atoms
    1    6 C      1-4, 7, 10, 19, 21, 24, 27, 30, 33, 39, 42, 43, 46, 49, 52,
                  56, 59, 62, 65, 68, 71, 75, 78, 79, 82, 85, 88, 92, 98,
                  101, 104, 107, 110, 116, 118, 119, 122, 125, 128, 132, 135,
                  138, 141, 144, 147, 154, 156, 157, 160, 163, 166, 171, 173,
                  176, 179, 182, 185, 191, 194, 195, 198, 201, 204, 208, 211,
                  214, 217, 220, 223, 229, 232, 233, 236, 239, 242, 247, 249,
                  252, 255, 258, 261, 267, 270, 271, 274, 277, 280, 284, 287,
                  290, 293, 296, 299, 305, 308, 309, 312, 315, 318, 323, 325,
                  328, 331, 334, 337, 346-349, 352, 355, 364, 366, 369, 372,
                  375, 378, 384, 387, 388, 391, 394, 397, 401, 404, 407, 410,
                  413, 416, 420, 423, 424, 427, 430, 433, 437, 443, 446, 449,
                  452, 455, 461, 463, 464, 467, 470, 473, 477, 480, 483, 486,
                  489, 492, 499, 501, 502, 505, 508, 511, 516, 518, 521, 524,
                  527, 530, 536, 539, 540, 543, 546, 549, 553, 556, 559, 562,
                  565, 568, 574, 577, 578, 581, 584, 587, 592, 594, 597, 600,
                  603, 606, 612, 615, 616, 619, 622, 625, 629, 632, 635, 638,
                  641, 644, 650, 653, 654, 657, 660, 663, 668, 670, 673, 676,
                  679, 682, 691-694, 697, 700, 709, 711, 714, 717, 720, 723,
                  729, 732, 733, 736, 739, 742, 746, 749, 752, 755, 758, 761,
                  765, 768, 769, 772, 775, 778, 782, 788, 791, 794, 797, 800,
                  806, 808, 809, 812, 815, 818, 822, 825, 828, 831, 834, 837,
                  844, 846, 847, 850, 853, 856, 861, 863, 866, 869, 872, 875,
                  881, 884, 885, 888, 891, 894, 898, 901, 904, 907, 910, 913,
                  919, 922, 923, 926, 929, 932, 937, 939, 942, 945, 948, 951,
                  957, 960, 961, 964, 967, 970, 974, 977, 980, 983, 986, 989,
                  995, 998, 999, 1002, 1005, 1008, 1013, 1015, 1018, 1021,
                  1024, 1027, 1036-1039, 1042, 1045, 1054, 1056, 1059, 1062,
                  1065, 1068, 1074, 1077, 1078, 1081, 1084, 1087, 1091, 1094,
                  1097, 1100, 1103, 1106, 1110, 1113, 1114, 1117, 1120, 1123,
                  1127, 1133, 1136, 1139, 1142, 1145, 1151, 1153, 1154, 1157,
                  1160, 1163, 1167, 1170, 1173, 1176, 1179, 1182, 1189, 1191,
                  1192, 1195, 1198, 1201, 1206, 1208, 1211, 1214, 1217, 1220,
                  1226, 1229, 1230, 1233, 1236, 1239, 1243, 1246, 1249, 1252,
                  1255, 1258, 1264, 1267, 1268, 1271, 1274, 1277, 1282, 1284,
                  1287, 1290, 1293, 1296, 1302, 1305, 1306, 1309, 1312, 1315,
                  1319, 1322, 1325, 1328, 1331, 1334, 1340, 1343, 1344, 1347,
                  1350, 1353, 1358, 1360, 1363, 1366, 1369, 1372, 1381-1384,
                  1387, 1390, 1399, 1401, 1404, 1407, 1410, 1413, 1419, 1422,
                  1423, 1426, 1429, 1432, 1436, 1439, 1442, 1445, 1448, 1451,
                  1455, 1458, 1459, 1462, 1465, 1468, 1472, 1478, 1481, 1484,
                  1487, 1490, 1496, 1498, 1499, 1502, 1505, 1508, 1512, 1515,
                  1518, 1521, 1524, 1527, 1534, 1536, 1537, 1540, 1543, 1546,
                  1551, 1553, 1556, 1559, 1562, 1565, 1571, 1574, 1575, 1578,
                  1581, 1584, 1588, 1591, 1594, 1597, 1600, 1603, 1609, 1612,
                  1613, 1616, 1619, 1622, 1627, 1629, 1632, 1635, 1638, 1641,
                  1647, 1650, 1651, 1654, 1657, 1660, 1664, 1667, 1670, 1673,
                  1676, 1679, 1685, 1688, 1689, 1692, 1695, 1698, 1703, 1705,
                  1708, 1711, 1714, 1717, 1726-1729, 1732, 1735, 1744, 1746,
                  1749, 1752, 1755, 1758, 1764, 1767, 1768, 1771, 1774, 1777,
                  1781, 1784, 1787, 1790, 1793, 1796, 1800, 1803, 1804, 1807,
                  1810, 1813, 1817, 1823, 1826, 1829, 1832, 1835, 1841, 1843,
                  1844, 1847, 1850, 1853, 1857, 1860, 1863, 1866, 1869, 1872,
                  1879, 1881, 1882, 1885, 1888, 1891, 1896, 1898, 1901, 1904,
                  1907, 1910, 1916, 1919, 1920, 1923, 1926, 1929, 1933, 1936,
                  1939, 1942, 1945, 1948, 1954, 1957, 1958, 1961, 1964, 1967,
                  1972, 1974, 1977, 1980, 1983, 1986, 1992, 1995, 1996, 1999,
                  2002, 2005, 2009, 2012, 2015, 2018, 2021, 2024, 2030, 2033,
                  2034, 2037, 2040, 2043, 2048, 2050, 2053, 2056, 2059, 2062,
                  2071-2074, 2077, 2080, 2089, 2091, 2094, 2097, 2100, 2103,
                  2109, 2112, 2113, 2116, 2119, 2122, 2126, 2129, 2132, 2135,
                  2138, 2141, 2145, 2148, 2149, 2152, 2155, 2158, 2162, 2168,
                  2171, 2174, 2177, 2180, 2186, 2188, 2189, 2192, 2195, 2198,
                  2202, 2205, 2208, 2211, 2214, 2217, 2224, 2226, 2227, 2230,
                  2233, 2236, 2241, 2243, 2246, 2249, 2252, 2255, 2261, 2264,
                  2265, 2268, 2271, 2274, 2278, 2281, 2284, 2287, 2290, 2293,
                  2299, 2302, 2303, 2306, 2309, 2312, 2317, 2319, 2322, 2325,
                  2328, 2331, 2337, 2340, 2341, 2344, 2347, 2350, 2354, 2357,
                  2360, 2363, 2366, 2369, 2375, 2378, 2379, 2382, 2385, 2388,
                  2393, 2395, 2398, 2401, 2404, 2407, 2416-2419, 2422, 2425,
                  2434, 2436, 2439, 2442, 2445, 2448, 2454, 2457, 2458, 2461,
                  2464, 2467, 2471, 2474, 2477, 2480, 2483, 2486, 2490, 2493,
                  2494, 2497, 2500, 2503, 2507, 2513, 2516, 2519, 2522, 2525,
                  2531, 2533, 2534, 2537, 2540, 2543, 2547, 2550, 2553, 2556,
                  2559, 2562, 2569, 2571, 2572, 2575, 2578, 2581, 2586, 2588,
                  2591, 2594, 2597, 2600, 2606, 2609, 2610, 2613, 2616, 2619,
                  2623, 2626, 2629, 2632, 2635, 2638, 2644, 2647, 2648, 2651,
                  2654, 2657, 2662, 2664, 2667, 2670, 2673, 2676, 2682, 2685,
                  2686, 2689, 2692, 2695, 2699, 2702, 2705, 2708, 2711, 2714,
                  2720, 2723, 2724, 2727, 2730, 2733, 2738, 2740, 2743, 2746,
                  2749, 2752, 2761-2764, 2767, 2770, 2779, 2781, 2784, 2787,
                  2790, 2793, 2799, 2802, 2803, 2806, 2809, 2812, 2816, 2819,
                  2822, 2825, 2828, 2831, 2835, 2838, 2839, 2842, 2845, 2848,
                  2852, 2858, 2861, 2864, 2867, 2870, 2876, 2878, 2879, 2882,
                  2885, 2888, 2892, 2895, 2898, 2901, 2904, 2907, 2914, 2916,
                  2917, 2920, 2923, 2926, 2931, 2933, 2936, 2939, 2942, 2945,
                  2951, 2954, 2955, 2958, 2961, 2964, 2968, 2971, 2974, 2977,
                  2980, 2983, 2989, 2992, 2993, 2996, 2999, 3002, 3007, 3009,
                  3012, 3015, 3018, 3021, 3027, 3030, 3031, 3034, 3037, 3040,
                  3044, 3047, 3050, 3053, 3056, 3059, 3065, 3068, 3069, 3072,
                  3075, 3078, 3083, 3085, 3088, 3091, 3094, 3097, 3106-3109,
                  3112, 3115, 3124, 3126, 3129, 3132, 3135, 3138, 3144, 3147,
                  3148, 3151, 3154, 3157, 3161, 3164, 3167, 3170, 3173, 3176,
                  3180, 3183, 3184, 3187, 3190, 3193, 3197, 3203, 3206, 3209,
                  3212, 3215, 3221, 3223, 3224, 3227, 3230, 3233, 3237, 3240,
                  3243, 3246, 3249, 3252, 3259, 3261, 3262, 3265, 3268, 3271,
                  3276, 3278, 3281, 3284, 3287, 3290, 3296, 3299, 3300, 3303,
                  3306, 3309, 3313, 3316, 3319, 3322, 3325, 3328, 3334, 3337,
                  3338, 3341, 3344, 3347, 3352, 3354, 3357, 3360, 3363, 3366,
                  3372, 3375, 3376, 3379, 3382, 3385, 3389, 3392, 3395, 3398,
                  3401, 3404, 3410, 3413, 3414, 3417, 3420, 3423, 3428, 3430,
                  3433, 3436, 3439, 3442, 3451-3454, 3457, 3460, 3469, 3471,
                  3474, 3477, 3480, 3483, 3489, 3492, 3493, 3496, 3499, 3502,
                  3506, 3509, 3512, 3515, 3518, 3521, 3525, 3528, 3529, 3532,
                  3535, 3538, 3542, 3548, 3551, 3554, 3557, 3560, 3566, 3568,
                  3569, 3572, 3575, 3578, 3582, 3585, 3588, 3591, 3594, 3597,
                  3604, 3606, 3607, 3610, 3613, 3616, 3621, 3623, 3626, 3629,
                  3632, 3635, 3641, 3644, 3645, 3648, 3651, 3654, 3658, 3661,
                  3664, 3667, 3670, 3673, 3679, 3682, 3683, 3686, 3689, 3692,
                  3697, 3699, 3702, 3705, 3708, 3711, 3717, 3720, 3721, 3724,
                  3727, 3730, 3734, 3737, 3740, 3743, 3746, 3749, 3755, 3758,
                  3759, 3762, 3765, 3768, 3773, 3775, 3778, 3781, 3784, 3787
    2    1 H      5, 6, 8, 9, 11, 12, 16-18, 20, 22, 23, 25, 26, 28, 29, 31,
                  32, 34, 35, 37, 38, 40, 44, 45, 47, 48, 50, 51, 53, 54, 57,
                  60, 61, 63, 64, 66, 67, 69, 70, 73, 74, 76, 80, 81, 83, 84,
                  86, 87, 89, 90, 93-95, 99, 100, 102, 103, 105, 106, 108,
                  109, 111, 112, 114, 115, 117, 120, 121, 123, 124, 126, 127,
                  129, 130, 133, 136, 137, 139, 140, 142, 143, 145, 146, 148,
                  149, 151, 152, 155, 158, 159, 161, 162, 164, 165, 167, 168,
                  172, 174, 175, 177, 178, 180, 181, 183, 184, 186, 187, 189,
                  190, 192, 196, 197, 199, 200, 202, 203, 205, 206, 209, 212,
                  213, 215, 216, 218, 219, 221, 222, 224, 225, 227, 228, 230,
                  234, 235, 237, 238, 240, 241, 243, 244, 248, 250, 251, 253,
                  254, 256, 257, 259, 260, 262, 263, 265, 266, 268, 272, 273,
                  275, 276, 278, 279, 281, 282, 285, 288, 289, 291, 292, 294,
                  295, 297, 298, 300, 301, 303, 304, 306, 310, 311, 313, 314,
                  316, 317, 319, 320, 324, 326, 327, 329, 330, 332, 333, 335,
                  336, 338, 339, 341-344, 350, 351, 353, 354, 356, 357,
                  361-363, 365, 367, 368, 370, 371, 373, 374, 376, 377, 379,
                  380, 382, 383, 385, 389, 390, 392, 393, 395, 396, 398, 399,
                  402, 405, 406, 408, 409, 411, 412, 414, 415, 418, 419, 421,
                  425, 426, 428, 429, 431, 432, 434, 435, 438-440, 444, 445,
                  447, 448, 450, 451, 453, 454, 456, 457, 459, 460, 462, 465,
                  466, 468, 469, 471, 472, 474, 475, 478, 481, 482, 484, 485,
                  487, 488, 490, 491, 493, 494, 496, 497, 500, 503, 504, 506,
                  507, 509, 510, 512, 513, 517, 519, 520, 522, 523, 525, 526,
                  528, 529, 531, 532, 534, 535, 537, 541, 542, 544, 545, 547,
                  548, 550, 551, 554, 557, 558, 560, 561, 563, 564, 566, 567,
                  569, 570, 572, 573, 575, 579, 580, 582, 583, 585, 586, 588,
                  589, 593, 595, 596, 598, 599, 601, 602, 604, 605, 607, 608,
                  610, 611, 613, 617, 618, 620, 621, 623, 624, 626, 627, 630,
                  633, 634, 636, 637, 639, 640, 642, 643, 645, 646, 648, 649,
                  651, 655, 656, 658, 659, 661, 662, 664, 665, 669, 671, 672,
                  674, 675, 677, 678, 680, 681, 683, 684, 686-689, 695, 696,
                  698, 699, 701, 702, 706-708, 710, 712, 713, 715, 716, 718,
                  719, 721, 722, 724, 725, 727, 728, 730, 734, 735, 737, 738,
                  740, 741, 743, 744, 747, 750, 751, 753, 754, 756, 757, 759,
                  760, 763, 764, 766, 770, 771, 773, 774, 776, 777, 779, 780,
                  783-785, 789, 790, 792, 793, 795, 796, 798, 799, 801, 802,
                  804, 805, 807, 810, 811, 813, 814, 816, 817, 819, 820, 823,
                  826, 827, 829, 830, 832, 833, 835, 836, 838, 839, 841, 842,
                  845, 848, 849, 851, 852, 854, 855, 857, 858, 862, 864, 865,
                  867, 868, 870, 871, 873, 874, 876, 877, 879, 880, 882, 886,
                  887, 889, 890, 892, 893, 895, 896, 899, 902, 903, 905, 906,
                  908, 909, 911, 912, 914, 915, 917, 918, 920, 924, 925, 927,
                  928, 930, 931, 933, 934, 938, 940, 941, 943, 944, 946, 947,
                  949, 950, 952, 953, 955, 956, 958, 962, 963, 965, 966, 968,
                  969, 971, 972, 975, 978, 979, 981, 982, 984, 985, 987, 988,
                  990, 991, 993, 994, 996, 1000, 1001, 1003, 1004, 1006,
                  1007, 1009, 1010, 1014, 1016, 1017, 1019, 1020, 1022, 1023,
                  1025, 1026, 1028, 1029, 1031-1034, 1040, 1041, 1043, 1044,
                  1046, 1047, 1051-1053, 1055, 1057, 1058, 1060, 1061, 1063,
                  1064, 1066, 1067, 1069, 1070, 1072, 1073, 1075, 1079, 1080,
                  1082, 1083, 1085, 1086, 1088, 1089, 1092, 1095, 1096, 1098,
                  1099, 1101, 1102, 1104, 1105, 1108, 1109, 1111, 1115, 1116,
                  1118, 1119, 1121, 1122, 1124, 1125, 1128-1130, 1134, 1135,
                  1137, 1138, 1140, 1141, 1143, 1144, 1146, 1147, 1149, 1150,
                  1152, 1155, 1156, 1158, 1159, 1161, 1162, 1164, 1165, 1168,
                  1171, 1172, 1174, 1175, 1177, 1178, 1180, 1181, 1183, 1184,
                  1186, 1187, 1190, 1193, 1194, 1196, 1197, 1199, 1200, 1202,
                  1203, 1207, 1209, 1210, 1212, 1213, 1215, 1216, 1218, 1219,
                  1221, 1222, 1224, 1225, 1227, 1231, 1232, 1234, 1235, 1237,
                  1238, 1240, 1241, 1244, 1247, 1248, 1250, 1251, 1253, 1254,
                  1256, 1257, 1259, 1260, 1262, 1263, 1265, 1269, 1270, 1272,
                  1273, 1275, 1276, 1278, 1279, 1283, 1285, 1286, 1288, 1289,
                  1291, 1292, 1294, 1295, 1297, 1298, 1300, 1301, 1303, 1307,
                  1308, 1310, 1311, 1313, 1314, 1316, 1317, 1320, 1323, 1324,
                  1326, 1327, 1329, 1330, 1332, 1333, 1335, 1336, 1338, 1339,
                  1341, 1345, 1346, 1348, 1349, 1351, 1352, 1354, 1355, 1359,
                  1361, 1362, 1364, 1365, 1367, 1368, 1370, 1371, 1373, 1374,
                  1376-1379, 1385, 1386, 1388, 1389, 1391, 1392, 1396-1398,
                  1400, 1402, 1403, 1405, 1406, 1408, 1409, 1411, 1412, 1414,
                  1415, 1417, 1418, 1420, 1424, 1425, 1427, 1428, 1430, 1431,
                  1433, 1434, 1437, 1440, 1441, 1443, 1444, 1446, 1447, 1449,
                  1450, 1453, 1454, 1456, 1460, 1461, 1463, 1464, 1466, 1467,
                  1469, 1470, 1473-1475, 1479, 1480, 1482, 1483, 1485, 1486,
                  1488, 1489, 1491, 1492, 1494, 1495, 1497, 1500, 1501, 1503,
                  1504, 1506, 1507, 1509, 1510, 1513, 1516, 1517, 1519, 1520,
                  1522, 1523, 1525, 1526, 1528, 1529, 1531, 1532, 1535, 1538,
                  1539, 1541, 1542, 1544, 1545, 1547, 1548, 1552, 1554, 1555,
                  1557, 1558, 1560, 1561, 1563, 1564, 1566, 1567, 1569, 1570,
                  1572, 1576, 1577, 1579, 1580, 1582, 1583, 1585, 1586, 1589,
                  1592, 1593, 1595, 1596, 1598, 1599, 1601, 1602, 1604, 1605,
                  1607, 1608, 1610, 1614, 1615, 1617, 1618, 1620, 1621, 1623,
                  1624, 1628, 1630, 1631, 1633, 1634, 1636, 1637, 1639, 1640,
                  1642, 1643, 1645, 1646, 1648, 1652, 1653, 1655, 1656, 1658,
                  1659, 1661, 1662, 1665, 1668, 1669, 1671, 1672, 1674, 1675,
                  1677, 1678, 1680, 1681, 1683, 1684, 1686, 1690, 1691, 1693,
                  1694, 1696, 1697, 1699, 1700, 1704, 1706, 1707, 1709, 1710,
                  1712, 1713, 1715, 1716, 1718, 1719, 1721-1724, 1730, 1731,
                  1733, 1734, 1736, 1737, 1741-1743, 1745, 1747, 1748, 1750,
                  1751, 1753, 1754, 1756, 1757, 1759, 1760, 1762, 1763, 1765,
                  1769, 1770, 1772, 1773, 1775, 1776, 1778, 1779, 1782, 1785,
                  1786, 1788, 1789, 1791, 1792, 1794, 1795, 1798, 1799, 1801,
                  1805, 1806, 1808, 1809, 1811, 1812, 1814, 1815, 1818-1820,
                  1824, 1825, 1827, 1828, 1830, 1831, 1833, 1834, 1836, 1837,
                  1839, 1840, 1842, 1845, 1846, 1848, 1849, 1851, 1852, 1854,
                  1855, 1858, 1861, 1862, 1864, 1865, 1867, 1868, 1870, 1871,
                  1873, 1874, 1876, 1877, 1880, 1883, 1884, 1886, 1887, 1889,
                  1890, 1892, 1893, 1897, 1899, 1900, 1902, 1903, 1905, 1906,
                  1908, 1909, 1911, 1912, 1914, 1915, 1917, 1921, 1922, 1924,
                  1925, 1927, 1928, 1930, 1931, 1934, 1937, 1938, 1940, 1941,
                  1943, 1944, 1946, 1947, 1949, 1950, 1952, 1953, 1955, 1959,
                  1960, 1962, 1963, 1965, 1966, 1968, 1969, 1973, 1975, 1976,
                  1978, 1979, 1981, 1982, 1984, 1985, 1987, 1988, 1990, 1991,
                  1993, 1997, 1998, 2000, 2001, 2003, 2004, 2006, 2007, 2010,
                  2013, 2014, 2016, 2017, 2019, 2020, 2022, 2023, 2025, 2026,
                  2028, 2029, 2031, 2035, 2036, 2038, 2039, 2041, 2042, 2044,
                  2045, 2049, 2051, 2052, 2054, 2055, 2057, 2058, 2060, 2061,
                  2063, 2064, 2066-2069, 2075, 2076, 2078, 2079, 2081, 2082,
                  2086-2088, 2090, 2092, 2093, 2095, 2096, 2098, 2099, 2101,
                  2102, 2104, 2105, 2107, 2108, 2110, 2114, 2115, 2117, 2118,
                  2120, 2121, 2123, 2124, 2127, 2130, 2131, 2133, 2134, 2136,
                  2137, 2139, 2140, 2143, 2144, 2146, 2150, 2151, 2153, 2154,
                  2156, 2157, 2159, 2160, 2163-2165, 2169, 2170, 2172, 2173,
                  2175, 2176, 2178, 2179, 2181, 2182, 2184, 2185, 2187, 2190,
                  2191, 2193, 2194, 2196, 2197, 2199, 2200, 2203, 2206, 2207,
                  2209, 2210, 2212, 2213, 2215, 2216, 2218, 2219, 2221, 2222,
                  2225, 2228, 2229, 2231, 2232, 2234, 2235, 2237, 2238, 2242,
                  2244, 2245, 2247, 2248, 2250, 2251, 2253, 2254, 2256, 2257,
                  2259, 2260, 2262, 2266, 2267, 2269, 2270, 2272, 2273, 2275,
                  2276, 2279, 2282, 2283, 2285, 2286, 2288, 2289, 2291, 2292,
                  2294, 2295, 2297, 2298, 2300, 2304, 2305, 2307, 2308, 2310,
                  2311, 2313, 2314, 2318, 2320, 2321, 2323, 2324, 2326, 2327,
                  2329, 2330, 2332, 2333, 2335, 2336, 2338, 2342, 2343, 2345,
                  2346, 2348, 2349, 2351, 2352, 2355, 2358, 2359, 2361, 2362,
                  2364, 2365, 2367, 2368, 2370, 2371, 2373, 2374, 2376, 2380,
                  2381, 2383, 2384, 2386, 2387, 2389, 2390, 2394, 2396, 2397,
                  2399, 2400, 2402, 2403, 2405, 2406, 2408, 2409, 2411-2414,
                  2420, 2421, 2423, 2424, 2426, 2427, 2431-2433, 2435, 2437,
                  2438, 2440, 2441, 2443, 2444, 2446, 2447, 2449, 2450, 2452,
                  2453, 2455, 2459, 2460, 2462, 2463, 2465, 2466, 2468, 2469,
                  2472, 2475, 2476, 2478, 2479, 2481, 2482, 2484, 2485, 2488,
                  2489, 2491, 2495, 2496, 2498, 2499, 2501, 2502, 2504, 2505,
                  2508-2510, 2514, 2515, 2517, 2518, 2520, 2521, 2523, 2524,
                  2526, 2527, 2529, 2530, 2532, 2535, 2536, 2538, 2539, 2541,
                  2542, 2544, 2545, 2548, 2551, 2552, 2554, 2555, 2557, 2558,
                  2560, 2561, 2563, 2564, 2566, 2567, 2570, 2573, 2574, 2576,
                  2577, 2579, 2580, 2582, 2583, 2587, 2589, 2590, 2592, 2593,
                  2595, 2596, 2598, 2599, 2601, 2602, 2604, 2605, 2607, 2611,
                  2612, 2614, 2615, 2617, 2618, 2620, 2621, 2624, 2627, 2628,
                  2630, 2631, 2633, 2634, 2636, 2637, 2639, 2640, 2642, 2643,
                  2645, 2649, 2650, 2652, 2653, 2655, 2656, 2658, 2659, 2663,
                  2665, 2666, 2668, 2669, 2671, 2672, 2674, 2675, 2677, 2678,
                  2680, 2681, 2683, 2687, 2688, 2690, 2691, 2693, 2694, 2696,
                  2697, 2700, 2703, 2704, 2706, 2707, 2709, 2710, 2712, 2713,
                  2715, 2716, 2718, 2719, 2721, 2725, 2726, 2728, 2729, 2731,
                  2732, 2734, 2735, 2739, 2741, 2742, 2744, 2745, 2747, 2748,
                  2750, 2751, 2753, 2754, 2756-2759, 2765, 2766, 2768, 2769,
                  2771, 2772, 2776-2778, 2780, 2782, 2783, 2785, 2786, 2788,
                  2789, 2791, 2792, 2794, 2795, 2797, 2798, 2800, 2804, 2805,
                  2807, 2808, 2810, 2811, 2813, 2814, 2817, 2820, 2821, 2823,
                  2824, 2826, 2827, 2829, 2830, 2833, 2834, 2836, 2840, 2841,
                  2843, 2844, 2846, 2847, 2849, 2850, 2853-2855, 2859, 2860,
                  2862, 2863, 2865, 2866, 2868, 2869, 2871, 2872, 2874, 2875,
                  2877, 2880, 2881, 2883, 2884, 2886, 2887, 2889, 2890, 2893,
                  2896, 2897, 2899, 2900, 2902, 2903, 2905, 2906, 2908, 2909,
                  2911, 2912, 2915, 2918, 2919, 2921, 2922, 2924, 2925, 2927,
                  2928, 2932, 2934, 2935, 2937, 2938, 2940, 2941, 2943, 2944,
                  2946, 2947, 2949, 2950, 2952, 2956, 2957, 2959, 2960, 2962,
                  2963, 2965, 2966, 2969, 2972, 2973, 2975, 2976, 2978, 2979,
                  2981, 2982, 2984, 2985, 2987, 2988, 2990, 2994, 2995, 2997,
                  2998, 3000, 3001, 3003, 3004, 3008, 3010, 3011, 3013, 3014,
                  3016, 3017, 3019, 3020, 3022, 3023, 3025, 3026, 3028, 3032,
                  3033, 3035, 3036, 3038, 3039, 3041, 3042, 3045, 3048, 3049,
                  3051, 3052, 3054, 3055, 3057, 3058, 3060, 3061, 3063, 3064,
                  3066, 3070, 3071, 3073, 3074, 3076, 3077, 3079, 3080, 3084,
                  3086, 3087, 3089, 3090, 3092, 3093, 3095, 3096, 3098, 3099,
                  3101-3104, 3110, 3111, 3113, 3114, 3116, 3117, 3121-3123,
                  3125, 3127, 3128, 3130, 3131, 3133, 3134, 3136, 3137, 3139,
                  3140, 3142, 3143, 3145, 3149, 3150, 3152, 3153, 3155, 3156,
                  3158, 3159, 3162, 3165, 3166, 3168, 3169, 3171, 3172, 3174,
                  3175, 3178, 3179, 3181, 3185, 3186, 3188, 3189, 3191, 3192,
                  3194, 3195, 3198-3200, 3204, 3205, 3207, 3208, 3210, 3211,
                  3213, 3214, 3216, 3217, 3219, 3220, 3222, 3225, 3226, 3228,
                  3229, 3231, 3232, 3234, 3235, 3238, 3241, 3242, 3244, 3245,
                  3247, 3248, 3250, 3251, 3253, 3254, 3256, 3257, 3260, 3263,
                  3264, 3266, 3267, 3269, 3270, 3272, 3273, 3277, 3279, 3280,
                  3282, 3283, 3285, 3286, 3288, 3289, 3291, 3292, 3294, 3295,
                  3297, 3301, 3302, 3304, 3305, 3307, 3308, 3310, 3311, 3314,
                  3317, 3318, 3320, 3321, 3323, 3324, 3326, 3327, 3329, 3330,
                  3332, 3333, 3335, 3339, 3340, 3342, 3343, 3345, 3346, 3348,
                  3349, 3353, 3355, 3356, 3358, 3359, 3361, 3362, 3364, 3365,
                  3367, 3368, 3370, 3371, 3373, 3377, 3378, 3380, 3381, 3383,
                  3384, 3386, 3387, 3390, 3393, 3394, 3396, 3397, 3399, 3400,
                  3402, 3403, 3405, 3406, 3408, 3409, 3411, 3415, 3416, 3418,
                  3419, 3421, 3422, 3424, 3425, 3429, 3431, 3432, 3434, 3435,
                  3437, 3438, 3440, 3441, 3443, 3444, 3446-3449, 3455, 3456,
                  3458, 3459, 3461, 3462, 3466-3468, 3470, 3472, 3473, 3475,
                  3476, 3478, 3479, 3481, 3482, 3484, 3485, 3487, 3488, 3490,
                  3494, 3495, 3497, 3498, 3500, 3501, 3503, 3504, 3507, 3510,
                  3511, 3513, 3514, 3516, 3517, 3519, 3520, 3523, 3524, 3526,
                  3530, 3531, 3533, 3534, 3536, 3537, 3539, 3540, 3543-3545,
                  3549, 3550, 3552, 3553, 3555, 3556, 3558, 3559, 3561, 3562,
                  3564, 3565, 3567, 3570, 3571, 3573, 3574, 3576, 3577, 3579,
                  3580, 3583, 3586, 3587, 3589, 3590, 3592, 3593, 3595, 3596,
                  3598, 3599, 3601, 3602, 3605, 3608, 3609, 3611, 3612, 3614,
                  3615, 3617, 3618, 3622, 3624, 3625, 3627, 3628, 3630, 3631,
                  3633, 3634, 3636, 3637, 3639, 3640, 3642, 3646, 3647, 3649,
                  3650, 3652, 3653, 3655, 3656, 3659, 3662, 3663, 3665, 3666,
                  3668, 3669, 3671, 3672, 3674, 3675, 3677, 3678, 3680, 3684,
                  3685, 3687, 3688, 3690, 3691, 3693, 3694, 3698, 3700, 3701,
                  3703, 3704, 3706, 3707, 3709, 3710, 3712, 3713, 3715, 3716,
                  3718, 3722, 3723, 3725, 3726, 3728, 3729, 3731, 3732, 3735,
                  3738, 3739, 3741, 3742, 3744, 3745, 3747, 3748, 3750, 3751,
                  3753, 3754, 3756, 3760, 3761, 3763, 3764, 3766, 3767, 3769,
                  3770, 3774, 3776, 3777, 3779, 3780, 3782, 3783, 3785, 3786,
                  3788, 3789, 3791-3794
    3    7 N      13, 36, 55, 72, 91, 113, 131, 150, 169, 188, 207, 226, 245,
                  264, 283, 302, 321, 340, 358, 381, 400, 417, 436, 458, 476,
                  495, 514, 533, 552, 571, 590, 609, 628, 647, 666, 685, 703,
                  726, 745, 762, 781, 803, 821, 840, 859, 878, 897, 916, 935,
                  954, 973, 992, 1011, 1030, 1048, 1071, 1090, 1107, 1126,
                  1148, 1166, 1185, 1204, 1223, 1242, 1261, 1280, 1299, 1318,
                  1337, 1356, 1375, 1393, 1416, 1435, 1452, 1471, 1493, 1511,
                  1530, 1549, 1568, 1587, 1606, 1625, 1644, 1663, 1682, 1701,
                  1720, 1738, 1761, 1780, 1797, 1816, 1838, 1856, 1875, 1894,
                  1913, 1932, 1951, 1970, 1989, 2008, 2027, 2046, 2065, 2083,
                  2106, 2125, 2142, 2161, 2183, 2201, 2220, 2239, 2258, 2277,
                  2296, 2315, 2334, 2353, 2372, 2391, 2410, 2428, 2451, 2470,
                  2487, 2506, 2528, 2546, 2565, 2584, 2603, 2622, 2641, 2660,
                  2679, 2698, 2717, 2736, 2755, 2773, 2796, 2815, 2832, 2851,
                  2873, 2891, 2910, 2929, 2948, 2967, 2986, 3005, 3024, 3043,
                  3062, 3081, 3100, 3118, 3141, 3160, 3177, 3196, 3218, 3236,
                  3255, 3274, 3293, 3312, 3331, 3350, 3369, 3388, 3407, 3426,
                  3445, 3463, 3486, 3505, 3522, 3541, 3563, 3581, 3600, 3619,
                  3638, 3657, 3676, 3695, 3714, 3733, 3752, 3771, 3790
    4    8 O      14, 15, 41, 58, 77, 96, 97, 134, 153, 170, 193, 210, 231,
                  246, 269, 286, 307, 322, 345, 359, 360, 386, 403, 422, 441,
                  442, 479, 498, 515, 538, 555, 576, 591, 614, 631, 652, 667,
                  690, 704, 705, 731, 748, 767, 786, 787, 824, 843, 860, 883,
                  900, 921, 936, 959, 976, 997, 1012, 1035, 1049, 1050, 1076,
                  1093, 1112, 1131, 1132, 1169, 1188, 1205, 1228, 1245, 1266,
                  1281, 1304, 1321, 1342, 1357, 1380, 1394, 1395, 1421, 1438,
                  1457, 1476, 1477, 1514, 1533, 1550, 1573, 1590, 1611, 1626,
                  1649, 1666, 1687, 1702, 1725, 1739, 1740, 1766, 1783, 1802,
                  1821, 1822, 1859, 1878, 1895, 1918, 1935, 1956, 1971, 1994,
                  2011, 2032, 2047, 2070, 2084, 2085, 2111, 2128, 2147, 2166,
                  2167, 2204, 2223, 2240, 2263, 2280, 2301, 2316, 2339, 2356,
                  2377, 2392, 2415, 2429, 2430, 2456, 2473, 2492, 2511, 2512,
                  2549, 2568, 2585, 2608, 2625, 2646, 2661, 2684, 2701, 2722,
                  2737, 2760, 2774, 2775, 2801, 2818, 2837, 2856, 2857, 2894,
                  2913, 2930, 2953, 2970, 2991, 3006, 3029, 3046, 3067, 3082,
                  3105, 3119, 3120, 3146, 3163, 3182, 3201, 3202, 3239, 3258,
                  3275, 3298, 3315, 3336, 3351, 3374, 3391, 3412, 3427, 3450,
                  3464, 3465, 3491, 3508, 3527, 3546, 3547, 3584, 3603, 3620,
                  3643, 3660, 3681, 3696, 3719, 3736, 3757, 3772, 3795

molecular fragmentation (1/2 indicates fragments):
111111111111111111111111111111111111111111111111111111111111111111111111
111111111111111111111111111111111111111111111111111111111111111111111111
111111111111111111111111111111111111111111111111111111111111111111111111
111111111111111111111111111111111111111111111111111111111111111111111111
111111111111111111111111111111111111111111111111111111111222222222222222
222222222222222222222222222222222222222222222222222222222222222222222222
222222222222222222222222222222222222222222222222222222222222222222222222
222222222222222222222222222222222222222222222222222222222222222222222222
222222222222222222222222222222222222222222222222222222222222222222222222
222222222222222222222222222222222222222222222222222222222222222222222222
222222222222222222222222222222222222222222222222222222222222222222222222
222222222222222222222222222222222222222222222222222222222222222222222222
222222222222222222222222222222222222222222222222222222222222222222222222
222222222222222222222222222222222222222222222222222222222222222222222222
222222222222222222222222222222222222222222222222222222222222222222222222
222222222222222222222222222222222222222222222222222222222222222222222222
222222222222222222222222222222222222222222222222222222222222222222222222
222222222222222222222222222222222222222222222222222222222222222222222222
222222222222222222222222222222222222222222222222222222222222222222222222
222222222222222222222222222222222222222222222222222222222222222222222222
222222222222222222222222222222222222222222222222222222222222222222222222
222222222222222222222222222222222222222222222222222222222222222222222222
222222222222222222222222222222222222222222222222222222222222222222222222
222222222222222222222222222222222222222222222222222222222222222222222222
222222222222222222222222222222222222222222222222222222222222222222222222
222222222222222222222222222222222222222222222222222222222222222222222222
222222222222222222222222222222222222222222222222222222222222222222222222
222222222222222222222222222222222222222222222222222222222222222222222222
222222222222222222222222222222222222222222222222222222222222222222222222
222222222222222222222222222222222222222222222222222222222222222222222222
222222222222222222222222222222222222222222222222222222222222222222222222
222222222222222222222222222222222222222222222222222222222222222222222222
222222222222222222222222222222222222222222222222222222222222222222222222
222222222222222222222222222222222222222222222222222222222222222222222222
222222222222222222222222222222222222222222222222222222222222222222222222
222222222222222222222222222222222222222222222222222222222222222222222222
222222222222222222222222222222222222222222222222222222222222222222222222
222222222222222222222222222222222222222222222222222222222222222222222222
222222222222222222222222222222222222222222222222222222222222222222222222
222222222222222222222222222222222222222222222222222222222222222222222222
222222222222222222222222222222222222222222222222222222222222222222222222
222222222222222222222222222222222222222222222222222222222222222222222222
222222222222222222222222222222222222222222222222222222222222222222222222
222222222222222222222222222222222222222222222222222222222222222222222222
222222222222222222222222222222222222222222222222222222222222222222222222
222222222222222222222222222222222222222222222222222222222222222222222222
222222222222222222222222222222222222222222222222222222222222222222222222
222222222222222222222222222222222222222222222222222222222222222222222222
222222222222222222222222222222222222222222222222222222222222222222222222
222222222222222222222222222222222222222222222222222222222222222222222222
222222222222222222222222222222222222222222222222222222222222222222222222
222222222222222222222222222222222222222222222222222222222222222222222222
222222222222222222222222222222222222222222222222222
# atoms in fragment 1/2:   345  3450
 fragment masses (1/2) :     2054.86    20548.57
CMA distance (Bohr)    :  10.392
constraining FC (au)   :  0.0500

           -------------------------------------------------
          |                 G F N 2 - x T B                 |
           -------------------------------------------------

        Reference                      10.1021/acs.jctc.8b01176
      * Hamiltonian:
        H0-scaling (s, p, d)           1.850000    2.230000    2.230000
        zeta-weighting                 0.500000
      * Dispersion:
        s8                             2.700000
        a1                             0.520000
        a2                             5.000000
        s9                             5.000000
      * Repulsion:
        kExp                           1.500000    1.000000
        rExp                           1.000000
      * Coulomb:
        alpha                          2.000000
        third order                    shell-resolved
        anisotropic                    true
        a3                             3.000000
        a5                             4.000000
        cn-shift                       1.200000
        cn-exp                         4.000000
        max-rad                        5.000000


          ...................................................
          :                      SETUP                      :
          :.................................................:
          :  # basis functions                8580          :
          :  # atomic orbitals                8580          :
          :  # shells                         5390          :
          :  # electrons                      9196          :
          :  max. iterations                   250          :
          :  Hamiltonian                  GFN2-xTB          :
          :  restarted?                      false          :
          :  GBSA solvation                  false          :
          :  PC potential                    false          :
          :  electronic temp.          300.0000000     K    :
          :  accuracy                    1.0000000          :
          :  -> integral cutoff          0.2500000E+02      :
          :  -> integral neglect         0.1000000E-07      :
          :  -> SCF convergence          0.1000000E-05 Eh   :
          :  -> wf. convergence          0.1000000E-03 e    :
          :  Broyden damping             0.4000000          :
          ...................................................

 iter      E             dE          RMSdq      gap      omega  full diag
   1  -5156.3887786 -0.515639E+04  0.342E+00    4.30       0.0  T
   2  -5167.4755102 -0.110867E+02  0.185E+00    3.11       1.0  T
   3  -5167.8266380 -0.351128E+00  0.950E-01    3.33       1.0  T
   4  -5167.9048509 -0.782129E-01  0.152E-01    2.71       1.0  T
   5  -5167.9362810 -0.314301E-01  0.781E-02    2.84       1.0  T
   6  -5167.9403341 -0.405304E-02  0.346E-02    2.79       1.0  T
   7  -5167.9405299 -0.195865E-03  0.939E-03    2.81       1.0  T
   8  -5167.9405716 -0.417241E-04  0.372E-03    2.81       1.0  T
   9  -5167.9405783 -0.669674E-05  0.133E-03    2.81       1.2  T
  10  -5167.9405793 -0.992710E-06  0.467E-04    2.81       3.5  T
  11  -5167.9405795 -0.173222E-06  0.138E-04    2.81      11.8  T

   *** convergence criteria satisfied after 11 iterations ***

         #    Occupation            Energy/Eh            Energy/eV
      -------------------------------------------------------------
         1        2.0000           -0.7514966             -20.4493
       ...           ...                  ...                  ...
      4592        2.0000           -0.3535388              -9.6203
      4593        2.0000           -0.3531761              -9.6104
      4594        2.0000           -0.3523153              -9.5870
      4595        2.0000           -0.3519795              -9.5778
      4596        2.0000           -0.3515732              -9.5668
      4597        2.0000           -0.3441135              -9.3638
      4598        2.0000           -0.3417082              -9.2984 (HOMO)
      4599                         -0.2385854              -6.4922 (LUMO)
      4600                         -0.2335768              -6.3559
      4601                         -0.2331474              -6.3443
      4602                         -0.2319977              -6.3130
      4603                         -0.2316888              -6.3046
       ...                                ...                  ...
      8580                          0.6538722              17.7928
      -------------------------------------------------------------
                  HL-Gap            0.1031228 Eh            2.8061 eV
             Fermi-level           -0.2901468 Eh           -7.8953 eV

 SCC (total)                   0 d,  0 h, 31 min, 22.094 sec
 SCC setup                      ...        0 min,  0.677 sec (  0.036%)
 Dispersion                     ...        0 min,  5.115 sec (  0.272%)
 classical contributions        ...        0 min,  0.164 sec (  0.009%)
 integral evaluation            ...        0 min,  9.437 sec (  0.501%)
 iterations                     ...       25 min, 55.655 sec ( 82.656%)
 molecular gradient             ...        4 min, 53.482 sec ( 15.593%)
 printout                       ...        0 min, 17.564 sec (  0.933%)

         :::::::::::::::::::::::::::::::::::::::::::::::::::::
         ::                     SUMMARY                     ::
         :::::::::::::::::::::::::::::::::::::::::::::::::::::
         :: total energy           -5103.056215353673 Eh    ::
         :: gradient norm              0.157159492903 Eh/a0 ::
         :: HOMO-LUMO gap              2.806114108133 eV    ::
         ::.................................................::
         :: SCC energy             -5167.940579510090 Eh    ::
         :: -> isotropic ES            8.509376814141 Eh    ::
         :: -> anisotropic ES         -0.029488949755 Eh    ::
         :: -> anisotropic XC          1.878980051948 Eh    ::
         :: -> dispersion             -5.349894111031 Eh    ::
         :: repulsion energy          63.972065714156 Eh    ::
         :: add. restraining           0.000000000000 Eh    ::
         :: total charge              -0.000000000019 e     ::
         :::::::::::::::::::::::::::::::::::::::::::::::::::::

      ----------------------------------------------------------- 
     |              Fast Inertial Relaxation Engine              |
      ----------------------------------------------------------- 

          ...................................................
          :                      SETUP                      :
          :.................................................:
          :   energy convergence        0.5000000E-05 Eh    :
          :   grad. convergence         0.1000000E-02 Eh/a0 :
          :   optimization log               true           :
          :   writing optlog all                1     steps :
          :   Hessian reset                    20     steps :
          :   time step scaling                 5     steps :
          :   maximium step len.        1.0000000     a0    :
          :   initial time step         0.2500000     fs    :
          :   maximum time step         1.2500000     fs    :
          :   power reset thr           0.0000000     au    :
          :   alpha parameter           0.1000000           :
          :   BFGS update                   false           :
          :   preconditioning               false           :
          ...................................................

........................................................................
.............................. CYCLE    1 ..............................
........................................................................

 iter      E             dE          RMSdq      gap      omega  full diag
   1  -5167.9591823 -0.516796E+04  0.533E-03    2.81       0.0  T
   2  -5167.9592763 -0.940496E-04  0.239E-03    2.81       1.0  T
   3  -5167.9592814 -0.505185E-05  0.113E-03    2.81       1.4  T
   4  -5167.9592815 -0.104311E-06  0.418E-04    2.81       3.9  T
   5  -5167.9592816 -0.859818E-07  0.133E-04    2.81      12.2  T
     SCC iter.                  ...       11 min, 45.270 sec
     gradient                   ...        4 min, 53.877 sec
 * total energy  : -5103.0588894 Eh     change    :  -0.2674026E-02 Eh
   gradient norm :     0.1332190 Eh/a0  converged?    E=F G=F D=F
   time step     :     0.2500000 fs     power     :   0.1301336E-06
   step length   :     0.0184188 a0     speed     :   0.1782114E-02

........................................................................
.............................. CYCLE    2 ..............................
........................................................................

 iter      E             dE          RMSdq      gap      omega  full diag
   1  -5167.9851414 -0.516799E+04  0.757E-03    2.81       0.0  T
   2  -5167.9853310 -0.189547E-03  0.339E-03    2.82       1.0  T
   3  -5167.9853411 -0.101121E-04  0.162E-03    2.81       1.0  T
   4  -5167.9853413 -0.207648E-06  0.595E-04    2.81       2.7  T
   5  -5167.9853415 -0.174942E-06  0.188E-04    2.81       8.6  T
     SCC iter.                  ...       11 min, 50.418 sec
     gradient                   ...        4 min, 54.362 sec
 * total energy  : -5103.0619343 Eh     change    :  -0.3044901E-02 Eh
   gradient norm :     0.0996167 Eh/a0  converged?    E=F G=F D=F
   time step     :     0.2500000 fs     power     :   0.1377180E-06
   step length   :     0.0262203 a0     speed     :   0.2536956E-02

........................................................................
.............................. CYCLE    3 ..............................
........................................................................

 iter      E             dE          RMSdq      gap      omega  full diag
   1  -5168.0155508 -0.516802E+04  0.917E-03    2.82       0.0  T
   2  -5168.0158289 -0.278008E-03  0.411E-03    2.82       1.0  T
   3  -5168.0158436 -0.147745E-04  0.197E-03    2.82       1.0  T
   4  -5168.0158439 -0.300928E-06  0.723E-04    2.82       2.2  T
   5  -5168.0158442 -0.262802E-06  0.230E-04    2.82       7.1  T
     SCC iter.                  ...       11 min, 46.220 sec
     gradient                   ...        4 min, 54.268 sec
 * total energy  : -5103.0644503 Eh     change    :  -0.2516019E-02 Eh
   gradient norm :     0.0608921 Eh/a0  converged?    E=F G=F D=F
   time step     :     0.2500000 fs     power     :   0.9814094E-07
   step length   :     0.0320164 a0     speed     :   0.3097754E-02

........................................................................
.............................. CYCLE    4 ..............................
........................................................................

 iter      E             dE          RMSdq      gap      omega  full diag
   1  -5168.0463337 -0.516805E+04  0.993E-03    2.82       0.0  T
   2  -5168.0466578 -0.324105E-03  0.445E-03    2.82       1.0  T
   3  -5168.0466749 -0.171613E-04  0.214E-03    2.82       1.0  T
   4  -5168.0466753 -0.345111E-06  0.784E-04    2.82       2.1  T
   5  -5168.0466756 -0.317455E-06  0.250E-04    2.82       6.5  T
     SCC iter.                  ...       11 min, 51.742 sec
     gradient                   ...        4 min, 53.290 sec
 * total energy  : -5103.0657426 Eh     change    :  -0.1292301E-02 Eh
   gradient norm :     0.0328882 Eh/a0  converged?    E=F G=F D=F
   time step     :     0.2500000 fs     power     :   0.2661957E-07
   step length   :     0.0353007 a0     speed     :   0.3415532E-02

........................................................................
.............................. CYCLE    5 ..............................
........................................................................

 iter      E             dE          RMSdq      gap      omega  full diag
   1  -5168.0700347 -0.516807E+04  0.916E-03    2.82       0.0  T
   2  -5168.0703040 -0.269367E-03  0.412E-03    2.82       1.0  T
   3  -5168.0703182 -0.142082E-04  0.200E-03    2.82       1.0  T
   4  -5168.0703185 -0.278574E-06  0.716E-04    2.82       2.3  T
   5  -5168.0703188 -0.282493E-06  0.230E-04    2.82       7.1  T
     SCC iter.                  ...       11 min, 52.745 sec
     gradient                   ...        4 min, 53.606 sec
 * total energy  : -5103.0656949 Eh     change    :   0.4768023E-04 Eh
   gradient norm :     0.0491441 Eh/a0  converged?    E=F G=F D=F
   time step     :     0.2500000 fs     power     :  -0.3884310E-07
   step length   :     0.0344811 a0     speed     :   0.3336235E-02

........................................................................
.............................. CYCLE    6 ..............................
........................................................................
 * reset velocities

 iter      E             dE          RMSdq      gap      omega  full diag
   1  -5168.0692714 -0.516807E+04  0.195E-04    2.82       0.0  T
   2  -5168.0692715 -0.113478E-06  0.828E-05    2.82      19.6  T
   3  -5168.0692715 -0.673754E-08  0.383E-05    2.82      42.3  T
     SCC iter.                  ...        7 min,  5.688 sec
     gradient                   ...        4 min, 53.974 sec
 * total energy  : -5103.0657300 Eh     change    :  -0.3510075E-04 Eh
   gradient norm :     0.0483025 Eh/a0  converged?    E=F G=F D=T
   time step     :     0.1250000 fs     power     :   0.3691438E-08
   step length   :     0.0007199 a0     speed     :   0.1393177E-03

........................................................................
.............................. CYCLE    7 ..............................
........................................................................

 iter      E             dE          RMSdq      gap      omega  full diag
   1  -5168.0671962 -0.516807E+04  0.361E-04    2.82       0.0  T
   2  -5168.0671967 -0.434675E-06  0.173E-04    2.82       9.4  T
   3  -5168.0671967 -0.235859E-07  0.876E-05    2.82      18.5  T
     SCC iter.                  ...        7 min,  6.540 sec
     gradient                   ...        4 min, 52.656 sec
 * total energy  : -5103.0657978 Eh     change    :  -0.6782154E-04 Eh
   gradient norm :     0.0467388 Eh/a0  converged?    E=F G=F D=F
   time step     :     0.1250000 fs     power     :   0.7081092E-08
   step length   :     0.0014276 a0     speed     :   0.2762463E-03

........................................................................
.............................. CYCLE    8 ..............................
........................................................................

 iter      E             dE          RMSdq      gap      omega  full diag
   1  -5168.0641321 -0.516806E+04  0.529E-04    2.82       0.0  T
   2  -5168.0641330 -0.933625E-06  0.257E-04    2.82       6.3  T
   3  -5168.0641331 -0.501777E-07  0.131E-04    2.82      12.4  T
     SCC iter.                  ...        7 min,  6.600 sec
     gradient                   ...        4 min, 52.997 sec
 * total energy  : -5103.0658941 Eh     change    :  -0.9629226E-04 Eh
   gradient norm :     0.0444712 Eh/a0  converged?    E=F G=F D=F
   time step     :     0.1250000 fs     power     :   0.9961698E-08
   step length   :     0.0021121 a0     speed     :   0.4087198E-03

........................................................................
.............................. CYCLE    9 ..............................
........................................................................

 iter      E             dE          RMSdq      gap      omega  full diag
   1  -5168.0601369 -0.516806E+04  0.685E-04    2.82       0.0  T
   2  -5168.0601385 -0.156541E-05  0.335E-04    2.82       4.8  T
   3  -5168.0601385 -0.837254E-07  0.172E-04    2.82       9.4  T
   4  -5168.0601386 -0.142882E-08  0.528E-05    2.82      30.7  T
     SCC iter.                  ...        9 min, 27.868 sec
     gradient                   ...        4 min, 51.935 sec
 * total energy  : -5103.0660128 Eh     change    :  -0.1186878E-03 Eh
   gradient norm :     0.0415792 Eh/a0  converged?    E=F G=F D=F
   time step     :     0.1250000 fs     power     :   0.1216323E-07
   step length   :     0.0027631 a0     speed     :   0.5346817E-03

........................................................................
.............................. CYCLE   10 ..............................
........................................................................

 iter      E             dE          RMSdq      gap      omega  full diag
   1  -5168.0552882 -0.516806E+04  0.834E-04    2.82       0.0  T
   2  -5168.0552905 -0.231575E-05  0.391E-04    2.82       4.2  T
   3  -5168.0552906 -0.129009E-06  0.194E-04    2.82       8.4  T
   4  -5168.0552906 -0.166528E-08  0.652E-05    2.82      24.9  T
     SCC iter.                  ...        9 min, 28.258 sec
     gradient                   ...        4 min, 54.093 sec
 * total energy  : -5103.0661468 Eh     change    :  -0.1340201E-03 Eh
   gradient norm :     0.0382278 Eh/a0  converged?    E=F G=F D=F
   time step     :     0.1250000 fs     power     :   0.1358920E-07
   step length   :     0.0033704 a0     speed     :   0.6522160E-03

........................................................................
.............................. CYCLE   11 ..............................
........................................................................

 iter      E             dE          RMSdq      gap      omega  full diag
   1  -5168.0496835 -0.516805E+04  0.955E-04    2.81       0.0  T
   2  -5168.0496865 -0.302522E-05  0.449E-04    2.81       3.6  T
   3  -5168.0496867 -0.168492E-06  0.223E-04    2.81       7.3  T
   4  -5168.0496867 -0.232649E-08  0.742E-05    2.81      21.9  T
     SCC iter.                  ...        9 min, 28.576 sec
     gradient                   ...        4 min, 52.497 sec
 * total energy  : -5103.0662885 Eh     change    :  -0.1417021E-03 Eh
   gradient norm :     0.0345878 Eh/a0  converged?    E=F G=F D=F
   time step     :     0.1250000 fs     power     :   0.1420819E-07
   step length   :     0.0039260 a0     speed     :   0.7597206E-03

........................................................................
.............................. CYCLE   12 ..............................
........................................................................

 iter      E             dE          RMSdq      gap      omega  full diag
   1  -5168.0427434 -0.516804E+04  0.117E-03    2.81       0.0  T
   2  -5168.0427479 -0.449924E-05  0.550E-04    2.81       3.0  T
   3  -5168.0427481 -0.250208E-06  0.274E-04    2.81       5.9  T
   4  -5168.0427481 -0.347882E-08  0.898E-05    2.81      18.1  T
     SCC iter.                  ...        9 min, 28.985 sec
     gradient                   ...        4 min, 52.840 sec
 * total energy  : -5103.0664455 Eh     change    :  -0.1569510E-03 Eh
   gradient norm :     0.0305222 Eh/a0  converged?    E=F G=F D=F
   time step     :     0.1375000 fs     power     :   0.1401235E-07
   step length   :     0.0049199 a0     speed     :   0.8654964E-03

........................................................................
.............................. CYCLE   13 ..............................
........................................................................

 iter      E             dE          RMSdq      gap      omega  full diag
   1  -5168.0343964 -0.516803E+04  0.139E-03    2.81       0.0  T
   2  -5168.0344026 -0.622594E-05  0.653E-04    2.81       2.5  T
   3  -5168.0344030 -0.346319E-06  0.328E-04    2.81       5.0  T
   4  -5168.0344030 -0.441287E-08  0.105E-04    2.81      15.5  T
     SCC iter.                  ...        9 min, 29.135 sec
     gradient                   ...        4 min, 52.705 sec
 * total energy  : -5103.0666093 Eh     change    :  -0.1638513E-03 Eh
   gradient norm :     0.0264901 Eh/a0  converged?    E=F G=F D=F
   time step     :     0.1512500 fs     power     :   0.1293243E-07
   step length   :     0.0060348 a0     speed     :   0.9651183E-03

........................................................................
.............................. CYCLE   14 ..............................
........................................................................

 iter      E             dE          RMSdq      gap      omega  full diag
   1  -5168.0247148 -0.516802E+04  0.157E-03    2.80       0.0  T
   2  -5168.0247227 -0.783597E-05  0.743E-04    2.80       2.2  T
   3  -5168.0247231 -0.435610E-06  0.377E-04    2.80       4.3  T
   4  -5168.0247231 -0.523778E-08  0.115E-04    2.80      14.1  T
     SCC iter.                  ...        9 min, 25.392 sec
     gradient                   ...        4 min, 54.605 sec
 * total energy  : -5103.0667700 Eh     change    :  -0.1606939E-03 Eh
   gradient norm :     0.0233920 Eh/a0  converged?    E=F G=F D=F
   time step     :     0.1663750 fs     power     :   0.1112531E-07
   step length   :     0.0072400 a0     speed     :   0.1052611E-02

........................................................................
.............................. CYCLE   15 ..............................
........................................................................

 iter      E             dE          RMSdq      gap      omega  full diag
   1  -5168.0140389 -0.516801E+04  0.168E-03    2.80       0.0  T
   2  -5168.0140475 -0.858205E-05  0.800E-04    2.80       2.0  T
   3  -5168.0140480 -0.476555E-06  0.413E-04    2.80       3.9  T
   4  -5168.0140480 -0.485034E-08  0.118E-04    2.80      13.8  T
     SCC iter.                  ...        9 min, 25.588 sec
     gradient                   ...        4 min, 55.380 sec
 * total energy  : -5103.0669198 Eh     change    :  -0.1497773E-03 Eh
   gradient norm :     0.0223562 Eh/a0  converged?    E=F G=F D=F
   time step     :     0.1830125 fs     power     :   0.9106517E-08
   step length   :     0.0084760 a0     speed     :   0.1120277E-02

........................................................................
.............................. CYCLE   16 ..............................
........................................................................

 iter      E             dE          RMSdq      gap      omega  full diag
   1  -5168.0030745 -0.516800E+04  0.165E-03    2.79       0.0  T
   2  -5168.0030821 -0.762712E-05  0.801E-04    2.79       2.0  T
   3  -5168.0030826 -0.422766E-06  0.425E-04    2.79       3.8  T
   4  -5168.0030826 -0.316595E-08  0.106E-04    2.79      15.3  T
     SCC iter.                  ...        9 min, 26.258 sec
     gradient                   ...        4 min, 54.678 sec
 * total energy  : -5103.0670603 Eh     change    :  -0.1404820E-03 Eh
   gradient norm :     0.0236139 Eh/a0  converged?    E=F G=F D=F
   time step     :     0.2013138 fs     power     :   0.7710203E-08
   step length   :     0.0096733 a0     speed     :   0.1162297E-02

........................................................................
.............................. CYCLE   17 ..............................
........................................................................

 iter      E             dE          RMSdq      gap      omega  full diag
   1  -5167.9927908 -0.516799E+04  0.148E-03    2.79       0.0  T
   2  -5167.9927957 -0.495674E-05  0.745E-04    2.79       2.2  T
   3  -5167.9927960 -0.273842E-06  0.412E-04    2.79       3.9  T
   4  -5167.9927960 -0.227465E-08  0.796E-05    2.79      20.4  T
     SCC iter.                  ...        9 min, 28.744 sec
     gradient                   ...        4 min, 53.820 sec
 * total energy  : -5103.0672073 Eh     change    :  -0.1469553E-03 Eh
   gradient norm :     0.0258521 Eh/a0  converged?    E=F G=F D=F
   time step     :     0.2214451 fs     power     :   0.7658053E-08
   step length   :     0.0108535 a0     speed     :   0.1185545E-02

........................................................................
.............................. CYCLE   18 ..............................
........................................................................

 iter      E             dE          RMSdq      gap      omega  full diag
   1  -5167.9842138 -0.516798E+04  0.124E-03    2.78       0.0  T
   2  -5167.9842156 -0.179441E-05  0.676E-04    2.78       2.4  T
   3  -5167.9842156 -0.946366E-07  0.363E-04    2.78       4.5  T
   4  -5167.9842157 -0.934233E-08  0.484E-05    2.78      33.6  T
     SCC iter.                  ...        9 min, 28.343 sec
     gradient                   ...        4 min, 54.204 sec
 * total energy  : -5103.0673871 Eh     change    :  -0.1798012E-03 Eh
   gradient norm :     0.0272740 Eh/a0  converged?    E=F G=F D=F
   time step     :     0.2435896 fs     power     :   0.9041280E-08
   step length   :     0.0121970 a0     speed     :   0.1211185E-02

........................................................................
.............................. CYCLE   19 ..............................
........................................................................

 iter      E             dE          RMSdq      gap      omega  full diag
   1  -5167.9783045 -0.516798E+04  0.117E-03    2.78       0.0  T
   2  -5167.9783047 -0.200895E-06  0.689E-04    2.78       2.4  T
   3  -5167.9783047  0.658747E-08  0.156E-04    2.78      10.4  T
     SCC iter.                  ...        7 min,  9.098 sec
     gradient                   ...        4 min, 54.632 sec
 * total energy  : -5103.0676243 Eh     change    :  -0.2372628E-03 Eh
   gradient norm :     0.0264962 Eh/a0  converged?    E=F G=F D=F
   time step     :     0.2679486 fs     power     :   0.1113317E-07
   step length   :     0.0139647 a0     speed     :   0.1260651E-02

........................................................................
.............................. CYCLE   20 ..............................
........................................................................

 iter      E             dE          RMSdq      gap      omega  full diag
   1  -5167.9758226 -0.516798E+04  0.153E-03    2.78       0.0  T
   2  -5167.9758249 -0.238604E-05  0.865E-04    2.78       1.9  T
   3  -5167.9758251 -0.139042E-06  0.446E-04    2.78       3.6  T
   4  -5167.9758251 -0.223299E-07  0.679E-05    2.78      23.9  T
     SCC iter.                  ...        9 min, 28.424 sec
     gradient                   ...        4 min, 55.050 sec
 * total energy  : -5103.0679233 Eh     change    :  -0.2989635E-03 Eh
   gradient norm :     0.0229228 Eh/a0  converged?    E=F G=F D=F
   time step     :     0.2947435 fs     power     :   0.1253882E-07
   step length   :     0.0163645 a0     speed     :   0.1342991E-02
 * RMSD in coord.:     0.0027273 a0     energy gain  -0.1170793E-01 Eh

........................................................................
.............................. CYCLE   21 ..............................
........................................................................

 iter      E             dE          RMSdq      gap      omega  full diag
   1  -5167.9765386 -0.516798E+04  0.161E-03    2.78       0.0  T
   2  -5167.9765436 -0.495556E-05  0.857E-04    2.78       1.9  T
   3  -5167.9765439 -0.298003E-06  0.473E-04    2.78       3.4  T
   4  -5167.9765439 -0.626915E-08  0.913E-05    2.78      17.8  T
     SCC iter.                  ...        9 min, 29.407 sec
     gradient                   ...        4 min, 56.142 sec
 * total energy  : -5103.0681768 Eh     change    :  -0.2535588E-03 Eh
   gradient norm :     0.0187184 Eh/a0  converged?    E=F G=F D=F
   time step     :     0.2500000 fs     power     :   0.1230469E-07
   step length   :     0.0146349 a0     speed     :   0.1416009E-02

........................................................................
.............................. CYCLE   22 ..............................
........................................................................

 iter      E             dE          RMSdq      gap      omega  full diag
   1  -5167.9792677 -0.516798E+04  0.184E-03    2.78       0.0  T
   2  -5167.9792755 -0.778225E-05  0.946E-04    2.78       1.7  T
   3  -5167.9792759 -0.455416E-06  0.518E-04    2.78       3.1  T
   4  -5167.9792759 -0.537420E-08  0.114E-04    2.78      14.3  T
     SCC iter.                  ...        9 min, 28.770 sec
     gradient                   ...        4 min, 55.320 sec
 * total energy  : -5103.0684054 Eh     change    :  -0.2285845E-03 Eh
   gradient norm :     0.0153427 Eh/a0  converged?    E=F G=F D=F
   time step     :     0.2500000 fs     power     :   0.1067963E-07
   step length   :     0.0153987 a0     speed     :   0.1489906E-02

........................................................................
.............................. CYCLE   23 ..............................
........................................................................

 iter      E             dE          RMSdq      gap      omega  full diag
   1  -5167.9826997 -0.516798E+04  0.183E-03    2.78       0.0  T
   2  -5167.9827075 -0.783347E-05  0.937E-04    2.78       1.7  T
   3  -5167.9827080 -0.451280E-06  0.512E-04    2.78       3.2  T
   4  -5167.9827080 -0.461296E-08  0.113E-04    2.78      14.3  T
     SCC iter.                  ...        9 min, 27.751 sec
     gradient                   ...        4 min, 56.469 sec
 * total energy  : -5103.0685974 Eh     change    :  -0.1920174E-03 Eh
   gradient norm :     0.0150976 Eh/a0  converged?    E=F G=F D=F
   time step     :     0.2500000 fs     power     :   0.8726467E-08
   step length   :     0.0159871 a0     speed     :   0.1546838E-02

........................................................................
.............................. CYCLE   24 ..............................
........................................................................

 iter      E             dE          RMSdq      gap      omega  full diag
   1  -5167.9852312 -0.516799E+04  0.155E-03    2.78       0.0  T
   2  -5167.9852359 -0.471985E-05  0.807E-04    2.78       2.0  T
   3  -5167.9852361 -0.267895E-06  0.447E-04    2.78       3.6  T
   4  -5167.9852361 -0.402179E-08  0.862E-05    2.78      18.8  T
     SCC iter.                  ...        9 min, 28.543 sec
     gradient                   ...        4 min, 57.681 sec
 * total energy  : -5103.0687642 Eh     change    :  -0.1667106E-03 Eh
   gradient norm :     0.0170307 Eh/a0  converged?    E=F G=F D=F
   time step     :     0.2500000 fs     power     :   0.7833655E-08
   step length   :     0.0161824 a0     speed     :   0.1565739E-02

........................................................................
.............................. CYCLE   25 ..............................
........................................................................

 iter      E             dE          RMSdq      gap      omega  full diag
   1  -5167.9858384 -0.516799E+04  0.116E-03    2.78       0.0  T
   2  -5167.9858398 -0.143781E-05  0.639E-04    2.78       2.5  T
   3  -5167.9858399 -0.746495E-07  0.335E-04    2.78       4.8  T
   4  -5167.9858399 -0.950877E-08  0.498E-05    2.78      32.6  T
     SCC iter.                  ...        9 min, 25.262 sec
     gradient                   ...        4 min, 55.347 sec
 * total energy  : -5103.0689311 Eh     change    :  -0.1669388E-03 Eh
   gradient norm :     0.0184176 Eh/a0  converged?    E=F G=F D=F
   time step     :     0.2500000 fs     power     :   0.8295226E-08
   step length   :     0.0161174 a0     speed     :   0.1559445E-02

........................................................................
.............................. CYCLE   26 ..............................
........................................................................

 iter      E             dE          RMSdq      gap      omega  full diag
   1  -5167.9839670 -0.516798E+04  0.103E-03    2.78       0.0  T
   2  -5167.9839673 -0.268643E-06  0.597E-04    2.78       2.7  T
   3  -5167.9839673 -0.170076E-08  0.175E-04    2.78       9.3  T
     SCC iter.                  ...        7 min,  5.578 sec
     gradient                   ...        4 min, 53.993 sec
 * total energy  : -5103.0691338 Eh     change    :  -0.2026925E-03 Eh
   gradient norm :     0.0179514 Eh/a0  converged?    E=F G=F D=F
   time step     :     0.2750000 fs     power     :   0.9361072E-08
   step length   :     0.0177710 a0     speed     :   0.1563127E-02

........................................................................
.............................. CYCLE   27 ..............................
........................................................................

 iter      E             dE          RMSdq      gap      omega  full diag
   1  -5167.9792884 -0.516798E+04  0.128E-03    2.78       0.0  T
   2  -5167.9792905 -0.206720E-05  0.704E-04    2.78       2.3  T
   3  -5167.9792906 -0.117928E-06  0.379E-04    2.78       4.3  T
   4  -5167.9792906 -0.107593E-07  0.577E-05    2.78      28.1  T
     SCC iter.                  ...        9 min, 28.968 sec
     gradient                   ...        4 min, 54.550 sec
 * total energy  : -5103.0693744 Eh     change    :  -0.2405834E-03 Eh
   gradient norm :     0.0154728 Eh/a0  converged?    E=F G=F D=F
   time step     :     0.3025000 fs     power     :   0.9929834E-08
   step length   :     0.0199183 a0     speed     :   0.1592730E-02

........................................................................
.............................. CYCLE   28 ..............................
........................................................................

 iter      E             dE          RMSdq      gap      omega  full diag
   1  -5167.9723401 -0.516797E+04  0.173E-03    2.78       0.0  T
   2  -5167.9723464 -0.631587E-05  0.886E-04    2.78       1.8  T
   3  -5167.9723468 -0.371636E-06  0.488E-04    2.78       3.3  T
   4  -5167.9723468 -0.533873E-08  0.103E-04    2.78      15.8  T
     SCC iter.                  ...        9 min, 26.661 sec
     gradient                   ...        4 min, 54.784 sec
 * total energy  : -5103.0696321 Eh     change    :  -0.2577303E-03 Eh
   gradient norm :     0.0130050 Eh/a0  converged?    E=F G=F D=F
   time step     :     0.3327500 fs     power     :   0.9285889E-08
   step length   :     0.0226634 a0     speed     :   0.1647487E-02

........................................................................
.............................. CYCLE   29 ..............................
........................................................................

 iter      E             dE          RMSdq      gap      omega  full diag
   1  -5167.9653705 -0.516797E+04  0.192E-03    2.77       0.0  T
   2  -5167.9653784 -0.792413E-05  0.968E-04    2.77       1.7  T
   3  -5167.9653789 -0.461481E-06  0.531E-04    2.77       3.1  T
   4  -5167.9653789 -0.571708E-08  0.117E-04    2.77      13.9  T
     SCC iter.                  ...        9 min, 28.764 sec
     gradient                   ...        4 min, 54.830 sec
 * total energy  : -5103.0698873 Eh     change    :  -0.2551862E-03 Eh
   gradient norm :     0.0138539 Eh/a0  converged?    E=F G=F D=F
   time step     :     0.3660250 fs     power     :   0.8198889E-08
   step length   :     0.0258322 a0     speed     :   0.1707128E-02

........................................................................
.............................. CYCLE   30 ..............................
........................................................................

 iter      E             dE          RMSdq      gap      omega  full diag
   1  -5167.9620408 -0.516796E+04  0.163E-03    2.77       0.0  T
   2  -5167.9620442 -0.342772E-05  0.862E-04    2.77       1.9  T
   3  -5167.9620444 -0.194193E-06  0.467E-04    2.77       3.5  T
   4  -5167.9620444 -0.160826E-07  0.806E-05    2.77      20.1  T
     SCC iter.                  ...        9 min, 29.890 sec
     gradient                   ...        4 min, 54.112 sec
 * total energy  : -5103.0701606 Eh     change    :  -0.2733189E-03 Eh
   gradient norm :     0.0158048 Eh/a0  converged?    E=F G=F D=F
   time step     :     0.4026275 fs     power     :   0.8390807E-08
   step length   :     0.0289847 a0     speed     :   0.1741329E-02

........................................................................
.............................. CYCLE   31 ..............................
........................................................................

 iter      E             dE          RMSdq      gap      omega  full diag
   1  -5167.9650720 -0.516797E+04  0.146E-03    2.77       0.0  T
   2  -5167.9650729 -0.873275E-06  0.841E-04    2.77       1.9  T
   3  -5167.9650729 -0.301097E-07  0.323E-04    2.77       5.0  T
     SCC iter.                  ...        7 min,  7.492 sec
     gradient                   ...        4 min, 53.664 sec
 * total energy  : -5103.0704934 Eh     change    :  -0.3327856E-03 Eh
   gradient norm :     0.0147753 Eh/a0  converged?    E=F G=F D=F
   time step     :     0.4428903 fs     power     :   0.9534988E-08
   step length   :     0.0325285 a0     speed     :   0.1776574E-02

........................................................................
.............................. CYCLE   32 ..............................
........................................................................

 iter      E             dE          RMSdq      gap      omega  full diag
   1  -5167.9751115 -0.516798E+04  0.206E-03    2.78       0.0  T
   2  -5167.9751185 -0.693871E-05  0.112E-03    2.78       1.4  T
   3  -5167.9751189 -0.408411E-06  0.620E-04    2.78       2.6  T
   4  -5167.9751189 -0.179680E-07  0.969E-05    2.78      16.7  T
     SCC iter.                  ...        9 min, 25.961 sec
     gradient                   ...        4 min, 52.459 sec
 * total energy  : -5103.0708758 Eh     change    :  -0.3824479E-03 Eh
   gradient norm :     0.0115410 Eh/a0  converged?    E=F G=F D=F
   time step     :     0.4871793 fs     power     :   0.9513497E-08
   step length   :     0.0371568 a0     speed     :   0.1844863E-02

........................................................................
.............................. CYCLE   33 ..............................
........................................................................

 iter      E             dE          RMSdq      gap      omega  full diag
   1  -5167.9884402 -0.516799E+04  0.243E-03    2.78       0.0  T
   2  -5167.9884503 -0.101194E-04  0.130E-03    2.78       1.2  T
   3  -5167.9884509 -0.579549E-06  0.721E-04    2.78       2.2  T
   4  -5167.9884509 -0.188656E-07  0.124E-04    2.78      13.1  T
     SCC iter.                  ...        9 min, 28.605 sec
     gradient                   ...        4 min, 53.925 sec
 * total energy  : -5103.0712587 Eh     change    :  -0.3828375E-03 Eh
   gradient norm :     0.0125446 Eh/a0  converged?    E=F G=F D=F
   time step     :     0.5358972 fs     power     :   0.8351103E-08
   step length   :     0.0428850 a0     speed     :   0.1935706E-02

........................................................................
.............................. CYCLE   34 ..............................
........................................................................

 iter      E             dE          RMSdq      gap      omega  full diag
   1  -5167.9963486 -0.516800E+04  0.210E-03    2.77       0.0  T
   2  -5167.9963500 -0.144306E-05  0.121E-03    2.77       1.3  T
   3  -5167.9963500 -0.261980E-07  0.423E-04    2.77       3.8  T
   4  -5167.9963501 -0.909222E-07  0.664E-05    2.78      24.4  T
     SCC iter.                  ...        9 min, 28.336 sec
     gradient                   ...        4 min, 54.408 sec
 * total energy  : -5103.0716736 Eh     change    :  -0.4149715E-03 Eh
   gradient norm :     0.0131885 Eh/a0  converged?    E=F G=F D=F
   time step     :     0.5894869 fs     power     :   0.8710314E-08
   step length   :     0.0485591 a0     speed     :   0.1992559E-02

........................................................................
.............................. CYCLE   35 ..............................
........................................................................

 iter      E             dE          RMSdq      gap      omega  full diag
   1  -5167.9941639 -0.516799E+04  0.283E-03    2.77       0.0  T
   2  -5167.9941742 -0.103182E-04  0.153E-03    2.77       1.1  T
   3  -5167.9941748 -0.573876E-06  0.822E-04    2.77       2.0  T
   4  -5167.9941749 -0.469981E-07  0.117E-04    2.77      13.9  T
     SCC iter.                  ...        9 min, 27.566 sec
     gradient                   ...        4 min, 54.456 sec
 * total energy  : -5103.0721449 Eh     change    :  -0.4712523E-03 Eh
   gradient norm :     0.0100806 Eh/a0  converged?    E=F G=F D=F
   time step     :     0.6484356 fs     power     :   0.8656577E-08
   step length   :     0.0552123 a0     speed     :   0.2059606E-02

........................................................................
.............................. CYCLE   36 ..............................
........................................................................

 iter      E             dE          RMSdq      gap      omega  full diag
   1  -5167.9875836 -0.516799E+04  0.330E-03    2.77       0.0  T
   2  -5167.9875995 -0.158735E-04  0.173E-03    2.77       1.0  T
   3  -5167.9876003 -0.847345E-06  0.945E-04    2.77       1.7  T
   4  -5167.9876003 -0.422733E-07  0.156E-04    2.77      10.4  T
     SCC iter.                  ...        9 min, 26.970 sec
     gradient                   ...        4 min, 54.913 sec
 * total energy  : -5103.0726123 Eh     change    :  -0.4673519E-03 Eh
   gradient norm :     0.0122432 Eh/a0  converged?    E=F G=F D=F
   time step     :     0.7132792 fs     power     :   0.7577154E-08
   step length   :     0.0634245 a0     speed     :   0.2150863E-02

........................................................................
.............................. CYCLE   37 ..............................
........................................................................

 iter      E             dE          RMSdq      gap      omega  full diag
   1  -5167.9903562 -0.516799E+04  0.286E-03    2.78       0.0  T
   2  -5167.9903601 -0.396314E-05  0.165E-03    2.78       1.0  T
   3  -5167.9903603 -0.159773E-06  0.681E-04    2.78       2.4  T
   4  -5167.9903604 -0.169158E-06  0.938E-05    2.77      17.3  T
     SCC iter.                  ...        9 min, 27.550 sec
     gradient                   ...        4 min, 53.713 sec
 * total energy  : -5103.0731403 Eh     change    :  -0.5280002E-03 Eh
   gradient norm :     0.0103356 Eh/a0  converged?    E=F G=F D=F
   time step     :     0.7846071 fs     power     :   0.8193815E-08
   step length   :     0.0714087 a0     speed     :   0.2201477E-02

........................................................................
.............................. CYCLE   38 ..............................
........................................................................

 iter      E             dE          RMSdq      gap      omega  full diag
   1  -5167.9998253 -0.516800E+04  0.377E-03    2.78       0.0  T
   2  -5167.9998439 -0.186573E-04  0.204E-03    2.78       1.0  T
   3  -5167.9998449 -0.103559E-05  0.111E-03    2.78       1.5  T
   4  -5167.9998450 -0.758018E-07  0.178E-04    2.78       9.1  T
   5  -5167.9998451 -0.491882E-07  0.749E-05    2.78      21.7  T
     SCC iter.                  ...       11 min, 52.530 sec
     gradient                   ...        4 min, 53.248 sec
 * total energy  : -5103.0736828 Eh     change    :  -0.5425015E-03 Eh
   gradient norm :     0.0115493 Eh/a0  converged?    E=F G=F D=F
   time step     :     0.8630678 fs     power     :   0.6952259E-08
   step length   :     0.0816002 a0     speed     :   0.2286975E-02

........................................................................
.............................. CYCLE   39 ..............................
........................................................................

 iter      E             dE          RMSdq      gap      omega  full diag
[...]
  3538   6 C     3541   7 N                                       1.3410031
  3541   7 N     3542   6 C                                       1.4433143
  3541   7 N     3543   1 H                                       1.0115924
  3518   6 C     3544   1 H                                       1.0917970
  3518   6 C     3545   1 H                                       1.0912404
  3525   6 C     3546   8 O                                       1.2266950
  3538   6 C     3547   8 O                                       1.2231821
  3542   6 C     3548   6 C                                       1.5243779
  3542   6 C     3549   1 H                                       1.0893971
  3542   6 C     3550   1 H                                       1.0966833
  3548   6 C     3551   6 C                                       1.5256153
  3548   6 C     3552   1 H                                       1.0932634
  3548   6 C     3553   1 H                                       1.0908276
  3551   6 C     3554   6 C                                       1.5254293
  3551   6 C     3555   1 H                                       1.0900767
  3551   6 C     3556   1 H                                       1.0902631
  3554   6 C     3557   6 C                                       1.5267712
  3554   6 C     3558   1 H                                       1.0912970
  3554   6 C     3559   1 H                                       1.0891624
  3557   6 C     3560   6 C                                       1.5247602
  3557   6 C     3561   1 H                                       1.0918387
  3557   6 C     3562   1 H                                       1.0914190
  3560   6 C     3563   7 N                                       1.4449355
  3560   6 C     3564   1 H                                       1.0931714
  3560   6 C     3565   1 H                                       1.0974958
  3563   7 N     3566   6 C                                       1.3292384
  3563   7 N     3567   1 H                                       1.0244879
  3568   6 C     3569   6 C                                       1.5324087
  3568   6 C     3570   1 H                                       1.0889360
  3568   6 C     3571   1 H                                       1.0910943
  3569   6 C     3572   6 C                                       1.5264606
  3569   6 C     3573   1 H                                       1.0922672
  3569   6 C     3574   1 H                                       1.0913235
  3572   6 C     3575   6 C                                       1.5288042
  3572   6 C     3576   1 H                                       1.0907159
  3572   6 C     3577   1 H                                       1.0913734
  3575   6 C     3579   1 H                                       1.0890807
  3575   6 C     3580   1 H                                       1.0904042
  3578   6 C     3581   7 N                                       1.3457785
  3581   7 N     3582   6 C                                       1.4436232
  3581   7 N     3583   1 H                                       1.0157357
  3566   6 C     3584   8 O                                       1.2324462
  3582   6 C     3585   6 C                                       1.5299158
  3582   6 C     3586   1 H                                       1.0957330
  3582   6 C     3587   1 H                                       1.0927417
  3585   6 C     3588   6 C                                       1.5264125
  3585   6 C     3589   1 H                                       1.0921343
  3585   6 C     3590   1 H                                       1.0930181
  3588   6 C     3591   6 C                                       1.5319483
  3588   6 C     3592   1 H                                       1.0921768
  3588   6 C     3593   1 H                                       1.0917625
  3591   6 C     3594   6 C                                       1.5372316
  3591   6 C     3595   1 H                                       1.0920232
  3591   6 C     3596   1 H                                       1.0907221
  3594   6 C     3597   6 C                                       1.5266906
  3594   6 C     3598   1 H                                       1.0901730
  3594   6 C     3599   1 H                                       1.0909205
  3597   6 C     3600   7 N                                       1.4480634
  3597   6 C     3601   1 H                                       1.0934429
  3597   6 C     3602   1 H                                       1.0977337
  3578   6 C     3603   8 O                                       1.2200906
  3600   7 N     3604   6 C                                       1.3431865
  3600   7 N     3605   1 H                                       1.0079697
  3606   6 C     3607   6 C                                       1.5390086
  3606   6 C     3608   1 H                                       1.0897345
  3606   6 C     3609   1 H                                       1.0887776
  3607   6 C     3610   6 C                                       1.5249364
  3607   6 C     3611   1 H                                       1.0915050
  3607   6 C     3612   1 H                                       1.0940672
  3610   6 C     3613   6 C                                       1.5286410
  3610   6 C     3614   1 H                                       1.0915879
  3610   6 C     3615   1 H                                       1.0902006
  3613   6 C     3617   1 H                                       1.0900687
  3613   6 C     3618   1 H                                       1.0878772
  3616   6 C     3619   7 N                                       1.3350119
  3604   6 C     3620   8 O                                       1.2231910
  3619   7 N     3621   6 C                                       1.4433134
  3619   7 N     3622   1 H                                       1.0181269
  3621   6 C     3623   6 C                                       1.5280338
  3621   6 C     3624   1 H                                       1.0925510
  3621   6 C     3625   1 H                                       1.0971618
  3623   6 C     3626   6 C                                       1.5305840
  3623   6 C     3627   1 H                                       1.0917552
  3623   6 C     3628   1 H                                       1.0926632
  3626   6 C     3629   6 C                                       1.5340549
  3626   6 C     3630   1 H                                       1.0930440
  3626   6 C     3631   1 H                                       1.0905613
  3629   6 C     3632   6 C                                       1.5306663
  3629   6 C     3633   1 H                                       1.0898503
  3629   6 C     3634   1 H                                       1.0920490
  3632   6 C     3635   6 C                                       1.5269168
  3632   6 C     3636   1 H                                       1.0919075
  3632   6 C     3637   1 H                                       1.0922241
  3635   6 C     3638   7 N                                       1.4447078
  3635   6 C     3639   1 H                                       1.0987570
  3635   6 C     3640   1 H                                       1.0924355
  3638   7 N     3641   6 C                                       1.3332702
  3638   7 N     3642   1 H                                       1.0182810
  3616   6 C     3643   8 O                                       1.2283883
  3644   6 C     3645   6 C                                       1.5303522
  3644   6 C     3646   1 H                                       1.0905398
  3644   6 C     3647   1 H                                       1.0890376
  3645   6 C     3648   6 C                                       1.5272749
  3645   6 C     3649   1 H                                       1.0908763
  3645   6 C     3650   1 H                                       1.0917650
  3648   6 C     3651   6 C                                       1.5321877
  3648   6 C     3652   1 H                                       1.0916682
  3648   6 C     3653   1 H                                       1.0900407
  3651   6 C     3655   1 H                                       1.0873783
  3651   6 C     3656   1 H                                       1.0909208
  3654   6 C     3657   7 N                                       1.3331376
  3657   7 N     3658   6 C                                       1.4486664
  3657   7 N     3659   1 H                                       1.0161676
  3641   6 C     3660   8 O                                       1.2293782
  3658   6 C     3661   6 C                                       1.5265373
  3658   6 C     3662   1 H                                       1.0961064
  3658   6 C     3663   1 H                                       1.0912024
  3661   6 C     3664   6 C                                       1.5307212
  3661   6 C     3665   1 H                                       1.0911622
  3661   6 C     3666   1 H                                       1.0885918
  3664   6 C     3667   6 C                                       1.5284945
  3664   6 C     3668   1 H                                       1.0917899
  3664   6 C     3669   1 H                                       1.0878558
  3667   6 C     3670   6 C                                       1.5318163
  3667   6 C     3671   1 H                                       1.0919170
  3667   6 C     3672   1 H                                       1.0905075
  3670   6 C     3673   6 C                                       1.5217289
  3670   6 C     3674   1 H                                       1.0909980
  3670   6 C     3675   1 H                                       1.0908386
  3673   6 C     3676   7 N                                       1.4479223
  3673   6 C     3677   1 H                                       1.0936443
  3673   6 C     3678   1 H                                       1.0962925
  3676   7 N     3679   6 C                                       1.3367081
  3676   7 N     3680   1 H                                       1.0147595
  3654   6 C     3681   8 O                                       1.2276654
  3682   6 C     3683   6 C                                       1.5310427
  3682   6 C     3684   1 H                                       1.0896988
  3682   6 C     3685   1 H                                       1.0920126
  3683   6 C     3686   6 C                                       1.5281666
  3683   6 C     3687   1 H                                       1.0905292
  3683   6 C     3688   1 H                                       1.0908605
  3686   6 C     3689   6 C                                       1.5308631
  3686   6 C     3690   1 H                                       1.0903936
  3686   6 C     3691   1 H                                       1.0909902
  3689   6 C     3693   1 H                                       1.0912954
  3689   6 C     3694   1 H                                       1.0919874
  3692   6 C     3695   7 N                                       1.3328292
  3679   6 C     3696   8 O                                       1.2267184
  3695   7 N     3697   6 C                                       1.4462635
  3695   7 N     3698   1 H                                       1.0175100
  3697   6 C     3699   6 C                                       1.5316964
  3697   6 C     3700   1 H                                       1.0936503
  3697   6 C     3701   1 H                                       1.0938856
  3699   6 C     3702   6 C                                       1.5315204
  3699   6 C     3703   1 H                                       1.0916262
  3699   6 C     3704   1 H                                       1.0923195
  3702   6 C     3705   6 C                                       1.5395565 (max)
  3702   6 C     3706   1 H                                       1.0892628
  3702   6 C     3707   1 H                                       1.0907656
  3705   6 C     3708   6 C                                       1.5300155
  3705   6 C     3709   1 H                                       1.0910304
  3705   6 C     3710   1 H                                       1.0930159
  3708   6 C     3711   6 C                                       1.5234951
  3708   6 C     3712   1 H                                       1.0905874
  3708   6 C     3713   1 H                                       1.0917243
  3711   6 C     3714   7 N                                       1.4462160
  3711   6 C     3715   1 H                                       1.1006984
  3711   6 C     3716   1 H                                       1.0939921
  3714   7 N     3717   6 C                                       1.3444331
  3714   7 N     3718   1 H                                       1.0150493
  3692   6 C     3719   8 O                                       1.2303295
  3720   6 C     3721   6 C                                       1.5359633
  3720   6 C     3722   1 H                                       1.0907972
  3720   6 C     3723   1 H                                       1.0904990
  3721   6 C     3724   6 C                                       1.5259372
  3721   6 C     3725   1 H                                       1.0906000
  3721   6 C     3726   1 H                                       1.0900678
  3724   6 C     3727   6 C                                       1.5335504
  3724   6 C     3728   1 H                                       1.0908399
  3724   6 C     3729   1 H                                       1.0917505
  3727   6 C     3731   1 H                                       1.0910485
  3727   6 C     3732   1 H                                       1.0907928
  3730   6 C     3733   7 N                                       1.3338732
  3733   7 N     3734   6 C                                       1.4440701
  3733   7 N     3735   1 H                                       1.0198318
  3717   6 C     3736   8 O                                       1.2213669
  3734   6 C     3737   6 C                                       1.5272153
  3734   6 C     3738   1 H                                       1.0964530
  3734   6 C     3739   1 H                                       1.0926836
  3737   6 C     3740   6 C                                       1.5258334
  3737   6 C     3741   1 H                                       1.0907663
  3737   6 C     3742   1 H                                       1.0887604
  3740   6 C     3743   6 C                                       1.5307280
  3740   6 C     3744   1 H                                       1.0926040
  3740   6 C     3745   1 H                                       1.0906430
  3743   6 C     3746   6 C                                       1.5280860
  3743   6 C     3747   1 H                                       1.0901648
  3743   6 C     3748   1 H                                       1.0927374
  3746   6 C     3749   6 C                                       1.5258342
  3746   6 C     3750   1 H                                       1.0922067
  3746   6 C     3751   1 H                                       1.0912418
  3749   6 C     3752   7 N                                       1.4472438
  3749   6 C     3753   1 H                                       1.0953769
  3749   6 C     3754   1 H                                       1.0989186
  3752   7 N     3755   6 C                                       1.3365844
  3752   7 N     3756   1 H                                       1.0190446
  3730   6 C     3757   8 O                                       1.2291789
  3758   6 C     3759   6 C                                       1.5267958
  3758   6 C     3760   1 H                                       1.0937686
  3758   6 C     3761   1 H                                       1.0912199
  3759   6 C     3762   6 C                                       1.5265038
  3759   6 C     3763   1 H                                       1.0917682
  3759   6 C     3764   1 H                                       1.0910972
  3762   6 C     3765   6 C                                       1.5253324
  3762   6 C     3766   1 H                                       1.0913594
  3762   6 C     3767   1 H                                       1.0934416
  3765   6 C     3769   1 H                                       1.0902810
  3765   6 C     3770   1 H                                       1.0935302
  3768   6 C     3771   7 N                                       1.3355159
  3755   6 C     3772   8 O                                       1.2267368
  3771   7 N     3773   6 C                                       1.4469710
  3771   7 N     3774   1 H                                       1.0189017
  3773   6 C     3775   6 C                                       1.5273431
  3773   6 C     3776   1 H                                       1.0973381
  3773   6 C     3777   1 H                                       1.0923937
  3775   6 C     3778   6 C                                       1.5248240
  3775   6 C     3779   1 H                                       1.0894988
  3775   6 C     3780   1 H                                       1.0925165
  3778   6 C     3781   6 C                                       1.5289905
  3778   6 C     3782   1 H                                       1.0921766
  3778   6 C     3783   1 H                                       1.0925515
  3781   6 C     3784   6 C                                       1.5263551
  3781   6 C     3785   1 H                                       1.0927235
  3781   6 C     3786   1 H                                       1.0932735
  3784   6 C     3787   6 C                                       1.5383294
  3784   6 C     3788   1 H                                       1.0920717
  3784   6 C     3789   1 H                                       1.0937054
  3787   6 C     3790   7 N                                       1.4510325
  3787   6 C     3791   1 H                                       1.0932704
  3787   6 C     3792   1 H                                       1.0952149
  3790   7 N     3793   1 H                                       1.0152376
  3790   7 N     3794   1 H                                       1.0152664
  3768   6 C     3795   8 O                                       1.2261785

 * 6 distinct bonds (by element types)

   Z      Z             #   av. dist./Å        max./Å        min./Å
   1 H    6 C        1980     1.0920380     1.1026691     1.0854996
   6 C    6 C         792     1.5284686     1.5395565     1.5187330
   1 H    7 N         209     1.0152454     1.0257620     1.0056382
   6 C    7 N         385     1.3935872     1.4642996     1.3245024
   1 H    8 O           7     0.9926401     1.0005456     0.9698554
   6 C    8 O         209     1.2313667     1.3349176     1.2056441


optimized geometry written to: xtbopt.xyz


           -------------------------------------------------
          | TOTAL ENERGY            -5103.106558049104 Eh   |
          | GRADIENT NORM               0.000903507266 Eh/α |
          | HOMO-LUMO GAP               2.779545539521 eV   |
           -------------------------------------------------

------------------------------------------------------------------------
 * finished run on 2024/10/16 at 18:45:27.270     
------------------------------------------------------------------------
 total:
 * wall-time:     7 d, 18 h, 55 min, 19.440 sec
 *  cpu-time:    48 d, 10 h,  7 min, 42.296 sec
 * ratio c/w:     6.217 speedup
 SCF:
 * wall-time:     0 d,  0 h, 31 min, 22.272 sec
 *  cpu-time:     0 d,  3 h, 41 min, 41.308 sec
 * ratio c/w:     7.067 speedup
 ANC optimizer:
 * wall-time:     7 d, 18 h, 22 min, 51.651 sec
 *  cpu-time:    48 d,  6 h, 24 min, 35.320 sec
 * ratio c/w:     6.215 speedup

