      -----------------------------------------------------------      
     |                   =====================                   |     
     |                           x T B                           |     
     |                   =====================                   |     
     |                         S. Grimme                         |     
     |          Mulliken Center for Theoretical Chemistry        |     
     |                    University of Bonn                     |     
      -----------------------------------------------------------      

   * xtb version 6.6.1 (8d0f1dd) compiled by 'stahn@M-Bot' on 2023-08-01

   xtb is free software: you can redistribute it and/or modify it under
   the terms of the GNU Lesser General Public License as published by
   the Free Software Foundation, either version 3 of the License, or
   (at your option) any later version.
   
   xtb is distributed in the hope that it will be useful,
   but WITHOUT ANY WARRANTY; without even the implied warranty of
   MERCHANTABILITY or FITNESS FOR A PARTICULAR PURPOSE.  See the
   GNU Lesser General Public License for more details.
   
   Cite this work as:
   * C. Bannwarth, E. Caldeweyher, S. Ehlert, A. Hansen, P. Pracht,
     J. Seibert, S. Spicher, S. Grimme, WIREs Comput. Mol. Sci., 2020, 11,
     e01493. DOI: 10.1002/wcms.1493
   
   for GFN2-xTB:
   * C. Bannwarth, S. Ehlert and S. Grimme., J. Chem. Theory Comput., 2019,
     15, 1652-1671. DOI: 10.1021/acs.jctc.8b01176
   for GFN1-xTB:
   * S. Grimme, C. Bannwarth, P. Shushkov, J. Chem. Theory Comput., 2017,
     13, 1989-2009. DOI: 10.1021/acs.jctc.7b00118
   for GFN0-xTB:
   * P. Pracht, E. Caldeweyher, S. Ehlert, S. Grimme, ChemRxiv, 2019, preprint.
     DOI: 10.26434/chemrxiv.8326202.v1
   for GFN-FF:
   * S. Spicher and S. Grimme, Angew. Chem. Int. Ed., 2020, 59, 15665-15673.
     DOI: 10.1002/anie.202004239
   
   for ALPB and GBSA implicit solvation:
   * S. Ehlert, M. Stahn, S. Spicher, S. Grimme, J. Chem. Theory Comput.,
     2021, 17, 4250-4261. DOI: 10.1021/acs.jctc.1c00471
   
   for DFT-D4:
   * E. Caldeweyher, C. Bannwarth and S. Grimme, J. Chem. Phys., 2017,
     147, 034112. DOI: 10.1063/1.4993215
   * E. Caldeweyher, S. Ehlert, A. Hansen, H. Neugebauer, S. Spicher,
     C. Bannwarth and S. Grimme, J. Chem. Phys., 2019, 150, 154122.
     DOI: 10.1063/1.5090222
   * E. Caldeweyher, J.-M. Mewes, S. Ehlert and S. Grimme, Phys. Chem. Chem. Phys.
     2020, 22, 8499-8512. DOI: 10.1039/D0CP00502A
   
   for sTDA-xTB:
   * S. Grimme and C. Bannwarth, J. Chem. Phys., 2016, 145, 054103.
     DOI: 10.1063/1.4959605
   
   in the mass-spec context:
   * V. Asgeirsson, C. Bauer and S. Grimme, Chem. Sci., 2017, 8, 4879.
     DOI: 10.1039/c7sc00601b
   * J. Koopman and S. Grimme, ACS Omega 2019, 4, 12, 15120-15133.
     DOI: 10.1021/acsomega.9b02011
   
   for metadynamics refer to:
   * S. Grimme, J. Chem. Theory Comput., 2019, 155, 2847-2862
     DOI: 10.1021/acs.jctc.9b00143
   
   for SPH calculations refer to:
   * S. Spicher and S. Grimme, J. Chem. Theory Comput., 2021, 17, 1701-1714
     DOI: 10.1021/acs.jctc.0c01306
   
   with help from (in alphabetical order)
   P. Atkinson, C. Bannwarth, F. Bohle, G. Brandenburg, E. Caldeweyher
   M. Checinski, S. Dohm, S. Ehlert, S. Ehrlich, I. Gerasimov, C. Hölzer
   A. Katbashev, J. Koopman, C. Lavigne, S. Lehtola, F. März, M. Müller,
   F. Musil, H. Neugebauer, J. Pisarek, C. Plett, P. Pracht, F. Pultar,
   J. Seibert, P. Shushkov, S. Spicher, M. Stahn, M. Steiner, T. Strunk,
   J. Stückrath, T. Rose, and J. Unsleber
   
 * started run on 2024/10/04 at 03:00:47.134     

           -------------------------------------------------
          |                Calculation Setup                |
           -------------------------------------------------

          program call               : /home/abt-grimme/AK-bin/xtb input.xyz --input input.inp --opt
          hostname                   : boar019.thch.uni-bonn.de
          coordinate file            : input.xyz
          omp threads                :                     8

   ID    Z sym.   atoms
    1    6 C      1-120, 363-482, 725-844, 1087-1206, 1449-1568, 1811-1930,
                  2173-2292, 2535-2654, 2897-3016
    2    1 H      121-362, 483-724, 845-1086, 1207-1448, 1569-1810,
                  1931-2172, 2293-2534, 2655-2896, 3017-3258

molecular fragmentation (1/2 indicates fragments):
111111111111111111111111111111111111111111111111111111111111111111111111
111111111111111111111111111111111111111111111111111111111111111111111111
111111111111111111111111111111111111111111111111111111111111111111111111
111111111111111111111111111111111111111111111111111111111111111111111111
111111111111111111111111111111111111111111111111111111111111111111111111
112222222222222222222222222222222222222222222222222222222222222222222222
222222222222222222222222222222222222222222222222222222222222222222222222
222222222222222222222222222222222222222222222222222222222222222222222222
222222222222222222222222222222222222222222222222222222222222222222222222
222222222222222222222222222222222222222222222222222222222222222222222222
222222222222222222222222222222222222222222222222222222222222222222222222
222222222222222222222222222222222222222222222222222222222222222222222222
222222222222222222222222222222222222222222222222222222222222222222222222
222222222222222222222222222222222222222222222222222222222222222222222222
222222222222222222222222222222222222222222222222222222222222222222222222
222222222222222222222222222222222222222222222222222222222222222222222222
222222222222222222222222222222222222222222222222222222222222222222222222
222222222222222222222222222222222222222222222222222222222222222222222222
222222222222222222222222222222222222222222222222222222222222222222222222
222222222222222222222222222222222222222222222222222222222222222222222222
222222222222222222222222222222222222222222222222222222222222222222222222
222222222222222222222222222222222222222222222222222222222222222222222222
222222222222222222222222222222222222222222222222222222222222222222222222
222222222222222222222222222222222222222222222222222222222222222222222222
222222222222222222222222222222222222222222222222222222222222222222222222
222222222222222222222222222222222222222222222222222222222222222222222222
222222222222222222222222222222222222222222222222222222222222222222222222
222222222222222222222222222222222222222222222222222222222222222222222222
222222222222222222222222222222222222222222222222222222222222222222222222
222222222222222222222222222222222222222222222222222222222222222222222222
222222222222222222222222222222222222222222222222222222222222222222222222
222222222222222222222222222222222222222222222222222222222222222222222222
222222222222222222222222222222222222222222222222222222222222222222222222
222222222222222222222222222222222222222222222222222222222222222222222222
222222222222222222222222222222222222222222222222222222222222222222222222
222222222222222222222222222222222222222222222222222222222222222222222222
222222222222222222222222222222222222222222222222222222222222222222222222
222222222222222222222222222222222222222222222222222222222222222222222222
222222222222222222222222222222222222222222222222222222222222222222222222
222222222222222222222222222222222222222222222222222222222222222222222222
222222222222222222222222222222222222222222222222222222222222222222222222
222222222222222222222222222222222222222222222222222222222222222222222222
222222222222222222222222222222222222222222222222222222222222222222222222
222222222222222222222222222222222222222222222222222222222222222222222222
222222222222222222222222222222222222222222222222222222222222222222222222
222222222222222222
# atoms in fragment 1/2:   362  2896
 fragment masses (1/2) :     1685.21    13481.68
CMA distance (Bohr)    :  17.094
constraining FC (au)   :  0.0500

           -------------------------------------------------
          |                 G F N 2 - x T B                 |
           -------------------------------------------------

        Reference                      10.1021/acs.jctc.8b01176
      * Hamiltonian:
        H0-scaling (s, p, d)           1.850000    2.230000    2.230000
        zeta-weighting                 0.500000
      * Dispersion:
        s8                             2.700000
        a1                             0.520000
        a2                             5.000000
        s9                             5.000000
      * Repulsion:
        kExp                           1.500000    1.000000
        rExp                           1.000000
      * Coulomb:
        alpha                          2.000000
        third order                    shell-resolved
        anisotropic                    true
        a3                             3.000000
        a5                             4.000000
        cn-shift                       1.200000
        cn-exp                         4.000000
        max-rad                        5.000000


          ...................................................
          :                      SETUP                      :
          :.................................................:
          :  # basis functions                6498          :
          :  # atomic orbitals                6498          :
          :  # shells                         4338          :
          :  # electrons                      6498          :
          :  max. iterations                   250          :
          :  Hamiltonian                  GFN2-xTB          :
          :  restarted?                      false          :
          :  GBSA solvation                  false          :
          :  PC potential                    false          :
          :  electronic temp.          300.0000000     K    :
          :  accuracy                    1.0000000          :
          :  -> integral cutoff          0.2500000E+02      :
          :  -> integral neglect         0.1000000E-07      :
          :  -> SCF convergence          0.1000000E-05 Eh   :
          :  -> wf. convergence          0.1000000E-03 e    :
          :  Broyden damping             0.4000000          :
          ...................................................

 iter      E             dE          RMSdq      gap      omega  full diag
   1  -3473.4248093 -0.347342E+04  0.245E+00   11.37       0.0  T
   2  -3478.5249664 -0.510016E+01  0.135E+00   11.50       1.0  T
   3  -3478.7283044 -0.203338E+00  0.599E-01   11.46       1.0  T
   4  -3478.7487714 -0.204670E-01  0.758E-02   11.48       1.0  T
   5  -3478.7497683 -0.996851E-03  0.394E-02   11.48       1.0  T
   6  -3478.7499721 -0.203825E-03  0.674E-03   11.48       1.0  T
   7  -3478.7499892 -0.171196E-04  0.127E-03   11.48       1.4  T
   8  -3478.7499903 -0.112244E-05  0.399E-04   11.48       4.4  T
   9  -3478.7499904 -0.729074E-07  0.143E-04   11.48      12.3  T
  10  -3478.7499904 -0.374666E-08  0.436E-05   11.48      40.2  T

   *** convergence criteria satisfied after 10 iterations ***

         #    Occupation            Energy/Eh            Energy/eV
      -------------------------------------------------------------
         1        2.0000           -0.6245655             -16.9953
       ...           ...                  ...                  ...
      3243        2.0000           -0.4020034             -10.9391
      3244        2.0000           -0.4019017             -10.9363
      3245        2.0000           -0.4018112             -10.9338
      3246        2.0000           -0.4015341             -10.9263
      3247        2.0000           -0.4012350             -10.9182
      3248        2.0000           -0.4011609             -10.9161
      3249        2.0000           -0.4010165             -10.9122 (HOMO)
      3250                          0.0209611               0.5704 (LUMO)
      3251                          0.0215779               0.5872
      3252                          0.0219264               0.5966
      3253                          0.0228930               0.6230
      3254                          0.0233889               0.6364
       ...                                ...                  ...
      6498                          0.3860744              10.5056
      -------------------------------------------------------------
                  HL-Gap            0.4219776 Eh           11.4826 eV
             Fermi-level           -0.1900277 Eh           -5.1709 eV

 SCC (total)                   0 d,  0 h, 14 min,  2.806 sec
 SCC setup                      ...        0 min,  0.434 sec (  0.052%)
 Dispersion                     ...        0 min,  3.595 sec (  0.427%)
 classical contributions        ...        0 min,  0.138 sec (  0.016%)
 integral evaluation            ...        0 min,  6.018 sec (  0.714%)
 iterations                     ...       10 min,  2.952 sec ( 71.541%)
 molecular gradient             ...        3 min, 41.211 sec ( 26.247%)
 printout                       ...        0 min,  8.457 sec (  1.003%)

         :::::::::::::::::::::::::::::::::::::::::::::::::::::
         ::                     SUMMARY                     ::
         :::::::::::::::::::::::::::::::::::::::::::::::::::::
         :: total energy           -3427.501887091008 Eh    ::
         :: gradient norm              0.018658095820 Eh/a0 ::
         :: HOMO-LUMO gap             11.482595081867 eV    ::
         ::.................................................::
         :: SCC energy             -3478.749990396651 Eh    ::
         :: -> isotropic ES            0.420878579223 Eh    ::
         :: -> anisotropic ES          1.112893698790 Eh    ::
         :: -> anisotropic XC          1.945998671447 Eh    ::
         :: -> dispersion             -4.049028184639 Eh    ::
         :: repulsion energy          50.604497923680 Eh    ::
         :: add. restraining           0.000000000000 Eh    ::
         :: total charge              -0.000000000014 e     ::
         :::::::::::::::::::::::::::::::::::::::::::::::::::::

      ----------------------------------------------------------- 
     |              Fast Inertial Relaxation Engine              |
      ----------------------------------------------------------- 

          ...................................................
          :                      SETUP                      :
          :.................................................:
          :   energy convergence        0.5000000E-05 Eh    :
          :   grad. convergence         0.1000000E-02 Eh/a0 :
          :   optimization log               true           :
          :   writing optlog all                1     steps :
          :   Hessian reset                    20     steps :
          :   time step scaling                 5     steps :
          :   maximium step len.        1.0000000     a0    :
          :   initial time step         0.2500000     fs    :
          :   maximum time step         1.2500000     fs    :
          :   power reset thr           0.0000000     au    :
          :   alpha parameter           0.1000000           :
          :   BFGS update                   false           :
          :   preconditioning               false           :
          ...................................................

........................................................................
.............................. CYCLE    1 ..............................
........................................................................

 iter      E             dE          RMSdq      gap      omega  full diag
   1  -3478.7535969 -0.347875E+04  0.270E-04   11.48       0.0  T
   2  -3478.7535969 -0.290629E-07  0.154E-04   11.48      11.4  T
   3  -3478.7535969 -0.628006E-09  0.496E-05   11.48      35.4  T
     SCC iter.                  ...        3 min,  2.364 sec
     gradient                   ...        3 min, 41.598 sec
 * total energy  : -3427.5019262 Eh     change    :  -0.3915397E-04 Eh
   gradient norm :     0.0171581 Eh/a0  converged?    E=F G=F D=F
   time step     :     0.2500000 fs     power     :   0.1990959E-08
   step length   :     0.0021867 a0     speed     :   0.2115739E-03

........................................................................
.............................. CYCLE    2 ..............................
........................................................................

 iter      E             dE          RMSdq      gap      omega  full diag
   1  -3478.7588457 -0.347876E+04  0.391E-04   11.48       0.0  T
   2  -3478.7588458 -0.609043E-07  0.223E-04   11.48       7.9  T
   3  -3478.7588458 -0.120099E-08  0.717E-05   11.48      24.4  T
     SCC iter.                  ...        3 min,  1.306 sec
     gradient                   ...        3 min, 46.090 sec
 * total energy  : -3427.5019776 Eh     change    :  -0.5130903E-04 Eh
   gradient norm :     0.0150012 Eh/a0  converged?    E=F G=F D=F
   time step     :     0.2500000 fs     power     :   0.2537939E-08
   step length   :     0.0031919 a0     speed     :   0.3088379E-03

........................................................................
.............................. CYCLE    3 ..............................
........................................................................

 iter      E             dE          RMSdq      gap      omega  full diag
   1  -3478.7655061 -0.347877E+04  0.498E-04   11.48       0.0  T
   2  -3478.7655062 -0.980599E-07  0.284E-04   11.48       6.2  T
   3  -3478.7655062 -0.207456E-08  0.908E-05   11.48      19.3  T
     SCC iter.                  ...        2 min, 56.225 sec
     gradient                   ...        3 min, 40.253 sec
 * total energy  : -3427.5020330 Eh     change    :  -0.5543869E-04 Eh
   gradient norm :     0.0123086 Eh/a0  converged?    E=F G=F D=F
   time step     :     0.2500000 fs     power     :   0.2643975E-08
   step length   :     0.0040698 a0     speed     :   0.3937753E-03

........................................................................
.............................. CYCLE    4 ..............................
........................................................................

 iter      E             dE          RMSdq      gap      omega  full diag
   1  -3478.7732800 -0.347877E+04  0.584E-04   11.48       0.0  T
   2  -3478.7732802 -0.133064E-06  0.333E-04   11.48       5.3  T
   3  -3478.7732802 -0.287855E-08  0.106E-04   11.48      16.6  T
     SCC iter.                  ...        2 min, 54.523 sec
     gradient                   ...        3 min, 41.852 sec
 * total energy  : -3427.5020841 Eh     change    :  -0.5111774E-04 Eh
   gradient norm :     0.0092743 Eh/a0  converged?    E=F G=F D=F
   time step     :     0.2500000 fs     power     :   0.2305997E-08
   step length   :     0.0047862 a0     speed     :   0.4630944E-03

........................................................................
.............................. CYCLE    5 ..............................
........................................................................

 iter      E             dE          RMSdq      gap      omega  full diag
   1  -3478.7817999 -0.347878E+04  0.645E-04   11.48       0.0  T
   2  -3478.7818000 -0.158788E-06  0.368E-04   11.48       4.8  T
   3  -3478.7818000 -0.347745E-08  0.115E-04   11.48      15.3  T
     SCC iter.                  ...        2 min, 57.060 sec
     gradient                   ...        3 min, 41.026 sec
 * total energy  : -3427.5021236 Eh     change    :  -0.3944080E-04 Eh
   gradient norm :     0.0062584 Eh/a0  converged?    E=F G=F D=F
   time step     :     0.2500000 fs     power     :   0.1603008E-08
   step length   :     0.0053121 a0     speed     :   0.5139754E-03

........................................................................
.............................. CYCLE    6 ..............................
........................................................................

 iter      E             dE          RMSdq      gap      omega  full diag
   1  -3478.7915088 -0.347879E+04  0.747E-04   11.48       0.0  T
   2  -3478.7915090 -0.203677E-06  0.427E-04   11.48       4.1  T
   3  -3478.7915090 -0.461432E-08  0.129E-04   11.48      13.6  T
     SCC iter.                  ...        2 min, 58.367 sec
     gradient                   ...        3 min, 42.190 sec
 * total energy  : -3427.5021479 Eh     change    :  -0.2438409E-04 Eh
   gradient norm :     0.0041097 Eh/a0  converged?    E=F G=F D=F
   time step     :     0.2750000 fs     power     :   0.5964453E-09
   step length   :     0.0062078 a0     speed     :   0.5460369E-03

........................................................................
.............................. CYCLE    7 ..............................
........................................................................

 iter      E             dE          RMSdq      gap      omega  full diag
   1  -3478.8013715 -0.347880E+04  0.795E-04   11.48       0.0  T
   2  -3478.8013717 -0.204464E-06  0.457E-04   11.48       3.8  T
   3  -3478.8013717 -0.489354E-08  0.126E-04   11.48      13.9  T
     SCC iter.                  ...        2 min, 57.593 sec
     gradient                   ...        3 min, 41.470 sec
 * total energy  : -3427.5021519 Eh     change    :  -0.3968916E-05 Eh
   gradient norm :     0.0051442 Eh/a0  converged?    E=T G=F D=F
   time step     :     0.3025000 fs     power     :  -0.3800450E-09
   step length   :     0.0067115 a0     speed     :   0.5366761E-03

........................................................................
.............................. CYCLE    8 ..............................
........................................................................
 * reset velocities

 iter      E             dE          RMSdq      gap      omega  full diag
   1  -3478.8012498 -0.347880E+04  0.138E-05   11.48       0.0  T
   2  -3478.8012498 -0.152340E-09  0.730E-06   11.48     239.9  T
   3  -3478.8012498 -0.231921E-10  0.332E-06   11.48     528.1  T
     SCC iter.                  ...        2 min, 55.270 sec
     gradient                   ...        3 min, 42.879 sec
 * total energy  : -3427.5021525 Eh     change    :  -0.5655506E-06 Eh
   gradient norm :     0.0050822 Eh/a0  converged?    E=T G=F D=T
   time step     :     0.1512500 fs     power     :   0.4919495E-10
   step length   :     0.0001103 a0     speed     :   0.1764581E-04

........................................................................
.............................. CYCLE    9 ..............................
........................................................................

 iter      E             dE          RMSdq      gap      omega  full diag
   1  -3478.8010084 -0.347880E+04  0.275E-05   11.48       0.0  T
   2  -3478.8010084 -0.191903E-09  0.160E-05   11.48     109.5  T
   3  -3478.8010084 -0.341061E-10  0.395E-06   11.48     443.7  T
     SCC iter.                  ...        2 min, 54.798 sec
     gradient                   ...        3 min, 41.277 sec
 * total energy  : -3427.5021536 Eh     change    :  -0.1102049E-05 Eh
   gradient norm :     0.0049667 Eh/a0  converged?    E=T G=F D=T
   time step     :     0.1512500 fs     power     :   0.9556114E-10
   step length   :     0.0002193 a0     speed     :   0.3507855E-04

........................................................................
.............................. CYCLE   10 ..............................
........................................................................

 iter      E             dE          RMSdq      gap      omega  full diag
   1  -3478.8006525 -0.347880E+04  0.403E-05   11.48       0.0  T
   2  -3478.8006525 -0.448836E-09  0.235E-05   11.48      74.6  T
   3  -3478.8006525  0.200089E-10  0.583E-06   11.48     300.7  T
     SCC iter.                  ...        2 min, 59.738 sec
     gradient                   ...        3 min, 43.011 sec
 * total energy  : -3427.5021552 Eh     change    :  -0.1590782E-05 Eh
   gradient norm :     0.0047984 Eh/a0  converged?    E=T G=F D=T
   time step     :     0.1512500 fs     power     :   0.1371054E-09
   step length   :     0.0003259 a0     speed     :   0.5211340E-04

........................................................................
.............................. CYCLE   11 ..............................
........................................................................

 iter      E             dE          RMSdq      gap      omega  full diag
   1  -3478.8001902 -0.347880E+04  0.529E-05   11.48       0.0  T
   2  -3478.8001902 -0.722594E-09  0.308E-05   11.48      56.9  T
   3  -3478.8001902 -0.686668E-10  0.760E-06   11.48     230.4  T
     SCC iter.                  ...        3 min,  0.547 sec
     gradient                   ...        3 min, 40.717 sec
 * total energy  : -3427.5021572 Eh     change    :  -0.2009749E-05 Eh
   gradient norm :     0.0045824 Eh/a0  converged?    E=T G=F D=T
   time step     :     0.1512500 fs     power     :   0.1721119E-09
   step length   :     0.0004287 a0     speed     :   0.6856503E-04

........................................................................
.............................. CYCLE   12 ..............................
........................................................................

 iter      E             dE          RMSdq      gap      omega  full diag
   1  -3478.7996322 -0.347880E+04  0.648E-05   11.48       0.0  T
   2  -3478.7996322 -0.988621E-09  0.378E-05   11.48      46.4  T
   3  -3478.7996322  0.159162E-10  0.920E-06   11.48     190.4  T
     SCC iter.                  ...        2 min, 58.657 sec
     gradient                   ...        3 min, 40.585 sec
 * total energy  : -3427.5021595 Eh     change    :  -0.2341710E-05 Eh
   gradient norm :     0.0043260 Eh/a0  converged?    E=T G=F D=T
   time step     :     0.1512500 fs     power     :   0.1993040E-09
   step length   :     0.0005269 a0     speed     :   0.8425984E-04

........................................................................
.............................. CYCLE   13 ..............................
........................................................................

 iter      E             dE          RMSdq      gap      omega  full diag
   1  -3478.7989922 -0.347880E+04  0.758E-05   11.48       0.0  T
   2  -3478.7989922 -0.140335E-08  0.442E-05   11.48      39.7  T
   3  -3478.7989922 -0.777618E-10  0.106E-05   11.48     165.1  T
     SCC iter.                  ...        2 min, 58.351 sec
     gradient                   ...        3 min, 41.088 sec
 * total energy  : -3427.5021621 Eh     change    :  -0.2580138E-05 Eh
   gradient norm :     0.0040390 Eh/a0  converged?    E=T G=F D=T
   time step     :     0.1512500 fs     power     :   0.2179482E-09
   step length   :     0.0006193 a0     speed     :   0.9904030E-04

........................................................................
.............................. CYCLE   14 ..............................
........................................................................

 iter      E             dE          RMSdq      gap      omega  full diag
   1  -3478.7982087 -0.347880E+04  0.954E-05   11.48       0.0  T
   2  -3478.7982087 -0.214641E-08  0.557E-05   11.48      31.5  T
   3  -3478.7982087 -0.827640E-10  0.131E-05   11.48     133.5  T
     SCC iter.                  ...        2 min, 57.419 sec
     gradient                   ...        3 min, 41.734 sec
 * total energy  : -3427.5021651 Eh     change    :  -0.3019476E-05 Eh
   gradient norm :     0.0037003 Eh/a0  converged?    E=T G=F D=T
   time step     :     0.1663750 fs     power     :   0.2283750E-09
   step length   :     0.0007851 a0     speed     :   0.1141465E-03

........................................................................
.............................. CYCLE   15 ..............................
........................................................................

 iter      E             dE          RMSdq      gap      omega  full diag
   1  -3478.7972811 -0.347880E+04  0.118E-04   11.48       0.0  T
   2  -3478.7972811 -0.305181E-08  0.687E-05   11.48      25.5  T
   3  -3478.7972811 -0.126875E-09  0.157E-05   11.48     111.5  T
     SCC iter.                  ...        2 min, 59.140 sec
     gradient                   ...        3 min, 40.768 sec
 * total energy  : -3427.5021685 Eh     change    :  -0.3359450E-05 Eh
   gradient norm :     0.0033248 Eh/a0  converged?    E=T G=F D=T
   time step     :     0.1830125 fs     power     :   0.2283712E-09
   step length   :     0.0009775 a0     speed     :   0.1291999E-03

........................................................................
.............................. CYCLE   16 ..............................
........................................................................

 iter      E             dE          RMSdq      gap      omega  full diag
   1  -3478.7962289 -0.347880E+04  0.142E-04   11.48       0.0  T
   2  -3478.7962289 -0.421232E-08  0.830E-05   11.48      21.1  T
   3  -3478.7962289 -0.404725E-10  0.182E-05   11.48      96.4  T
     SCC iter.                  ...        2 min, 59.289 sec
     gradient                   ...        3 min, 42.085 sec
 * total energy  : -3427.5021721 Eh     change    :  -0.3592521E-05 Eh
   gradient norm :     0.0029481 Eh/a0  converged?    E=T G=F D=F
   time step     :     0.2013138 fs     power     :   0.2168788E-09
   step length   :     0.0011958 a0     speed     :   0.1436837E-03

........................................................................
.............................. CYCLE   17 ..............................
........................................................................

 iter      E             dE          RMSdq      gap      omega  full diag
   1  -3478.7951055 -0.347880E+04  0.167E-04   11.48       0.0  T
   2  -3478.7951055 -0.523642E-08  0.979E-05   11.48      17.9  T
   3  -3478.7951055 -0.138698E-09  0.200E-05   11.48      87.6  T
     SCC iter.                  ...        3 min,  6.476 sec
     gradient                   ...        3 min, 43.152 sec
 * total energy  : -3427.5021757 Eh     change    :  -0.3656204E-05 Eh
   gradient norm :     0.0026351 Eh/a0  converged?    E=T G=F D=F
   time step     :     0.2214451 fs     power     :   0.1953174E-09
   step length   :     0.0014365 a0     speed     :   0.1569123E-03

........................................................................
.............................. CYCLE   18 ..............................
........................................................................

 iter      E             dE          RMSdq      gap      omega  full diag
   1  -3478.7940162 -0.347879E+04  0.191E-04   11.48       0.0  T
   2  -3478.7940162 -0.581667E-08  0.112E-04   11.48      15.6  T
   3  -3478.7940162 -0.165528E-09  0.206E-05   11.48      85.1  T
     SCC iter.                  ...        3 min,  1.217 sec
     gradient                   ...        3 min, 42.118 sec
 * total energy  : -3427.5021793 Eh     change    :  -0.3561232E-05 Eh
   gradient norm :     0.0024664 Eh/a0  converged?    E=T G=F D=F
   time step     :     0.2435896 fs     power     :   0.1689485E-09
   step length   :     0.0016921 a0     speed     :   0.1680305E-03

........................................................................
.............................. CYCLE   19 ..............................
........................................................................

 iter      E             dE          RMSdq      gap      omega  full diag
   1  -3478.7931263 -0.347879E+04  0.211E-04   11.48       0.0  T
   2  -3478.7931263 -0.546515E-08  0.125E-04   11.48      14.0  T
   3  -3478.7931263 -0.177351E-09  0.193E-05   11.48      90.6  T
     SCC iter.                  ...        2 min, 57.666 sec
     gradient                   ...        3 min, 42.290 sec
 * total energy  : -3427.5021827 Eh     change    :  -0.3462869E-05 Eh
   gradient norm :     0.0024732 Eh/a0  converged?    E=T G=F D=F
   time step     :     0.2679486 fs     power     :   0.1466577E-09
   step length   :     0.0019528 a0     speed     :   0.1762857E-03

........................................................................
.............................. CYCLE   20 ..............................
........................................................................

 iter      E             dE          RMSdq      gap      omega  full diag
   1  -3478.7926401 -0.347879E+04  0.228E-04   11.48       0.0  T
   2  -3478.7926401 -0.415503E-08  0.135E-04   11.48      13.0  T
   3  -3478.7926401 -0.134150E-09  0.167E-05   11.48     104.7  T
     SCC iter.                  ...        3 min,  1.484 sec
     gradient                   ...        3 min, 42.988 sec
 * total energy  : -3427.5021862 Eh     change    :  -0.3497998E-05 Eh
   gradient norm :     0.0025746 Eh/a0  converged?    E=T G=F D=F
   time step     :     0.2947435 fs     power     :   0.1368951E-09
   step length   :     0.0022164 a0     speed     :   0.1818953E-03
 * RMSD in coord.:     0.0005641 a0     energy gain  -0.2991530E-03 Eh

........................................................................
.............................. CYCLE   21 ..............................
........................................................................

 iter      E             dE          RMSdq      gap      omega  full diag
   1  -3478.7926979 -0.347879E+04  0.186E-04   11.48       0.0  T
   2  -3478.7926979 -0.161117E-08  0.110E-04   11.48      15.9  T
   3  -3478.7926979 -0.140062E-09  0.112E-05   11.48     156.8  T
     SCC iter.                  ...        2 min, 54.699 sec
     gradient                   ...        3 min, 41.872 sec
 * total energy  : -3427.5021892 Eh     change    :  -0.2962077E-05 Eh
   gradient norm :     0.0026140 Eh/a0  converged?    E=T G=F D=F
   time step     :     0.2500000 fs     power     :   0.1440929E-09
   step length   :     0.0018944 a0     speed     :   0.1832886E-03

........................................................................
.............................. CYCLE   22 ..............................
........................................................................

 iter      E             dE          RMSdq      gap      omega  full diag
   1  -3478.7932184 -0.347879E+04  0.182E-04   11.48       0.0  T
   2  -3478.7932184 -0.127966E-08  0.107E-04   11.48      16.4  T
   3  -3478.7932184 -0.914042E-10  0.110E-05   11.48     159.8  T
     SCC iter.                  ...        3 min,  7.403 sec
     gradient                   ...        3 min, 43.674 sec
 * total energy  : -3427.5021923 Eh     change    :  -0.3135190E-05 Eh
   gradient norm :     0.0025382 Eh/a0  converged?    E=T G=F D=F
   time step     :     0.2500000 fs     power     :   0.1561153E-09
   step length   :     0.0019143 a0     speed     :   0.1852201E-03

........................................................................
.............................. CYCLE   23 ..............................
........................................................................

 iter      E             dE          RMSdq      gap      omega  full diag
   1  -3478.7941602 -0.347879E+04  0.181E-04   11.48       0.0  T
   2  -3478.7941602 -0.171485E-08  0.105E-04   11.48      16.6  T
   3  -3478.7941602 -0.809450E-10  0.121E-05   11.48     145.2  T
     SCC iter.                  ...        2 min, 55.922 sec
     gradient                   ...        3 min, 42.762 sec
 * total energy  : -3427.5021956 Eh     change    :  -0.3304829E-05 Eh
   gradient norm :     0.0023336 Eh/a0  converged?    E=T G=F D=F
   time step     :     0.2500000 fs     power     :   0.1643649E-09
   step length   :     0.0019477 a0     speed     :   0.1884510E-03

........................................................................
.............................. CYCLE   24 ..............................
........................................................................

 iter      E             dE          RMSdq      gap      omega  full diag
   1  -3478.7954552 -0.347880E+04  0.184E-04   11.48       0.0  T
   2  -3478.7954552 -0.267755E-08  0.106E-04   11.48      16.5  T
   3  -3478.7954552 -0.950422E-10  0.140E-05   11.48     125.4  T
     SCC iter.                  ...        2 min, 59.422 sec
     gradient                   ...        3 min, 42.372 sec
 * total energy  : -3427.5021990 Eh     change    :  -0.3310234E-05 Eh
   gradient norm :     0.0020227 Eh/a0  converged?    E=T G=F D=F
   time step     :     0.2500000 fs     power     :   0.1623809E-09
   step length   :     0.0019936 a0     speed     :   0.1928938E-03

........................................................................
.............................. CYCLE   25 ..............................
........................................................................

 iter      E             dE          RMSdq      gap      omega  full diag
   1  -3478.7970100 -0.347880E+04  0.187E-04   11.48       0.0  T
   2  -3478.7970100 -0.371301E-08  0.108E-04   11.48      16.3  T
   3  -3478.7970100 -0.138698E-09  0.161E-05   11.48     108.5  T
     SCC iter.                  ...        3 min,  7.726 sec
     gradient                   ...        3 min, 43.476 sec
 * total energy  : -3427.5022020 Eh     change    :  -0.3088778E-05 Eh
   gradient norm :     0.0016660 Eh/a0  converged?    E=T G=F D=F
   time step     :     0.2500000 fs     power     :   0.1476491E-09
   step length   :     0.0020459 a0     speed     :   0.1979558E-03

........................................................................
.............................. CYCLE   26 ..............................
........................................................................

 iter      E             dE          RMSdq      gap      omega  full diag
   1  -3478.7988752 -0.347880E+04  0.208E-04   11.48       0.0  T
   2  -3478.7988752 -0.550972E-08  0.119E-04   11.48      14.7  T
   3  -3478.7988752 -0.151886E-09  0.196E-05   11.48      89.3  T
     SCC iter.                  ...        2 min, 57.554 sec
     gradient                   ...        3 min, 43.749 sec
 * total energy  : -3427.5022049 Eh     change    :  -0.2898335E-05 Eh
   gradient norm :     0.0013571 Eh/a0  converged?    E=T G=F D=F
   time step     :     0.2750000 fs     power     :   0.1195159E-09
   step length   :     0.0023141 a0     speed     :   0.2035438E-03

........................................................................
.............................. CYCLE   27 ..............................
........................................................................

 iter      E             dE          RMSdq      gap      omega  full diag
   1  -3478.8008461 -0.347880E+04  0.221E-04   11.48       0.0  T
   2  -3478.8008461 -0.642149E-08  0.127E-04   11.48      13.8  T
   3  -3478.8008461 -0.454747E-10  0.208E-05   11.48      84.1  T
     SCC iter.                  ...        3 min,  2.725 sec
     gradient                   ...        3 min, 46.792 sec
 * total energy  : -3427.5022074 Eh     change    :  -0.2452594E-05 Eh
   gradient norm :     0.0013162 Eh/a0  converged?    E=T G=F D=F
   time step     :     0.3025000 fs     power     :   0.8640162E-10
   step length   :     0.0025940 a0     speed     :   0.2074219E-03

........................................................................
.............................. CYCLE   28 ..............................
........................................................................

 iter      E             dE          RMSdq      gap      omega  full diag
   1  -3478.8025599 -0.347880E+04  0.219E-04   11.48       0.0  T
   2  -3478.8025599 -0.489399E-08  0.126E-04   11.48      13.9  T
   3  -3478.8025599 -0.163254E-09  0.178E-05   11.48      98.3  T
     SCC iter.                  ...        3 min,  3.649 sec
     gradient                   ...        3 min, 42.646 sec
 * total energy  : -3427.5022095 Eh     change    :  -0.2080897E-05 Eh
   gradient norm :     0.0015395 Eh/a0  converged?    E=T G=F D=F
   time step     :     0.3327500 fs     power     :   0.6515775E-10
   step length   :     0.0028343 a0     speed     :   0.2060389E-03

........................................................................
.............................. CYCLE   29 ..............................
........................................................................

 iter      E             dE          RMSdq      gap      omega  full diag
   1  -3478.8036854 -0.347880E+04  0.207E-04   11.48       0.0  T
   2  -3478.8036854 -0.230784E-08  0.119E-04   11.48      14.7  T
   3  -3478.8036854 -0.211912E-09  0.122E-05   11.48     143.2  T
     SCC iter.                  ...        3 min,  1.174 sec
     gradient                   ...        3 min, 42.351 sec
 * total energy  : -3427.5022116 Eh     change    :  -0.2087902E-05 Eh
   gradient norm :     0.0017471 Eh/a0  converged?    E=T G=F D=F
   time step     :     0.3660250 fs     power     :   0.6437558E-10
   step length   :     0.0030360 a0     speed     :   0.2006329E-03

........................................................................
.............................. CYCLE   30 ..............................
........................................................................

 iter      E             dE          RMSdq      gap      omega  full diag
   1  -3478.8040069 -0.347880E+04  0.195E-04   11.48       0.0  T
   2  -3478.8040069 -0.111868E-08  0.114E-04   11.48      15.4  T
   3  -3478.8040069 -0.145974E-09  0.914E-06   11.48     191.6  T
     SCC iter.                  ...        2 min, 56.526 sec
     gradient                   ...        3 min, 43.320 sec
 * total energy  : -3427.5022141 Eh     change    :  -0.2550020E-05 Eh
   gradient norm :     0.0017487 Eh/a0  converged?    E=T G=F D=F
   time step     :     0.4026275 fs     power     :   0.7645503E-10
   step length   :     0.0032622 a0     speed     :   0.1959845E-03

........................................................................
.............................. CYCLE   31 ..............................
........................................................................

 iter      E             dE          RMSdq      gap      omega  full diag
   1  -3478.8034328 -0.347880E+04  0.196E-04   11.48       0.0  T
   2  -3478.8034328 -0.249247E-08  0.115E-04   11.48      15.2  T
   3  -3478.8034328 -0.210548E-09  0.118E-05   11.48     148.7  T
     SCC iter.                  ...        3 min,  6.605 sec
     gradient                   ...        3 min, 43.265 sec
 * total energy  : -3427.5022173 Eh     change    :  -0.3151671E-05 Eh
   gradient norm :     0.0015143 Eh/a0  converged?    E=T G=F D=F
   time step     :     0.4428903 fs     power     :   0.8489563E-10
   step length   :     0.0035685 a0     speed     :   0.1948953E-03

........................................................................
.............................. CYCLE   32 ..............................
........................................................................

 iter      E             dE          RMSdq      gap      omega  full diag
   1  -3478.8020826 -0.347880E+04  0.207E-04   11.48       0.0  T
   2  -3478.8020827 -0.622276E-08  0.123E-04   11.48      14.3  T
   3  -3478.8020827 -0.207365E-09  0.191E-05   11.48      91.8  T
     SCC iter.                  ...        2 min, 56.695 sec
     gradient                   ...        3 min, 42.069 sec
 * total energy  : -3427.5022206 Eh     change    :  -0.3370072E-05 Eh
   gradient norm :     0.0012471 Eh/a0  converged?    E=T G=F D=F
   time step     :     0.4871793 fs     power     :   0.7725361E-10
   step length   :     0.0039721 a0     speed     :   0.1972163E-03

........................................................................
.............................. CYCLE   33 ..............................
........................................................................

 iter      E             dE          RMSdq      gap      omega  full diag
   1  -3478.8004959 -0.347880E+04  0.207E-04   11.48       0.0  T
   2  -3478.8004959 -0.776618E-08  0.123E-04   11.48      14.3  T
   3  -3478.8004959 -0.244199E-09  0.220E-05   11.48      79.7  T
     SCC iter.                  ...        3 min,  3.056 sec
     gradient                   ...        3 min, 43.144 sec
 * total energy  : -3427.5022238 Eh     change    :  -0.3132650E-05 Eh
   gradient norm :     0.0013352 Eh/a0  converged?    E=T G=F D=F
   time step     :     0.5358972 fs     power     :   0.6229066E-10
   step length   :     0.0044296 a0     speed     :   0.1999376E-03

........................................................................
.............................. CYCLE   34 ..............................
........................................................................

 iter      E             dE          RMSdq      gap      omega  full diag
   1  -3478.7995841 -0.347880E+04  0.189E-04   11.48       0.0  T
   2  -3478.7995841 -0.343880E-08  0.112E-04   11.48      15.6  T
   3  -3478.7995841 -0.126875E-09  0.123E-05   11.48     142.5  T
     SCC iter.                  ...        3 min,  0.060 sec
     gradient                   ...        3 min, 41.814 sec
 * total energy  : -3427.5022271 Eh     change    :  -0.3283102E-05 Eh
   gradient norm :     0.0015607 Eh/a0  converged?    E=T G=F D=F
   time step     :     0.5894869 fs     power     :   0.6451863E-10
   step length   :     0.0048655 a0     speed     :   0.1996497E-03

........................................................................
.............................. CYCLE   35 ..............................
........................................................................

 iter      E             dE          RMSdq      gap      omega  full diag
   1  -3478.8000156 -0.347880E+04  0.200E-04   11.48       0.0  T
   2  -3478.8000156 -0.951786E-09  0.117E-04   11.48      15.0  T
   3  -3478.8000156 -0.572982E-10  0.721E-06   11.48     243.1  T
     SCC iter.                  ...        2 min, 59.029 sec
     gradient                   ...        3 min, 42.987 sec
 * total energy  : -3427.5022313 Eh     change    :  -0.4273148E-05 Eh
   gradient norm :     0.0014655 Eh/a0  converged?    E=T G=F D=F
   time step     :     0.6484356 fs     power     :   0.8102447E-10
   step length   :     0.0053780 a0     speed     :   0.2006178E-03

........................................................................
.............................. CYCLE   36 ..............................
........................................................................

 iter      E             dE          RMSdq      gap      omega  full diag
   1  -3478.8019263 -0.347880E+04  0.259E-04   11.48       0.0  T
   2  -3478.8019263 -0.711634E-08  0.150E-04   11.48      11.7  T
   3  -3478.8019263 -0.282853E-09  0.218E-05   11.48      80.4  T
     SCC iter.                  ...        2 min, 57.126 sec
     gradient                   ...        3 min, 41.542 sec
 * total energy  : -3427.5022364 Eh     change    :  -0.5114931E-05 Eh
   gradient norm :     0.0011211 Eh/a0  converged?    E=F G=F D=F
   time step     :     0.7132792 fs     power     :   0.8250492E-10
   step length   :     0.0060949 a0     speed     :   0.2066906E-03

........................................................................
.............................. CYCLE   37 ..............................
........................................................................

 iter      E             dE          RMSdq      gap      omega  full diag
   1  -3478.8044008 -0.347880E+04  0.290E-04   11.48       0.0  T
   2  -3478.8044008 -0.124301E-07  0.168E-04   11.48      10.4  T
   3  -3478.8044008 -0.361979E-09  0.302E-05   11.48      58.1  T
     SCC iter.                  ...        3 min,  0.358 sec
     gradient                   ...        3 min, 41.308 sec
 * total energy  : -3427.5022414 Eh     change    :  -0.4911494E-05 Eh
   gradient norm :     0.0012310 Eh/a0  converged?    E=T G=F D=F
   time step     :     0.7846071 fs     power     :   0.6742014E-10
   step length   :     0.0069785 a0     speed     :   0.2151420E-03

........................................................................
.............................. CYCLE   38 ..............................
........................................................................

 iter      E             dE          RMSdq      gap      omega  full diag
   1  -3478.8055191 -0.347881E+04  0.256E-04   11.48       0.0  T
   2  -3478.8055191 -0.573027E-08  0.151E-04   11.48      11.6  T
   3  -3478.8055191 -0.234195E-09  0.214E-05   11.48      81.7  T
     SCC iter.                  ...        2 min, 58.034 sec
     gradient                   ...        3 min, 42.360 sec
 * total energy  : -3427.5022467 Eh     change    :  -0.5310893E-05 Eh
   gradient norm :     0.0013363 Eh/a0  converged?    E=F G=F D=F
   time step     :     0.8630678 fs     power     :   0.7352112E-10
   step length   :     0.0078304 a0     speed     :   0.2194594E-03

........................................................................
.............................. CYCLE   39 ..............................
........................................................................

 iter      E             dE          RMSdq      gap      omega  full diag
   1  -3478.8044843 -0.347880E+04  0.284E-04   11.48       0.0  T
   2  -3478.8044843 -0.920500E-08  0.165E-04   11.48      10.6  T
   3  -3478.8044843 -0.315140E-09  0.279E-05   11.48      62.8  T
     SCC iter.                  ...        3 min,  4.481 sec
     gradient                   ...        3 min, 43.025 sec
 * total energy  : -3427.5022531 Eh     change    :  -0.6453934E-05 Eh
   gradient norm :     0.0010404 Eh/a0  converged?    E=F G=F D=F
   time step     :     0.9493746 fs     power     :   0.7758558E-10
   step length   :     0.0088788 a0     speed     :   0.2262214E-03

........................................................................
.............................. CYCLE   40 ..............................
........................................................................

 iter      E             dE          RMSdq      gap      omega  full diag
   1  -3478.8029217 -0.347880E+04  0.310E-04   11.48       0.0  T
   2  -3478.8029217 -0.103159E-07  0.181E-04   11.48       9.7  T
   3  -3478.8029217 -0.431100E-09  0.261E-05   11.48      67.2  T
     SCC iter.                  ...        2 min, 57.737 sec
     gradient                   ...        3 min, 43.668 sec
 * total energy  : -3427.5022596 Eh     change    :  -0.6460901E-05 Eh
   gradient norm :     0.0012679 Eh/a0  converged?    E=F G=F D=F
   time step     :     1.0443120 fs     power     :   0.6776227E-10
   step length   :     0.0101828 a0     speed     :   0.2358576E-03

........................................................................
.............................. CYCLE   41 ..............................
........................................................................

 iter      E             dE          RMSdq      gap      omega  full diag
   1  -3478.8038776 -0.347880E+04  0.314E-04   11.48       0.0  T
   2  -3478.8038776 -0.467480E-08  0.183E-04   11.48       9.6  T
   3  -3478.8038776 -0.391992E-09  0.136E-05   11.48     128.6  T
     SCC iter.                  ...        3 min,  0.254 sec
     gradient                   ...        3 min, 42.685 sec
 * total energy  : -3427.5022675 Eh     change    :  -0.7875823E-05 Eh
   gradient norm :     0.0011302 Eh/a0  converged?    E=F G=F D=F
   time step     :     1.1487432 fs     power     :   0.8279738E-10
   step length   :     0.0115168 a0     speed     :   0.2425064E-03

........................................................................
.............................. CYCLE   42 ..............................
........................................................................

 iter      E             dE          RMSdq      gap      omega  full diag
   1  -3478.8063967 -0.347881E+04  0.385E-04   11.48       0.0  T
   2  -3478.8063967 -0.188288E-07  0.225E-04   11.48       7.8  T
   3  -3478.8063967 -0.547971E-09  0.336E-05   11.48      52.1  T
     SCC iter.                  ...        2 min, 58.360 sec
     gradient                   ...        3 min, 43.218 sec
 * total energy  : -3427.5022761 Eh     change    :  -0.8682564E-05 Eh
   gradient norm :     0.0011908 Eh/a0  converged?    E=F G=F D=F
   time step     :     1.2500000 fs     power     :   0.7602363E-10
   step length   :     0.0131620 a0     speed     :   0.2546981E-03
 * RMSD in coord.:     0.0016913 a0     energy gain  -0.8989204E-04 Eh

........................................................................
.............................. CYCLE   43 ..............................
........................................................................

 iter      E             dE          RMSdq      gap      omega  full diag
   1  -3478.8064614 -0.347881E+04  0.599E-05   11.48       0.0  T
   2  -3478.8064614 -0.982254E-10  0.353E-05   11.48      49.7  T
   3  -3478.8064614  0.472937E-10  0.215E-06   11.48     816.3  T
     SCC iter.                  ...        3 min,  4.952 sec
     gradient                   ...        3 min, 43.512 sec
 * total energy  : -3427.5022778 Eh     change    :  -0.1654736E-05 Eh
   gradient norm :     0.0012102 Eh/a0  converged?    E=T G=F D=F
   time step     :     0.2500000 fs     power     :   0.8681608E-10
   step length   :     0.0025387 a0     speed     :   0.2456289E-03

........................................................................
.............................. CYCLE   44 ..............................
........................................................................

 iter      E             dE          RMSdq      gap      omega  full diag
   1  -3478.8061276 -0.347881E+04  0.599E-05   11.48       0.0  T
   2  -3478.8061276 -0.297405E-09  0.349E-05   11.48      50.2  T
   3  -3478.8061276 -0.295586E-10  0.456E-06   11.48     384.1  T
     SCC iter.                  ...        2 min, 58.572 sec
     gradient                   ...        3 min, 40.761 sec
 * total energy  : -3427.5022796 Eh     change    :  -0.1833208E-05 Eh
   gradient norm :     0.0011229 Eh/a0  converged?    E=T G=F D=F
   time step     :     0.2500000 fs     power     :   0.9559906E-10
   step length   :     0.0024730 a0     speed     :   0.2392793E-03

........................................................................
.............................. CYCLE   45 ..............................
........................................................................

 iter      E             dE          RMSdq      gap      omega  full diag
   1  -3478.8054842 -0.347881E+04  0.704E-05   11.48       0.0  T
   2  -3478.8054842 -0.816271E-09  0.408E-05   11.48      42.9  T
   3  -3478.8054842 -0.582077E-10  0.800E-06   11.48     218.9  T
     SCC iter.                  ...        2 min, 56.699 sec
     gradient                   ...        3 min, 40.537 sec
 * total energy  : -3427.5022815 Eh     change    :  -0.1898632E-05 Eh
   gradient norm :     0.0009826 Eh/a0  converged?    E=T G=T D=F
   time step     :     0.2500000 fs     power     :   0.9802715E-10
   step length   :     0.0024405 a0     speed     :   0.2361281E-03

   *** GEOMETRY OPTIMIZATION CONVERGED AFTER 45 CYCLES ***

------------------------------------------------------------------------
 total energy gain   :        -0.0003944 Eh       -0.2475 kcal/mol
 total RMSD          :         0.0020464 a0        0.0011 Å
 total power (kW/mol):        -0.0230129 (step)   -0.0001 (real)
------------------------------------------------------------------------

 FIRE (total)                  0 d,  5 h, 15 min, 38.470 sec
 setup                          ...        0 min,  0.116 sec (  0.001%)
 velocities                     ...        0 min,  0.003 sec (  0.000%)
 propagation                    ...        0 min,  0.004 sec (  0.000%)
 singlepoint calculation        ...      315 min, 37.620 sec ( 99.996%)
 log and printout               ...        0 min,  0.670 sec (  0.004%)
 preconditioner                 ...        0 min,  0.000 sec (  0.000%)
 model hessian                  ...        0 min,  0.000 sec (  0.000%)
 hessian update                 ...        0 min,  0.000 sec (  0.000%)

================
 final structure:
================
3258
 xtb: 6.6.1 (8d0f1dd)
C          111.93859520205005      108.37894052624986       89.88911781228902
C          112.61043268529951      108.16684094036508       91.24055967732458
C          111.63114376561241      107.81337602798197       92.36115884911476
C          111.01220265093693      106.42721938433866       92.19609563113342
C          109.99439552398971      106.07394184600426       93.28238331950276
C          110.61539264774106      105.92603313355929       94.66888534508581
C          109.62395307101976      105.40684435170930       95.70967922991426
C          110.30425800674304      105.25727223161290       97.06828038504784
C          109.43903672777662      104.62199315355625       98.15637371081094
C          108.28008628544723      105.50974476121058       98.60597841176298
C          107.64509058705886      105.04940660658843       99.92011912819204
C          108.49896834040405      105.36302341668743      101.14636275024414
C          107.81161263184583      104.97062701254153      102.45247839852198
C          108.66374123909765      105.31859281492534      103.67172056881523
C          108.04315021552556      104.80456384967034      104.96844333599982
C          108.89061343266839      105.09266600921190      106.20980712700883
C          108.87585441617551      106.56316050120677      106.61960212409907
C          109.70494359148165      106.83028947129172      107.87540218324710
C          109.86679053578932      108.32805578538141      108.12477939640881
C          110.80152655105191      108.65186847737557      109.28740303866930
C          111.08786355334747      110.15055809300050      109.39111039507422
C          112.05785811849698      110.46752533565184      110.52575925424759
C          112.49455369622909      111.93186763807766      110.56875578587452
C          113.52346972401273      112.15298017668883      111.67545471061500
C          114.03829162689993      113.58777623049430      111.78046478686825
C          115.01036660511764      113.71556089603096      112.95094969681908
C          115.59545515191036      115.11297865819687      113.15016845000207
C          116.52482118839221      115.11184443962158      114.36230091193227
C          117.20501896393804      116.44615688978737      114.66157779314146
C          118.03877786821558      116.32914380471227      115.93817064651670
C          118.65698770358166      117.64731944539278      116.39822026924436
C          119.39753542098917      117.52241343407658      117.73381852631263
C          118.47097928652580      117.20013678794572      118.90695471520432
C          119.18899404325298      117.23065762714403      120.25556719883214
C          118.28918077187647      116.73071753921070      121.38622970488616
C          118.95715918542275      116.84189694330962      122.75601359485802
C          118.13174639624164      116.23635799150054      123.89541164499538
C          118.14187243026601      114.70889682692628      123.89483954237338
C          117.51143786976365      114.08287528525433      125.14060621735263
C          116.00263802653747      114.30784301197997      125.23631197279755
C          115.33361839406079      113.34637142201679      126.21838493446946
C          113.81198810299090      113.49182825301547      126.22277654849313
C          113.11209715855520      112.31269137292270      126.89729448186098
C          111.58952752525431      112.43421727516250      126.82082188232604
C          110.84865834298348      111.13081260085470      127.12633729078453
C          111.01597344796038      110.66700975202926      128.57048678563609
C          110.30471723292172      109.34619274798023      128.87395854063956
C          108.78235358711261      109.36632230094332      128.71208033609781
C          108.10059640642311      110.47095624445835      129.51842174600682
C          106.59097810978346      110.26035798233771      129.63440817623399
C          105.89450788219973      111.49400480473822      130.20508752075494
C          104.40158218901817      111.27306607404270      130.43995130890923
C          103.70298368909648      112.56286470331742      130.86549444814827
C          102.22256113083037      112.34701907864314      131.16959116321596
C          101.53057865034974      113.59723679664856      131.71770359427771
C          101.43108980973990      114.76503941623453      130.73365420817947
C          100.51727508730346      114.46760494097259      129.54733561636613
C          100.28454842072099      115.67877282971895      128.64353204113394
C          101.55495546459272      116.15748290574690      127.94121078904992
C          101.24463839190255      117.06992874931707      126.75677405858968
C          102.50727476379863      117.48562044773917      126.00268195436473
C          102.18475031698598      118.09325737392376      124.63925725890009
C          103.43702534998843      118.55045825012131      123.89309925167331
C          103.14631614565562      118.86893628282708      122.42821835389917
C          104.40750909767179      119.27716697893767      121.66912408262831
C          104.21230398418825      119.33722138128437      120.15379606728706
C          103.24145095781996      120.43029936675647      119.71328140830215
C          103.10286092024398      120.53200155398991      118.19378143136862
C          104.33631072984170      121.10711082624967      117.50225512498099
C          104.11699491678844      121.27671424481979      116.00117577462144
C          105.33747900256878      121.87324789156804      115.30590860889095
C          105.10709754063896      122.07074514728797      113.81011514979318
C          106.32384040300636      122.67593242791672      113.11564673855315
C          106.07304184809252      122.92708569971698      111.63126863313629
C          107.29100140910143      123.52291134577725      110.92981668494616
C          107.00304821384097      123.85754937424851      109.46890397579229
C          108.22203441515659      124.42507405991287      108.74541122467831
C          107.88010841849544      124.87040218328832      107.32574885455634
C          109.09015868812862      125.41794642279515      106.57205481563186
C          108.68681382439082      126.00802829368001      105.22221952496164
C          109.85496461369958      126.61694739975323      104.44441372695418
C          110.75264431579394      125.57252638772053      103.78553096450023
C          111.90671215416477      126.21204235906556      103.01738220706832
C          112.71431031989617      125.18336459562039      102.22838222189313
C          113.93832673871962      125.81454585777328      101.56755447282107
C          114.60655509614585      124.91702875691102      100.52502900592467
C          115.07199274300419      123.55530402002296      101.04085781282711
C          116.07459217095230      123.63033348497930      102.19074369687905
C          116.66495682957212      122.25283783979815      102.48994772946531
C          117.45133156065074      122.19085818696368      103.79884679198396
C          118.72143565997082      123.03822655948296      103.79822601483684
C          119.60775534194480      122.77092446099583      105.01645729576735
C          119.02748552614297      123.28303012481089      106.33480717461438
C          119.93711641891342      122.92926641419052      107.51061828095317
C          119.51179790523105      123.58740811856167      108.82326128257419
C          120.43012076256196      123.16298625423264      109.96991447422454
C          120.31294207729555      124.02392483155660      111.22812547715986
C          118.99362769166416      123.86316511639957      111.98080383722662
C          118.98622260315680      124.69572516427985      113.26304087146448
C          117.64704413577486      124.63958451653876      113.99515216963985
C          117.59512199430975      125.55924544178602      115.21834092164946
C          118.28506838615112      125.01022145850538      116.46978349382238
C          117.51181964456691      123.85660830321706      117.10819379268203
C          117.95628799509460      123.56283034553174      118.54014116029688
C          117.14555811457394      122.43053396778285      119.17008388689199
C          117.48733992503006      122.21265830034582      120.64222806487545
C          116.61086386788563      121.14036006216840      121.28949699858796
C          116.87857827566619      121.01927352904288      122.78828765900367
C          115.98740809185955      119.98199731602504      123.46997397019115
C          116.27539539288378      119.90295240198445      124.96802884009952
C          115.53249578504203      118.78020717951820      125.69347665424466
C          114.03168068640196      119.01216084806281      125.86562301523406
C          113.42209780954643      117.94270093578224      126.77125735077151
C          111.92479663258943      118.12208305213299      127.01301179303728
C          111.38663799477911      117.04345353566652      127.95175254006689
C          109.88982545711158      117.17448134956430      128.22470928144634
C          109.40325667662836      116.07710488900166      129.17056360434492
C          107.94424949127942      116.22984562435396      129.60168775648557
C          106.94736255851812      116.00060283357919      128.46848325319834
C          105.50805177803049      116.02798905091328      128.96769328384343
H          107.07481762441859      116.77034474674979      127.70635881427167
H          107.14921524870465      115.03277487364640      128.00411403288871
H          107.74010739283776      115.50644133640328      130.39570148216112
H          107.79343750456748      117.22775750831610      130.02036038498056
H          109.53520265016725      115.10384626830994      128.69047250391225
H          110.03155411607163      116.08776301921959      130.06513367325147
H          109.68746002553502      118.15122201462351      128.67127843277183
H          109.34637672302468      117.11719765848206      127.28052128980406
H          111.58307978414423      116.05980827252800      127.51734719042851
H          111.92854537319786      117.09490186646595      128.89968434608414
H          111.74114815415678      119.10736796076381      127.44857692415380
H          111.39178241071356      118.07446889704073      126.06129062825340
H          113.59416178402299      116.95951548448127      126.32662076709515
H          113.93877786441290      117.95982033421851      127.73454508442373
H          113.86389474525926      119.99788297935083      126.30609762430510
H          113.53777549710732      118.99106782292452      124.89282852001739
H          115.68885623580685      117.84254868906928      125.15636307389626
H          115.97596966279760      118.66603140239454      126.68626598813437
H          117.34851724991874      119.74163161958329      125.10076616491514
H          116.02833603719651      120.85932341606869      125.43513986617256
H          114.93992228197602      120.24276705700235      123.30664777035898
H          116.16370413889820      119.00438617945099      123.01732124930255
H          117.92638736017362      120.75026202650291      122.94415298758885
H          116.71784620810547      121.99263728266159      123.25854826034589
H          115.55877104852628      121.39277819139876      121.13218051608671
H          116.79401502968983      120.17707389590475      120.80723504859898
H          118.53831711818030      121.93117053115054      120.73682048016428
H          117.35113256782600      123.15431355823004      121.18007345833232
H          116.08147133135471      122.67039155597158      119.09443594071175
H          117.31650353987290      121.50526299367687      118.61391093489318
H          119.01528477489849      123.30065114078239      118.54986981356964
H          117.83410257718937      124.46592862452701      119.14369869392181
H          116.45120252534484      124.11590407819776      117.11682847017019
H          117.62595588338513      122.95357286381847      116.50644184102234
H          119.30001617354142      124.69089176721701      116.23008654086600
H          118.36000912336237      125.82204818893517      117.19789957244291
H          118.05123758060124      126.51571805472742      114.95141378100683
H          116.54925936730183      125.75731184422014      115.46741605365827
H          116.86178456447790      124.94653872518346      113.29925428757558
H          117.43688260512236      123.61268882974349      114.29772200179248
H          119.78098157468747      124.34338203213625      113.92316726933426
H          119.20648664255445      125.73576758492783      113.00896757760944
H          118.16695872731486      124.17843353800431      111.34116932686229
H          118.84393590594701      122.80964159942975      112.22951901287033
H          121.13194113327395      123.75998606320996      111.90333102924492
H          120.44365934972447      125.07382495726556      110.95497169285913
H          120.22607299864340      122.12055803118604      110.22454197827895
H          121.46428628285830      123.21716313458130      109.61919443078082
H          119.55430933115269      124.67301314518852      108.70803559577017
H          118.47895360396923      123.31674665418871      109.05034229515596
H          119.95067098992179      121.84390039565878      107.63813232780872
H          120.95776089950130      123.24284646304469      107.27630638582794
H          118.91076283945422      124.36796309079197      106.27837302558403
H          118.04057171106537      122.84934078224650      106.50269552250973
H          119.78444708826143      121.69603644434454      105.09936967260781
H          120.57697741514465      123.25044358367698      104.85686918481332
H          119.29414789201256      122.81020513644411      102.89544827059581
H          118.46136661486977      124.09774652078421      103.76794285340731
H          116.80207710583997      122.51467625891823      104.61304480561745
H          117.73005592829732      121.15035352952059      103.98622374858000
H          115.84494300621598      121.53216739105397      102.54951957848792
H          117.31058142315042      121.94838850187969      101.66238285632625
H          116.87344202841294      124.32648153232630      101.92913335912306
H          115.57944227951521      124.00757580837349      103.08723562733424
H          114.20642884173769      122.97020663912971      101.35694659374109
H          115.53999672647207      123.02486705021096      100.20786979226902
H          113.90153374660848      124.74831945625166       99.70688841498387
H          115.46693617611847      125.45083545003466      100.11250639446887
H          113.63098820600116      126.73768369196337      101.06840777452656
H          114.66273889894399      126.08968947810349      102.33632601312185
H          113.03080819904115      124.38734738832376      102.90418695049114
H          112.07545846625365      124.73611805295559      101.46318881154755
H          111.51072231115336      126.96237385651993      102.32826546100283
H          112.56537529192821      126.72861412776416      103.71997630402672
H          111.16116877996927      124.90430768690644      104.54499172341505
H          110.15408972966736      124.96907539566081      103.09965332836448
H          109.45511765427680      127.26908035642883      103.66366433203582
H          110.45128913727953      127.23931752467524      105.11593629621227
H          108.21588122960644      125.23304411635534      104.61427121100989
H          107.93940533009523      126.78596075094725      105.39805160407413
H          109.56843802109280      126.19496078776571      107.17383036034178
H          109.81495120771967      124.61526694033286      106.42703747731305
H          107.46450458102753      124.02543218591398      106.77231978865798
H          107.10879054781223      125.64361323951798      107.37299289946553
H          108.61045773528197      125.27942069685821      109.30579360795157
H          109.00888440999705      123.66858806720664      108.71016092410574
H          106.66722970105829      122.95657506443740      108.95222083608644
H          106.18817727585267      124.58414762402177      109.42315018772349
H          107.59965336386473      124.43175053479875      111.45302976439531
H          108.11936996801748      122.81362200134917      110.98264690781851
H          105.80586928109867      121.98431694934573      111.14838974581150
H          105.22479019605640      123.60670133768507      111.51979154128583
H          106.58241232774735      123.62027516888799      113.60161480575501
H          107.17508476514564      122.00166067848845      113.23120590780067
H          104.87115096994856      121.10701380674992      113.35178483942840
H          104.24705443131539      122.72889700553038      113.66295122797047
H          105.57615559482799      122.83676610240276      115.76328656741903
H          106.19696116098999      121.21629561303376      115.45750740906644
H          103.88580546402379      120.30502958741981      115.55775906021998
H          103.25682691985783      121.93068251929363      115.83429583592431
H          104.57490679470698      122.07827073299390      117.94282653147989
H          105.19281350349111      120.45153984238225      117.66366108642022
H          102.88631973670508      119.54213096974684      117.78587649298720
H          102.25101031128725      121.17865837376468      117.96590858494409
H          102.25646109986246      120.22160519074886      120.13441104698813
H          103.57623348829290      121.39197185217780      120.10942351561634
H          105.18488814135193      119.51123052704081      119.69063809214478
H          103.84482135072430      118.37000282297339      119.80109286324212
H          104.75112487684387      120.25007752617721      122.02880108536962
H          105.19519069040753      118.54992867788133      121.88674010480312
H          102.71712518133216      117.98448108970629      121.95120437504377
H          102.40467918895533      119.66764681018327      122.37601498380975
H          103.85519716894686      119.43097276740136      124.38572839614201
H          104.19101914620754      117.76142810536889      123.94014188283151
H          101.66458920130231      117.34320906363850      124.03689785094809
H          101.50454986660762      118.93830906528872      124.76626106374911
H          103.07604088272886      118.20062730409600      126.60116898181209
H          103.13986816466573      116.60591400643459      125.85461860879562
H          100.58023311709489      116.53931945724885      126.07073650562168
H          100.71459130494875      117.95933014587445      127.10402644984919
H          102.19678352259339      116.68496834186027      128.64857631105212
H          102.10524806213277      115.28809491726554      127.57496563106106
H           99.54887654467149      115.40220037183035      127.88328215705776
H           99.85733140912880      116.49610517038064      129.22856844539348
H          100.94458360325785      113.66201135816974      128.94720490636158
H           99.55193409119411      114.12107094282976      129.92579073157412
H          101.03413501449754      115.63085839111946      131.26991405797878
H          102.42613963099579      115.02942318088679      130.37644953493327
H          100.52153896922243      113.32467200698498      132.03810673788888
H          102.07564387737777      113.93340190799967      132.60358372352007
H          101.71236254111467      112.00309492406339      130.26847575570454
H          102.13163381453668      111.55323437088258      131.91572778035794
H          104.19628197834318      112.96186490685126      131.75555913378528
H          103.81036901246310      113.29818322262372      130.06613698465455
H          103.93964572942245      110.89774931135673      129.52395903791782
H          104.26641738598512      110.51201290743525      131.21202898000840
H          106.36841232469607      111.77137352907971      131.14987841799200
H          106.02966476892283      112.33035280738943      129.51387238377282
H          106.17504237673063      110.03683412380472      128.64943258833608
H          106.39250618719325      109.39882847628279      130.27609809970679
H          108.53261534032023      110.50672470076078      130.52121899233742
H          108.28644208408097      111.43629079098450      129.04336992190107
H          108.52192278096983      109.47258225193688      127.65729310396689
H          108.39756193256460      108.39793540304130      129.04341196332354
H          110.71058731238915      108.56826467429659      128.22178955636170
H          110.53865508377093      109.06504957613365      129.90406493072217
H          112.07879007381455      110.52758638617804      128.77856877162711
H          110.65068887055578      111.44409124971776      129.24414977037387
H          109.78758866557801      111.28566751523653      126.92075089058318
H          111.20470523353919      110.34730319363005      126.45303819020496
H          111.25124149136842      113.21366271475860      127.50791098052532
H          111.31762012570165      112.75075912756290      125.81071114310917
H          113.41793456172827      111.39141079285331      126.39705446882837
H          113.43309803969709      112.24888157980769      127.93830130733787
H          113.53288805449620      114.42045184735785      126.72603058694092
H          113.46234789257491      113.55977352093211      125.19016287750519
H          115.58652723802919      112.32302828646418      125.93383007344626
H          115.72522301005924      113.51297435852447      127.22403999205399
H          115.80021795194673      115.33631484038673      125.54035510715136
H          115.56218934608629      114.15774498555464      124.24783950963547
H          117.69949925726193      113.00604896413228      125.11152844500863
H          118.00189975168232      114.47189213088365      126.03528007397910
H          117.61001914444135      114.34068757671763      123.01467306859146
H          119.17831592187065      114.36857255961661      123.82503334823748
H          118.54125057071687      116.58579828033957      124.84621641560830
H          117.10481904897583      116.59802825690169      123.82525834796574
H          119.93230547546733      116.34904458427376      122.72334001774713
H          119.12894025717264      117.89961123348689      122.97184903755634
H          117.36427879067091      117.31334210387105      121.39362105270276
H          118.02311120937179      115.69040376363081      121.18869520310976
H          120.08206583257189      116.60366446585130      120.20339922726228
H          119.51392995419728      118.25102412913269      120.47106262157645
H          117.65129569670950      117.92331112762248      118.92258162027616
H          118.03648826346149      116.20773524303431      118.76959768563945
H          120.16201138172748      116.74544402892316      117.65317722887276
H          119.90724062151263      118.46682355872490      117.94058623364319
H          119.35381520567597      118.00248043035204      115.63458091192325
H          117.87153844683466      118.40095488982760      116.49736474476045
H          117.38924415513046      115.94579907704890      116.72725769602904
H          118.83621698531049      115.59815445627439      115.78103972668308
[...]
  3011   6 C     3012   6 C                                       1.5261055
  3012   6 C     3013   6 C                                       1.5280645
  3013   6 C     3014   6 C                                       1.5288514
  3014   6 C     3015   6 C                                       1.5268756
  3015   6 C     3016   6 C                                       1.5239812
  3015   6 C     3017   1 H                                       1.0914318
  3015   6 C     3018   1 H                                       1.0927235
  3014   6 C     3019   1 H                                       1.0922593
  3014   6 C     3020   1 H                                       1.0925887
  3013   6 C     3021   1 H                                       1.0929951
  3013   6 C     3022   1 H                                       1.0924712
  3012   6 C     3023   1 H                                       1.0926939
  3012   6 C     3024   1 H                                       1.0912715
  3011   6 C     3025   1 H                                       1.0924524
  3011   6 C     3026   1 H                                       1.0926852
  3010   6 C     3027   1 H                                       1.0926548
  3010   6 C     3028   1 H                                       1.0924298
  3009   6 C     3029   1 H                                       1.0928370
  3009   6 C     3030   1 H                                       1.0912854
  3008   6 C     3031   1 H                                       1.0924403
  3008   6 C     3032   1 H                                       1.0928321
  3007   6 C     3033   1 H                                       1.0928576
  3007   6 C     3034   1 H                                       1.0930314
  3006   6 C     3035   1 H                                       1.0899528
  3006   6 C     3036   1 H                                       1.0926199
  3005   6 C     3037   1 H                                       1.0933515
  3005   6 C     3038   1 H                                       1.0918167
  3004   6 C     3039   1 H                                       1.0931957
  3004   6 C     3040   1 H                                       1.0934617
  3003   6 C     3041   1 H                                       1.0914446
  3003   6 C     3042   1 H                                       1.0924265
  3002   6 C     3043   1 H                                       1.0923560
  3002   6 C     3044   1 H                                       1.0915550
  3001   6 C     3045   1 H                                       1.0925466
  3001   6 C     3046   1 H                                       1.0922420
  3000   6 C     3047   1 H                                       1.0917539
  3000   6 C     3048   1 H                                       1.0919012
  2999   6 C     3049   1 H                                       1.0932766
  2999   6 C     3050   1 H                                       1.0910364
  2998   6 C     3051   1 H                                       1.0925537
  2998   6 C     3052   1 H                                       1.0925204
  2997   6 C     3053   1 H                                       1.0931697
  2997   6 C     3054   1 H                                       1.0922289
  2996   6 C     3055   1 H                                       1.0921926
  2996   6 C     3056   1 H                                       1.0932194
  2995   6 C     3057   1 H                                       1.0933653
  2995   6 C     3058   1 H                                       1.0926940
  2994   6 C     3059   1 H                                       1.0913617
  2994   6 C     3060   1 H                                       1.0930715
  2993   6 C     3061   1 H                                       1.0930824
  2993   6 C     3062   1 H                                       1.0920054
  2992   6 C     3063   1 H                                       1.0922893
  2992   6 C     3064   1 H                                       1.0921985
  2991   6 C     3065   1 H                                       1.0926961
  2991   6 C     3066   1 H                                       1.0908826
  2990   6 C     3067   1 H                                       1.0906267
  2990   6 C     3068   1 H                                       1.0926861
  2989   6 C     3069   1 H                                       1.0914422
  2989   6 C     3070   1 H                                       1.0921122
  2988   6 C     3071   1 H                                       1.0933401
  2988   6 C     3072   1 H                                       1.0931239
  2987   6 C     3073   1 H                                       1.0931753
  2987   6 C     3074   1 H                                       1.0922689
  2986   6 C     3075   1 H                                       1.0921789
  2986   6 C     3076   1 H                                       1.0909810
  2985   6 C     3077   1 H                                       1.0927486
  2985   6 C     3078   1 H                                       1.0912605
  2984   6 C     3079   1 H                                       1.0921702
  2984   6 C     3080   1 H                                       1.0906639
  2983   6 C     3081   1 H                                       1.0932762
  2983   6 C     3082   1 H                                       1.0926340
  2982   6 C     3083   1 H                                       1.0919757
  2982   6 C     3084   1 H                                       1.0919901
  2981   6 C     3085   1 H                                       1.0912950
  2981   6 C     3086   1 H                                       1.0930379
  2980   6 C     3087   1 H                                       1.0913661
  2980   6 C     3088   1 H                                       1.0922512
  2979   6 C     3089   1 H                                       1.0928539
  2979   6 C     3090   1 H                                       1.0930180
  2978   6 C     3091   1 H                                       1.0925875
  2978   6 C     3092   1 H                                       1.0933376
  2977   6 C     3093   1 H                                       1.0927466
  2977   6 C     3094   1 H                                       1.0911815
  2976   6 C     3095   1 H                                       1.0915772
  2976   6 C     3096   1 H                                       1.0919411
  2975   6 C     3097   1 H                                       1.0912765
  2975   6 C     3098   1 H                                       1.0910830
  2974   6 C     3099   1 H                                       1.0920777
  2974   6 C     3100   1 H                                       1.0935265
  2973   6 C     3101   1 H                                       1.0893059
  2973   6 C     3102   1 H                                       1.0932856
  2972   6 C     3103   1 H                                       1.0932861
  2972   6 C     3104   1 H                                       1.0921973
  2971   6 C     3105   1 H                                       1.0923373
  2971   6 C     3106   1 H                                       1.0931242
  2970   6 C     3107   1 H                                       1.0917069
  2970   6 C     3108   1 H                                       1.0916769
  2969   6 C     3109   1 H                                       1.0919153
  2969   6 C     3110   1 H                                       1.0929541
  2968   6 C     3111   1 H                                       1.0931213
  2968   6 C     3112   1 H                                       1.0923048
  2967   6 C     3113   1 H                                       1.0920158
  2967   6 C     3114   1 H                                       1.0921451
  2966   6 C     3115   1 H                                       1.0919537
  2966   6 C     3116   1 H                                       1.0921223
  2965   6 C     3117   1 H                                       1.0929601
  2965   6 C     3118   1 H                                       1.0917278
  2964   6 C     3119   1 H                                       1.0920105
  2964   6 C     3120   1 H                                       1.0918887
  2963   6 C     3121   1 H                                       1.0936359
  2963   6 C     3122   1 H                                       1.0917185
  2962   6 C     3123   1 H                                       1.0926389
  2962   6 C     3124   1 H                                       1.0937015
  2961   6 C     3125   1 H                                       1.0917861
  2961   6 C     3126   1 H                                       1.0903461
  2960   6 C     3127   1 H                                       1.0922026
  2960   6 C     3128   1 H                                       1.0936160
  2959   6 C     3129   1 H                                       1.0931476
  2959   6 C     3130   1 H                                       1.0915671
  2958   6 C     3131   1 H                                       1.0919589
  2958   6 C     3132   1 H                                       1.0920908
  2957   6 C     3133   1 H                                       1.0921745
  2957   6 C     3134   1 H                                       1.0904329
  2956   6 C     3135   1 H                                       1.0893137
  2956   6 C     3136   1 H                                       1.0917128
  2955   6 C     3137   1 H                                       1.0931236
  2955   6 C     3138   1 H                                       1.0932086
  2954   6 C     3139   1 H                                       1.0926759
  2954   6 C     3140   1 H                                       1.0913873
  2953   6 C     3141   1 H                                       1.0916700
  2953   6 C     3142   1 H                                       1.0931532
  2952   6 C     3143   1 H                                       1.0925960
  2952   6 C     3144   1 H                                       1.0934157
  2951   6 C     3145   1 H                                       1.0910343
  2951   6 C     3146   1 H                                       1.0929865
  2950   6 C     3147   1 H                                       1.0919985
  2950   6 C     3148   1 H                                       1.0923364
  2949   6 C     3149   1 H                                       1.0928103
  2949   6 C     3150   1 H                                       1.0927151
  2948   6 C     3151   1 H                                       1.0915248
  2948   6 C     3152   1 H                                       1.0909792
  2947   6 C     3153   1 H                                       1.0927103
  2947   6 C     3154   1 H                                       1.0923856
  2946   6 C     3155   1 H                                       1.0934957
  2946   6 C     3156   1 H                                       1.0933580
  2945   6 C     3157   1 H                                       1.0925126
  2945   6 C     3158   1 H                                       1.0914533
  2944   6 C     3159   1 H                                       1.0921582
  2944   6 C     3160   1 H                                       1.0925737
  2943   6 C     3161   1 H                                       1.0927114
  2943   6 C     3162   1 H                                       1.0914125
  2942   6 C     3163   1 H                                       1.0931547
  2942   6 C     3164   1 H                                       1.0933721
  2941   6 C     3165   1 H                                       1.0927224
  2941   6 C     3166   1 H                                       1.0913527
  2940   6 C     3167   1 H                                       1.0927175
  2940   6 C     3168   1 H                                       1.0929397
  2939   6 C     3169   1 H                                       1.0928888
  2939   6 C     3170   1 H                                       1.0920684
  2938   6 C     3171   1 H                                       1.0920991
  2938   6 C     3172   1 H                                       1.0931236
  2937   6 C     3173   1 H                                       1.0930984
  2937   6 C     3174   1 H                                       1.0912541
  2936   6 C     3175   1 H                                       1.0911660
  2936   6 C     3176   1 H                                       1.0920714
  2935   6 C     3177   1 H                                       1.0930873
  2935   6 C     3178   1 H                                       1.0924482
  2934   6 C     3179   1 H                                       1.0928675
  2934   6 C     3180   1 H                                       1.0932711
  2933   6 C     3181   1 H                                       1.0923682
  2933   6 C     3182   1 H                                       1.0911064
  2932   6 C     3183   1 H                                       1.0926570
  2932   6 C     3184   1 H                                       1.0929046
  2931   6 C     3185   1 H                                       1.0927357
  2931   6 C     3186   1 H                                       1.0928894
  2930   6 C     3187   1 H                                       1.0922899
  2930   6 C     3188   1 H                                       1.0931000
  2929   6 C     3189   1 H                                       1.0929495
  2929   6 C     3190   1 H                                       1.0927036
  2928   6 C     3191   1 H                                       1.0923019
  2928   6 C     3192   1 H                                       1.0928620
  2927   6 C     3193   1 H                                       1.0929284
  2927   6 C     3194   1 H                                       1.0925544
  2926   6 C     3195   1 H                                       1.0924527
  2926   6 C     3196   1 H                                       1.0926870
  2925   6 C     3197   1 H                                       1.0929047
  2925   6 C     3198   1 H                                       1.0924273
  2924   6 C     3199   1 H                                       1.0926692
  2924   6 C     3200   1 H                                       1.0925240
  2923   6 C     3201   1 H                                       1.0930276
  2923   6 C     3202   1 H                                       1.0927935
  2922   6 C     3203   1 H                                       1.0926894
  2922   6 C     3204   1 H                                       1.0923046
  2921   6 C     3205   1 H                                       1.0933028
  2921   6 C     3206   1 H                                       1.0938229
  2920   6 C     3207   1 H                                       1.0923062
  2920   6 C     3208   1 H                                       1.0924180
  2919   6 C     3209   1 H                                       1.0935197
  2919   6 C     3210   1 H                                       1.0931408
  2918   6 C     3211   1 H                                       1.0924314
  2918   6 C     3212   1 H                                       1.0926678
  2917   6 C     3213   1 H                                       1.0936197
  2917   6 C     3214   1 H                                       1.0925593
  2916   6 C     3215   1 H                                       1.0927844
  2916   6 C     3216   1 H                                       1.0928893
  2915   6 C     3217   1 H                                       1.0921846
  2915   6 C     3218   1 H                                       1.0925650
  2914   6 C     3219   1 H                                       1.0931471
  2914   6 C     3220   1 H                                       1.0926780
  2913   6 C     3221   1 H                                       1.0928412
  2913   6 C     3222   1 H                                       1.0928770
  2912   6 C     3223   1 H                                       1.0924748
  2912   6 C     3224   1 H                                       1.0904686
  2911   6 C     3225   1 H                                       1.0930671
  2911   6 C     3226   1 H                                       1.0920359
  2910   6 C     3227   1 H                                       1.0913907
  2910   6 C     3228   1 H                                       1.0924915
  2909   6 C     3229   1 H                                       1.0934706
  2909   6 C     3230   1 H                                       1.0917119
  2908   6 C     3231   1 H                                       1.0918550
  2908   6 C     3232   1 H                                       1.0936211
  2907   6 C     3233   1 H                                       1.0934240
  2907   6 C     3234   1 H                                       1.0919908
  2906   6 C     3235   1 H                                       1.0925991
  2906   6 C     3236   1 H                                       1.0929972
  2905   6 C     3237   1 H                                       1.0930011
  2905   6 C     3238   1 H                                       1.0924130
  2904   6 C     3239   1 H                                       1.0915104
  2904   6 C     3240   1 H                                       1.0932396
  2903   6 C     3241   1 H                                       1.0933426
  2903   6 C     3242   1 H                                       1.0923781
  2902   6 C     3243   1 H                                       1.0926676
  2902   6 C     3244   1 H                                       1.0929661
  2901   6 C     3245   1 H                                       1.0924300
  2901   6 C     3246   1 H                                       1.0916327
  2900   6 C     3247   1 H                                       1.0930560
  2900   6 C     3248   1 H                                       1.0927644
  2899   6 C     3249   1 H                                       1.0924978
  2899   6 C     3250   1 H                                       1.0916996
  2898   6 C     3251   1 H                                       1.0924484
  2898   6 C     3252   1 H                                       1.0925002
  2897   6 C     3253   1 H                                       1.0877426
  2897   6 C     3254   1 H                                       1.0876483
  2897   6 C     3255   1 H                                       1.0879246
  3016   6 C     3256   1 H                                       1.0879747
  3016   6 C     3257   1 H                                       1.0879229
  3016   6 C     3258   1 H                                       1.0879964

 * 2 distinct bonds (by element types)

   Z      Z             #   av. dist./Å        max./Å        min./Å
   1 H    6 C        2178     1.0922664     1.0942658     1.0866958
   6 C    6 C        1071     1.5276008     1.5370195     1.5219994


optimized geometry written to: xtbopt.xyz


           -------------------------------------------------
          | TOTAL ENERGY            -3427.502281522576 Eh   |
          | GRADIENT NORM               0.000983203882 Eh/α |
          | HOMO-LUMO GAP              11.481590456256 eV   |
           -------------------------------------------------

------------------------------------------------------------------------
 * finished run on 2024/10/04 at 08:38:07.361     
------------------------------------------------------------------------
 total:
 * wall-time:     0 d,  5 h, 37 min, 20.225 sec
 *  cpu-time:     1 d,  5 h, 35 min, 37.272 sec
 * ratio c/w:     5.264 speedup
 SCF:
 * wall-time:     0 d,  0 h, 14 min,  2.931 sec
 *  cpu-time:     0 d,  1 h, 29 min, 35.256 sec
 * ratio c/w:     6.377 speedup
 ANC optimizer:
 * wall-time:     0 d,  5 h, 22 min, 35.340 sec
 *  cpu-time:     1 d,  4 h,  5 min,  4.844 sec
 * ratio c/w:     5.224 speedup

