3536
 energy: -3716.255732940937 gnorm: 0.000941089222 xtb: 6.6.1 (8d0f1dd)
C           58.84726816191558       50.08126031756588       47.05880405091999
C           58.35237307183494       49.18076768305041       45.92778626698376
C           57.14099840247314       49.80863370239049       45.24448059729902
C           58.04159745688250       47.78983554947194       46.49240034256488
C           57.47991086965671       46.75842986729052       45.50318909861830
C           57.16469896794851       45.47526060889482       46.26848365600321
C           58.46916596042783       46.50405086131423       44.36129009461052
C           58.03241255078772       45.53429147721955       43.25138098132003
C           59.16025797996048       45.45712561444181       42.22150448612890
C           56.71573018987043       45.99497405575961       42.61573927227475
C           56.23964912788416       45.21169660127811       41.38715373905423
C           55.01995672135539       45.90823225929508       40.77717174452493
C           56.01168624544461       43.70741097897167       41.62950915210903
C           55.31566551822105       43.22733937673875       42.91393876610812
C           55.29411412125690       41.69725240087466       42.88033449907468
C           53.90444764954576       43.79935288358524       43.07817114132929
C           53.08291877550243       43.25938219592205       44.26113875431843
C           51.75548639762352       44.01790774592215       44.31129471770576
C           53.85981969049944       43.39865790426658       45.57509027741173
C           53.11899703651617       43.02159405754004       46.86616071747304
C           54.09673832362949       43.17093870028740       48.03217705096237
C           52.55682633267666       41.59682916778809       46.79527119478281
C           51.72635036063397       41.15755445367603       48.00829536702751
C           51.47531951217258       39.65113204224433       47.93523041468984
C           50.39354638322132       41.91340312909887       48.08654175999990
C           49.78587558507981       41.98103741136462       49.49579208515628
C           48.30812772219782       42.35266452858173       49.39233624668362
C           50.56101329885499       42.99507344620469       50.34674298745536
C           50.22605833108656       43.02229532919413       51.84101234012686
C           50.98115227781840       44.17130255567890       52.51174186230533
C           50.41946120862257       41.67491664396931       52.56635147186002
C           51.61246317750216       40.77001727615632       52.20863591923559
C           51.37426877512520       39.40911919803114       52.86796034466158
C           52.95874723270222       41.36484599973536       52.63650824058620
C           54.19806602463247       40.48504972888364       52.40221178605197
C           55.41029646572296       41.16723029090307       53.03582401024034
C           54.43657132054138       40.24227555715238       50.90762101809122
C           55.43937534416401       39.13253189343174       50.56320945565766
C           55.68322242572938       39.13699997763826       49.05401616357386
C           54.94024965444888       37.74881677509092       51.01828636584952
C           55.62084541238442       37.21777972398225       52.28935554003154
C           56.99933947196667       36.65984322884776       51.94512245179106
C           54.73028014050751       36.15316026004088       52.94228790812982
C           55.20030542711976       35.61475834495708       54.30391160518876
C           54.39798021098680       34.35528065075920       54.62913366706781
C           55.04011461092213       36.69752550690074       55.37876563271154
C           55.80147098996044       36.53495995913838       56.70736449778419
C           57.28742973501198       36.25985829013461       56.48329769108512
C           55.18603306159599       35.50061190998775       57.65875932651640
C           55.45976363622486       35.78430953142514       59.14462767680932
C           55.19396350809052       34.51948921553985       59.96093761300446
C           54.58929441928780       36.93921290707497       59.65628917802700
C           55.05887213261677       37.55492420395785       60.98690504050739
C           53.86563060399920       37.77143517436858       61.91910762329142
C           55.77586018247369       38.89616365637003       60.78614100626474
C           57.09633002120555       38.84477269772631       60.01005853518149
C           58.18930998282572       38.17826847881722       60.84414054841574
C           57.53812565874684       40.26356358187927       59.62071345205100
C           56.80493061522126       40.85392295816700       58.40780180949709
C           57.37150867407678       40.26662638743084       57.11806058894322
C           56.93232172325751       42.38332701371329       58.41340470279636
C           56.02710208433307       43.10927354145181       57.40805062638978
C           56.49048837404818       44.55764349692350       57.25593348260728
C           54.55072707105762       43.02767740644079       57.84054065921645
C           53.59227595515322       42.60301892917296       56.71944411441480
C           53.24276132371295       43.79947455016472       55.83767406161478
C           52.30477186070949       41.97017705655158       57.26726455457420
C           52.47213040719200       40.59028487176335       57.91355575181313
C           52.99907452399845       39.56410446702460       56.90968431672119
C           51.14392513130409       40.07277927220984       58.48504004080686
C           50.46152240169373       40.93351538497076       59.55860514284316
C           51.39625035487018       41.22592053700131       60.72806886371620
C           49.20039197711758       40.19065499305126       60.02258857568557
C           48.31974406331220       40.89961846264188       61.06093073105841
C           47.13225062562073       40.00076308920890       61.40715453968151
C           47.86629932330360       42.33035485270979       60.72098825031939
C           46.72968882616877       42.53195438819184       59.71293478897669
C           47.15386130507986       42.22010850091718       58.27868966207627
C           46.23435562991375       43.98693732799075       59.75665218959883
C           45.58786849688105       44.48374542500506       61.05918797672425
C           44.49360574306231       43.53510902440863       61.54323277872206
C           45.01386603191865       45.88260249092823       60.79061010299502
C           44.63033570377399       46.70885277089652       62.02712976702060
C           43.65358856231620       47.80249373472858       61.59670530097831
C           45.88024657222451       47.30858433071641       62.68288250713779
C           45.65544724368072       47.97694809152237       64.04752727449136
C           46.84802626062116       48.87303399747564       64.37602529782060
C           45.44275589147793       46.93770504592361       65.15383928579867
C           44.85935746190984       47.53137556042097       66.43421432602753
C           44.63863222760953       46.47085462117843       67.50527529260390
H           59.70258248926122       49.62921384600762       47.55649546044190
H           59.14529518627455       51.05506171123646       46.67438796767648
H           58.06530377874665       50.22991070498278       47.79984497670151
H           43.97073265217460       45.69041148448354       67.14602372507085
H           45.58358526500501       46.00803833854721       67.78159438521826
H           44.20097449407675       46.91037299834473       68.39955706469971
H           44.76204889727834       46.16129329832128       64.79685472294364
H           46.39938110108324       46.45956279473908       65.38081277957330
H           46.63046328623825       46.52420970841722       62.80757559518851
H           46.29490198982334       48.04944077766625       61.99498652726410
H           44.11985249009922       46.06246046874202       62.74756935732602
H           42.74715947124474       47.36335184212509       61.18451175608793
H           43.36578027446553       48.42981221814615       62.43496727342453
H           44.10358481548479       48.43059003680638       60.83080924717807
H           45.74066231432116       46.45954845338801       60.21419992459565
H           44.12718075266012       45.76097760436925       60.16266737804899
H           47.07629112676473       44.64337820608109       59.52224654605168
H           45.49722011377753       44.11049050479363       58.95816409250264
H           44.75890595895297       48.60322518671515       63.99280613309865
H           46.69732190783012       49.40396936161487       65.31199665710912
H           47.75136303612403       48.27526941475324       64.46031000370751
H           47.00062499495588       49.60806249663024       63.58892258167599
H           46.35213171423368       44.56066952254464       61.83881551966733
H           44.91123783785252       42.58225594731769       61.85820377066502
H           43.96294937174164       43.95874747394574       62.39248365671776
H           43.77254909523312       43.35011184075907       60.74901394308474
H           45.89434109526194       41.87637430149875       59.96926704605008
H           47.33776747931650       41.16016836766202       58.13657506481962
H           46.37092557272547       42.51509650877925       57.58268940095534
H           48.06091006210642       42.76269260262379       58.02134553084102
H           47.53780106845532       42.77054518595557       61.66479956710155
H           48.73003792172467       42.90636577996960       60.38341234826289
H           48.91890656029630       40.99406276841597       61.97356014276630
H           46.48991859381695       40.47998907091390       62.14315366100340
H           46.53985570667814       39.77413611523559       60.52360342244020
H           47.48046798446261       39.05859819457645       61.82621342568306
H           48.60134674745665       39.94278552323431       59.14521667974619
H           49.51324881007228       39.23881032045595       60.46517037598769
H           50.16021499654703       41.88049246032287       59.10389840083185
H           50.89638948751492       41.83861862594797       61.47325566498307
H           51.71522136520667       40.29942809962292       61.20257679565241
H           52.27797831639651       41.76764743149647       60.39809486821444
H           50.44249966306386       39.94034334197429       57.65567736335394
H           51.32769359049438       39.08231286555665       58.91307198276272
H           53.19275966353369       40.65485959557641       58.73419663978437
H           52.38543001299634       39.55882979695713       56.01094525205198
H           54.02531576024749       39.77653248208754       56.62242124547717
H           52.97383727227317       38.56546103385485       57.34078350285095
H           51.87004353245402       42.65621764282925       57.99548235805747
H           51.58845687750495       41.87021140491490       56.44605437719729
H           54.09452440057686       41.85997952632100       56.09240189899578
H           52.55479367688635       43.51059758158278       55.04641005177638
H           52.77365195205213       44.58248261080362       56.43021339865438
H           54.13667478328620       44.20623046548867       55.37479467320330
H           54.46541499916699       42.31873978131402       58.66385233872460
H           54.23496734635035       43.99812939479439       58.22964397305176
H           56.13764104624336       42.62609471539602       56.43223758764346
H           55.85193781297028       45.10015547204436       56.56474414762300
H           56.46733072428651       45.07038150468377       58.21433177358208
H           57.50929343568749       44.59244895374297       56.87441374663786
H           56.69658516734079       42.75858255108377       59.41318391555786
H           57.97531785902397       42.64108323738209       58.20995447728997
H           55.74574419320150       40.58661157552925       58.47338113999293
H           56.76979453154094       40.54783243191921       56.25709656216242
H           58.38489481423616       40.62632848924255       56.95851913036106
H           57.40038704117276       39.18174166609444       57.16357400041544
H           57.39246245875982       40.91292532959616       60.48864184263022
H           58.60729064833317       40.25375203173626       59.39610735236272
H           56.95307404689193       38.26072055539026       59.09829704347577
H           59.11812880219376       38.11695005331170       60.28038290959326
H           58.37720962540902       38.75172105518880       61.74959731921333
H           57.90614526230767       37.16845596233895       61.13152145102379
H           55.08418568177949       39.56802492750026       60.27200757055710
H           55.97915302110440       39.32853110356218       61.76971743986007
H           55.74466268176135       36.86138693173873       61.48253884412339
H           53.36391650811266       36.82909479566840       62.12960994588028
H           54.18552627574422       38.20637738797360       62.86377688461556
H           53.14824519931101       38.44826152768913       61.45912548337574
H           54.54939850071026       37.72744740946096       58.90407395992278
H           53.57087601533100       36.55925439585284       59.77180710256707
H           56.51452888979309       36.04851675721572       59.26298851278696
H           54.17361590964273       34.17453631614625       59.80185645490457
H           55.87371280866262       33.72151939592409       59.66830304377216
H           55.32746753023102       34.70460722858622       61.02430942125550
H           54.10408440080356       35.46340995750690       57.51188142302944
H           55.58608166471451       34.51272451592281       57.42195436884146
H           55.72034658097684       37.51231828288361       57.19661089632962
H           57.70056216010143       36.97223979083540       55.77243927968892
H           57.83993594663538       36.35090542563624       57.41628203344980
H           57.44718341078170       35.25455795271179       56.10018428625616
H           55.37720376227567       37.64235905123294       54.94788782667138
H           53.97577284104900       36.81153916161828       55.60007390658749
H           56.25253876810910       35.33631456341337       54.22087007918835
H           53.34189757575820       34.59515250577128       54.73992487016906
H           54.49758356885023       33.62554744264014       53.82717393785395
H           54.74203633638955       33.89162727360981       55.54757533546097
H           53.72509087733633       36.56481023450836       53.07411336164052
H           54.64590177655960       35.31401157519874       52.24612003285240
H           55.75224993596228       38.05064567090805       52.98507453910559
H           57.56919042595223       37.38592446764083       51.37046806824686
H           57.56669123348690       36.42603519646827       52.84169182392900
H           56.90323273595097       35.75405832881908       51.35047685641177
H           53.86083540335738       37.79884176376489       51.17721831032614
H           55.10337601386781       37.02019091257571       50.22052557369589
H           56.39264709169255       39.34874613882752       51.05497966484523
H           56.42612295630585       38.39127659815789       48.77879834645444
H           54.76161009221588       38.91324427406562       48.51953313665341
H           56.03944355225671       40.10933069592248       48.72220925654652
H           53.49171191357889       39.98156420309751       50.42835739374787
H           54.78236908158829       41.17849309084162       50.46051490116528
H           54.04731143293224       39.52738199218847       52.90474022733178
H           56.30674147492569       40.56335132412919       52.91821751006756
H           55.58906514423641       42.13378779211786       52.57034184624679
H           55.24478151030665       41.32747762357997       54.09961666734930
H           53.11467565158000       42.30293650548938       52.10180327441768
H           52.90527785552462       41.59471066435471       53.70298990475727
H           51.61783164880011       40.61721389706151       51.12751834643367
H           50.39082766075960       39.02219804900578       52.60493089431365
H           52.11173618744933       38.67840728392547       52.54798491895204
H           51.42355545632665       39.49628708764845       53.95172854769164
H           50.44770061842840       41.87161378649258       53.64199127835200
H           49.51747701925105       41.08258779874793       52.38362318805594
H           49.16146111935554       43.26330239561356       51.94177074301931
H           50.70076825342364       45.11843584585392       52.05500223677244
H           50.73226550351251       44.22255349327615       53.56946860300088
H           52.05685412045189       44.06084797346057       52.41711724887298
H           51.62938099042550       42.80832620887898       50.23878471479825
H           50.36857420399189       43.99200478467456       49.94052708123919
H           49.84894769751666       40.99108001542819       49.95541360051049
H           47.84863570709857       42.40791478433521       50.37597876091592
H           48.19511776505296       43.31664563822615       48.89996131093069
H           47.76686159565413       41.60790481380192       48.81119235340175
H           50.52528602055104       42.93708150783760       47.73272774628143
H           49.68367391184190       41.42790770141697       47.41122117262351
H           52.30676095936980       41.35334436834835       48.91152156923903
H           50.96610431903387       39.39239758481802       47.00818043927266
H           52.41360189859842       39.10069725453893       47.97126426251843
H           50.85658891727430       39.31805562783987       48.76588917885532
H           51.92777285831695       41.49599274562791       45.90898065574369
H           53.39714199235071       40.90610323003291       46.68090880432060
H           52.30041116384108       43.73047086235449       47.01645679147445
H           54.61322141122302       44.12619367059639       47.97246978792396
H           53.58253467319096       43.12552468122065       48.98804583236694
H           54.84375784418660       42.38051588774855       48.00042592309910
H           54.75717340990575       42.77979214472882       45.52236694670519
H           54.18189928333494       44.43933316508743       45.66791541451793
H           52.86643074899936       42.20296388694346       44.07767564020273
H           51.07395949301412       43.57284310274015       45.03121382382083
H           51.92044326611941       45.05661207117464       44.58894805797950
H           51.27212118350315       43.99945520956526       43.33609492850172
H           53.98022581567640       44.87967874123554       43.20315186494268
H           53.34444534717343       43.61116644066846       42.15816438753361
H           55.92166912238347       43.54003792185116       43.76767270129412
H           54.64402248618114       41.34440406713702       42.08172619700446
H           56.29410904143882       41.30662999866598       42.69938527890088
H           54.93979911447603       41.28260161479193       43.81959235751062
H           55.45553226434320       43.31417273635288       40.77309416793845
H           56.99305044761260       43.22426922152259       41.61346774221099
H           57.02524988913206       45.26949946897064       40.62385309628968
H           54.62526201736210       45.33121131796941       39.94352539515877
H           54.22428456460102       46.05071092420793       41.50096525039702
H           55.30607073878862       46.88817676212596       40.39969920005878
H           55.93035283916930       45.96350017508147       43.37022019971577
H           56.83370480365710       47.03902838974740       42.31200669898818
H           57.90084581857688       44.53520235614269       43.67550021003110
H           58.98587408960628       44.66581355635991       41.49704354181697
H           59.25134025771568       46.39779955450834       41.68189558015523
H           60.10833008452596       45.25266042516920       42.71624031435451
H           58.69972484192489       47.45781253575937       43.88300631431595
H           59.39516313844052       46.12499942317541       44.80012725770312
H           56.54561053976207       47.14923329595022       45.09418842882901
H           58.07509073690390       45.03909573247431       46.67428046956035
H           56.49316148871026       45.68398582370930       47.09901040553345
H           56.68626592650148       44.74051762530792       45.62739103344408
H           58.95753083934224       47.38477323380146       46.93189960310404
H           57.31673591368417       47.90927622604065       47.30189594975646
H           59.15915673080713       49.09787180181646       45.19163483826716
H           56.28074405974301       49.79400078802475       45.91001811266695
H           57.35072688634177       50.84175610325669       44.97289484145900
H           56.88073711428472       49.27156807454593       44.33600859272577
H           45.53072894169082       48.29603161929943       66.82781278153966
H           43.90608540495644       48.01292292918310       66.20230745623221
C           45.71639306746203       42.86939760525853       65.65186281544983
C           46.68383804238411       42.25494915027018       66.66095030949917
C           46.40921723002542       42.81857567625102       68.05512023749988
C           48.14511906257894       42.52843659545351       66.28581632783977
C           48.62501464027937       41.90416901448204       64.97126287743070
C           48.53167169884485       40.37837012523445       65.01993497730250
C           50.07951894507748       42.29771528925733       64.67389644786449
C           50.37276463302204       43.79802510208361       64.55286603721495
C           49.45281722109786       44.47999329258618       63.54148724574967
C           51.83037165873932       44.03804663797481       64.13085194050984
C           52.89930551031161       43.46014760235929       65.06379176705796
C           52.72137171490861       43.97364615081391       66.49340649989006
C           54.31400194650596       43.81227233349013       64.57811080445556
C           54.70774873711830       43.31104455138153       63.18190609697103
C           54.43865413462151       41.81525338377784       63.02250474212961
C           56.20140472423236       43.56803899438859       62.92280082891245
C           56.61028898605918       45.02676179977441       62.67536045264903
C           56.14191719232782       45.48325772846275       61.29488384587428
C           58.14079681468637       45.18314843567048       62.78881430092436
C           58.65224263321250       45.82994688604206       64.08570279960409
C           58.19310239273997       45.06677669968897       65.32477082459145
C           58.27042202775727       47.32035243539657       64.16647303758513
C           59.40368288255531       48.25276316841781       63.71846937095001
C           60.44124262674141       48.37389188763891       64.83438741169695
C           58.91573671796533       49.66122646504186       63.34465677182623
C           57.95666219950024       49.75182434571765       62.15154894495475
C           58.50933212788333       49.01030615721129       60.93460390497676
C           57.69171452717168       51.21038584439462       61.74662606887597
C           57.07823274886614       52.13555151767832       62.80564420559093
C           55.83351406334390       51.52259407367277       63.44498006848428
C           56.68766038828112       53.48148241331072       62.17046405196036
C           57.84782765927055       54.37747604794454       61.72596063963822
C           58.65305866900237       54.86242092365018       62.93143262984577
C           57.34570131793008       55.60884774119020       60.95444078550351
C           56.62407693325162       55.36220855115587       59.62274419309308
C           57.44480630812085       54.46360312185767       58.69943844374378
C           56.35256637445911       56.69699661275872       58.90721452490932
C           55.21945391594835       57.55571464252612       59.48416057880917
C           53.85589915292509       56.95524043746597       59.14782043604922
C           55.31675587406798       58.99304703546412       58.94021615130161
C           56.19526323356590       59.91286476655466       59.79895796166622
C           55.40196712992740       60.40299085033246       61.00959014016160
C           56.70531661850582       61.12989520738736       59.01270811552127
C           57.82018045882980       60.85639809612005       57.99715790977789
C           59.05435321427303       60.27113741394469       58.68083217943607
C           58.25290911120270       62.15046497588796       57.29006701422531
C           57.19447870780112       62.87021918153592       56.44986562892001
C           56.63262664117260       61.94237924566313       55.37463955004648
C           57.78497824267959       64.10864774619198       55.75593327026672
C           58.45905931041963       65.14928119044956       56.65802751098744
C           57.54349697792961       65.58570522091824       57.80105845235792
C           58.86829684920930       66.39393800204675       55.85393607638557
C           59.84279912629759       66.16235504322788       54.69517497854675
C           61.16239751401192       65.56743893477231       55.18661993717416
C           60.15185603007398       67.47159578386749       53.95456449089800
C           58.99282133659866       68.15514154475073       53.21892999003040
C           58.38081980551923       67.23393047123220       52.16659062983129
C           59.50314621983932       69.44514482084644       52.55501929911261
C           59.57351445807569       70.65011685785151       53.50390127537386
C           58.19723035859031       71.30739786946424       53.58489441283778
C           60.62771137475066       71.66119365915002       53.03661597651549
C           60.99951446810670       72.70491905639048       54.09900714199367
C           61.69301107052326       73.89109551986625       53.42818989975562
C           61.89281173219926       72.09817843996370       55.19859766155600
C           61.43265603498654       72.38094659050955       56.63408976056082
C           61.33954164256822       73.88111106784746       56.91554372258787
C           62.40429380827839       71.76753741377648       57.65329945619273
C           62.50471364988555       70.23649029181524       57.69965704165579
C           61.17852955053095       69.61210241698549       58.13033780908125
C           63.63802637085278       69.83199193455881       58.66668880765131
C           64.67733442340437       68.84040694336259       58.11775142396638
C           65.42529889941387       69.42010580769123       56.91802712268870
C           64.07188775385701       67.47269630702048       57.77704874068650
C           63.79790553281583       66.61711923705724       59.02375941834963
C           65.08280030144371       65.91382658991090       59.45748346250043
C           62.67253138119182       65.60987610634655       58.76692296637685
C           62.17170585621271       64.86106499595685       60.00970723611955
C           61.18310112278894       63.77980998019432       59.57530885973486
C           61.51067856925197       65.81635773070830       61.02135283423139
C           62.39788357832318       66.19868289015980       62.21382336059399
C           62.48571514003980       65.03749775428479       63.20043006653607
C           61.86405356305286       67.45884298450832       62.91057001770345
C           62.93690160847490       68.22902992449799       63.69115772367092
C           62.27986820955816       69.20200138299857       64.66946002789292
C           63.86746584026104       68.99035713956913       62.73450916310641
C           65.31135543864168       69.13394684403353       63.23414314965802
C           65.99917888868056       70.27596619366096       62.48755770925894
C           66.06958873383196       67.81530898182510       63.04284569869632
C           67.41048589639109       67.75375455970432       63.77040038715371
C           68.05141559094901       66.37700738920425       63.63782745610778
H           45.88771611157324       43.94004727505561       65.56615079731567
H           45.83435701049660       42.42080807725476       64.66884871587347
H           44.68757411350421       42.71282495030327       65.97023061446838
H           69.00302195575146       66.34264349061996       64.16381400229945
H           67.40107036790634       65.61066402242837       64.05416944902069
H           68.22872887719737       66.13810210406179       62.59126847356301
H           65.44859114821163       66.99365819351878       63.40652625148581
H           66.23238781296457       67.65226677425918       61.97450980030078
H           63.90234637902425       68.48798871521473       61.76657096203446
H           63.44637938059109       69.98383251420181       62.56262985345261
H           63.52762424829792       67.51409119367878       64.27249850690075
H           63.03172485298754       69.78662757609554       65.19616337886843
H           61.62485786638017       69.88896355389285       64.13648577768609
H           61.68359684655833       68.66902935622770       65.40666683130344
H           61.43797469667380       68.13902059362646       62.16863601752688
H           61.05842296549139       67.17226035208209       63.59001591229376
H           61.20270482339095       66.72293501684284       60.49561259505630
H           60.60234302283335       65.35897748208552       61.41819378078038
H           65.29714665051223       69.37781615784175       64.30295975419517
H           65.46815852945622       71.21185010762039       62.64944858547128
H           67.02325032447135       70.40800263976901       62.82682171356319