3258
 energy: -3427.481269302164 gnorm: 0.000664410238 xtb: 6.6.1 (8d0f1dd)
C           99.60875877669088      108.42409375098656       91.94217166164020
C          100.67235114667203      109.22676305787284       92.68060885804321
C          101.21671015811633      110.37478908256099       91.83359537956329
C          102.29008425189949      111.16893949523241       92.57253439978038
C          102.84952757813213      112.31625725730702       91.73585999181111
C          103.92415917997575      113.10264593306894       92.48365208054204
C          104.53800302957389      114.19893982229463       91.61773479209272
C          105.55540333068440      115.04781977403455       92.37758624379298
C          106.15810152140419      116.12999135515248       91.48441614952367
C          107.05266179165308      117.10743927772458       92.24460809404978
C          107.58907640727119      118.19927450796534       91.31938975262494
C          108.25157354495241      119.36394029511172       92.05586948709271
C          109.57699781928831      118.99765777661257       92.72096280261977
C          110.30564349987338      120.21415900062706       93.29788471809802
C          109.63620757047606      120.76208340684778       94.55591638919870
C          110.28225928451589      122.03846981715893       95.09736357525333
C          111.73170713457598      121.85556041882801       95.54561713976369
C          112.21977980140385      123.02840487642837       96.39529367262244
C          113.66162149085829      122.83589929856743       96.86338932453933
C          114.06283536932585      123.81147010606624       97.96851136172232
C          115.47621792877433      123.53767625216139       98.48231685448732
C          115.80377083276575      124.32970369522235       99.74648978133555
C          117.20586245560534      124.02677899838953      100.27392757475883
C          117.45238166750096      124.67324917673457      101.63563602135525
C          118.89160687027886      124.53521719425838      102.13571477597024
C          119.33331951192217      123.08884147268674      102.35632280902865
C          120.67723145316637      123.01867448310770      103.08340468631937
C          121.32374950004107      121.63224894392025      103.04144998807402
C          120.55838025557736      120.54028969169131      103.78972533007199
C          120.65981210942239      120.63037966564553      105.31047306201687
C          119.89463939058679      119.48671272106141      105.97181854823452
C          119.95112356896327      119.52392774218379      107.49633551724682
C          119.13770012035077      118.38112723332756      108.10674147127277
C          118.74537837932274      118.61433340760580      109.56416283461247
C          119.90899644286080      118.56094847397166      110.55067025853752
C          119.42195111321645      118.86165658878168      111.96695744432735
C          120.51619137061329      118.72408286094864      113.02161129907748
C          120.09273009482969      119.21240524463087      114.40887374161706
C          118.98078593713250      118.37729255574868      115.04278967847783
C          118.62535188549025      118.81935560892789      116.46918103996393
C          119.22193439769140      117.94626635197389      117.57331388399551
C          120.74049431769765      118.01396824736794      117.70435187796740
C          121.21886843343891      117.16166461064161      118.87894879334453
C          122.73950612912694      117.13029169443030      119.03478674117764
C          123.31805128519801      118.46896515172099      119.49005864768078
C          124.75581945888956      118.40353565307154      120.01341470367700
C          125.83446262508174      118.20674781992292      118.94163507297908
C          126.12116862859263      116.74560841402524      118.60160407030791
C          127.21727039640112      116.61594007950703      117.54638974849016
C          127.49794153651237      115.16777425997842      117.14152735175072
C          126.35822790189732      114.53732316491877      116.34492920418580
C          126.71597551340254      113.15019670952199      115.81640757158807
C          125.59270756874535      112.57181779043789      114.95939167166486
C          125.95397276895829      111.20887842669836      114.37390937678425
C          124.85583156419013      110.60318032316974      113.49406970811630
C          124.37911213143096      111.49909331884351      112.34822012460398
C          125.48768299000224      111.92216062241243      111.38593822288249
C          124.99315283806318      112.96770436094596      110.38881996474207
C          126.10713930832209      113.56175029216675      109.52690980462268
C          126.71315674330764      112.60126340610616      108.50169764274290
C          125.73516023233769      112.08125627883524      107.44628609453106
C          125.09600118421027      113.19095587727014      106.61383895996025
C          124.22959286397494      112.65661259886245      105.47279170940048
C          125.03615611951423      112.11466158153453      104.29529322236789
C          124.12938912105091      111.57657528030076      103.19169020785301
C          124.91827707271973      111.01979210164971      102.00879480519593
C          123.99432175940828      110.43964154981471      100.94142557926617
C          124.76132334242048      109.82387385327912       99.77360740029017
C          123.84632708063074      109.28079934661675       98.67397759863586
C          123.03257266839526      108.06633688898076       99.11488001609999
C          122.13129405591633      107.53491117024979       98.00357422062680
C          121.25543463509901      106.38379889376853       98.49192953636116
C          120.31631802763162      105.85930920886491       97.40896900594441
C          119.40265026421466      104.75476543557481       97.93503796776282
C          118.52366819713247      104.15666563275862       96.83884131314089
C          117.58616201727840      103.08123562853835       97.38711174152435
C          116.93089517437679      102.22513322030834       96.30210133111945
C          115.94742433722865      103.00055783096730       95.42885035579891
C          115.41410586842001      102.18739933353372       94.24705773582181
C          114.60208346174618      100.94645609740982       94.62440498197797
C          113.27006381359824      101.27659625853097       95.29202451245462
C          112.52600588718533      100.02207284376594       95.74488859842620
C          111.22700886900401      100.36709441960026       96.46914025353749
C          110.51925659129766       99.13473535493171       97.02557069346558
C          109.20261974907241       99.46628931567994       97.72915615101316
C          109.37671377046657      100.35609849757817       98.95856443559322
C          108.06945775322654      100.51477278391610       99.73072984237282
C          108.16923911892233      101.56424500408062      100.83537269183871
C          106.87228678188920      101.66145655770789      101.63380090329333
C          106.81056530254973      102.87046229291528      102.56430597367154
C          107.80225913610647      102.81984041120306      103.72463987037560
C          107.54900215298208      103.97625000405758      104.68719047107635
C          108.43600009207643      103.95797402270514      105.92799096877739
C          108.12904199193899      105.15370042012968      106.82797263700088
C          108.92467245273153      105.17825748092632      108.13149319288908
C          108.52918313635259      104.06530507847059      109.09814217797559
C          109.16014383410452      104.24173429430543      110.47673456182616
C          108.93139851856681      103.02459241682783      111.36812808287904
C          109.70107527110383      103.12735484471511      112.68171807342404
C          109.40101191844093      101.98762875470256      113.65703297598320
C          109.63216419193466      100.58587976073095      113.09288723952135
C          111.07033755530315      100.34077267571679      112.64640931145378
C          111.31361003738238       98.90719918463223      112.17496635861713
C          110.59857294068389       98.53406154445844      110.87578066968558
C          111.15060163235171       99.24762335822889      109.64448647409088
C          110.47454962360383       98.78963436997978      108.35044062091232
C          109.11155202744092       99.43360879347659      108.10821686085406
C          108.44817430776101       98.88442365426774      106.84703930798233
C          107.14063116775513       99.59459954970134      106.50843060569075
C          106.46052473266910       98.98529682753197      105.28517579279611
C          105.21434993184846       99.75950194229551      104.86124316621947
C          104.46957361599307       99.06066493538029      103.72455787522769
C          103.40545201806920       99.95869455229290      103.09641804114898
C          102.43723404813709       99.20987399353019      102.17791904679544
C          103.09502817711345       98.39940635485607      101.05792130578222
C          103.96505084662260       99.20045318125764      100.08761097147080
C          103.16640355353869      100.16031100323346       99.20863763880345
C          104.04143978105189      100.97805823181268       98.25793481769286
C          104.74594391366533      100.14854306784291       97.18673142230649
C          105.51695487858669      101.03349709621659       96.21377623949020
H          105.44143972905370       99.45007930661551       97.65529986810546
H          104.00504658062827       99.56269304100118       96.63677301580374
H          103.41167297704678      101.72114389565498       97.76141202362308
H          104.78985018010538      101.52186611726751       98.83782792868345
H          102.43396619573494       99.59291152831010       98.62793317865265
H          102.61572497359070      100.85645210266709       99.84477373896249
H          104.71766826655931       99.76036286609892      100.64284076231874
H          104.49215666583427       98.48869150096998       99.44863669562214
H          103.70822457732019       97.61516427294204      101.50697656969214
H          102.30413864013475       97.90223983631671      100.48882828104576
H          101.84737720818899       98.51591795127185      102.78434247330209
H          101.73998033394193       99.93018894242203      101.74412099917902
H          102.82039170647091      100.42539755243942      103.89423977556483
H          103.89533146559994      100.76129292493719      102.54229840612781
H          105.18876262067221       98.76014749098893      102.95956552182238
H          103.99982819624864       98.15026137992601      104.10743976800032
H          104.54494056810390       99.86997044098176      105.71766394297173
H          105.50526444356635      100.76198897373136      104.54029195419339
H          107.16804882312012       98.96206230496674      104.45073035367690
H          106.18661240193482       97.94964940866682      105.50559218218015
H          106.46236012943166       99.53344842353424      107.36062553578017
H          107.33994468203582      100.65295841826004      106.32109282825506
H          109.13564801488120       98.98856976540230      106.00458789630186
H          108.25202401694776       97.81732166798790      106.98121027657234
H          108.45729609578379       99.25529574691605      108.96276639889786
H          109.24129424518216      100.51459187739252      108.00798457529099
H          111.12106631975161       99.03673313342149      107.50484580150429
H          110.36267938464796       97.70213518290716      108.36798452465683
H          111.03208048686794      100.32846920485009      109.74261842661640
H          112.22250160975805       99.03819331551492      109.58024442020836
H          110.71219247392845       97.45835166012139      110.72178046960664
H          109.53204341759830       98.73667050063202      110.97530913625064
H          112.38889464265731       98.75855470592865      112.03708195382175
H          110.98966164107118       98.22108909760007      112.96267466806503
H          111.33684394470072      101.03218257362609      111.84705975610144
H          111.73371896185240      100.54090251339981      113.49030625732399
H          109.37657285749331       99.85820723475942      113.86757696334870
H          108.95008033291461      100.42117758477373      112.25804640238592
H          110.02021661995515      102.11897176040911      114.54900105852528
H          108.35682473039819      102.06212494517277      113.97434779650808
H          110.77268757602302      103.15955406985977      112.47143755932075
H          109.43980818514127      104.07231182286080      113.16606856208034
H          107.86430166588221      102.92014070018476      111.57718603489947
H          109.25065209162467      102.13291859740841      110.82511279214306
H          110.23639948728147      104.39941757072998      110.36433985390788
H          108.74870511355307      105.13317628061195      110.95625045450041
H          107.44178482015458      104.04650655579027      109.20085369347950
H          108.83816861042659      103.09915678370329      108.69140722122026
H          109.99173584206696      105.10374064918169      107.90778470620154
H          108.75631075483410      106.14068226778987      108.62028752900375
H          108.33609571138410      106.07104270360887      106.26979332741772
H          107.06201262188792      105.15322410856282      107.06767267028188
H          108.26651773323970      103.02775600986770      106.47514067906735
H          109.48707644310545      103.98267495175737      105.63085374837864
H          107.70011821557881      104.91801541408266      104.15546947555499
H          106.50342071068812      103.94287345748658      105.00284155789052
H          107.69132775495029      101.86992016933669      104.25327246504735
H          108.82531317765978      102.87250391185093      103.34837237704802
H          106.97995323581397      103.78015132827774      101.98209651107823
H          105.79884938056780      102.93700439527008      102.97636627831395
H          106.03621991551151      101.72951181633053      100.93087990717522
H          106.73754332327351      100.74637331711754      102.21532416141498
H          108.99399917246194      101.30883959170883      101.50243885939921
H          108.38896055603915      102.53601125644752      100.38497641774417
H          107.27887916411167      100.80396556245999       99.03365784897059
H          107.78521395435159       99.55306709850586      100.16619313719617
H          110.13850149990492       99.92488265120862       99.61308990149486
H          109.72494144364649      101.34333035311539       98.64967413950899
H          108.53058728731789       99.95907670649281       97.02243764907922
H          108.72753205890328       98.53047599380749       98.03658446202145
H          110.31744774221909       98.43865233238327       96.20679402520324
H          111.18157981345510       98.62561996439329       97.73072699884038
H          111.45918297045100      101.04583004482181       97.29131205133280
H          110.55676232139133      100.89019060407874       95.78303350633125
H          112.30970081204880       99.38990032574017       94.87980009836473
H          113.17052321838557       99.44759675215688       96.41606750087273
H          113.44823928252961      101.91167659978800       96.16075132382724
H          112.64341921969678      101.83908099700081       94.59581250817986
H          114.40776989261782      100.36967470322763       93.71580251787005
H          115.19138196202553      100.31108340040457       95.28800648782820
H          114.79002026269669      102.83954161301391       93.63004409625893
H          116.26296732770686      101.87252454978628       93.63376925381429
H          115.11847365134670      103.35127564355115       96.04438055849610
H          116.45080014667275      103.87935103176481       95.02221384527594
H          117.71157164871407      101.79356210132411       95.66972677175934
H          116.40671556187168      101.40104847299844       96.79031616206481
H          118.16109049516155      102.42062887535174       98.04231556412900
H          116.81099316724030      103.55175730334881       97.99725903342572
H          117.94307861257093      104.95424616662667       96.37208105935066
H          119.16383239630805      103.71819982660006       96.06899264943404
H          120.01432305035536      103.96324519603940       98.37647398627288
H          118.76875662050116      105.15743909561296       98.72956175583745
H          119.70611198964463      106.68246551744819       97.03073428864070
H          120.90624691367908      105.47509700125697       96.57282551736533
H          121.89296136802969      105.56826811146577       98.84356880993103
H          120.66316655489790      106.72386129455016       99.34547775676285
H          121.49208342216455      108.34575582508675       97.64756051650407
H          122.74178530975389      107.19917820801388       97.16123736021035
H          123.71206101152988      107.27523142074337       99.44240559209287
H          122.40579986771111      108.33556952740423       99.96558854978039
H          123.16562086831854      110.07215367705278       98.35152861267268
H          124.45956677928513      109.00088597832185       97.81294214751867
H          125.41618674298107      110.58535965905820       99.34163298504073
H          125.39813818900083      109.01633953705658      100.14418755233896
H          123.36854888691832      109.67732764146393      101.40785293773681
H          123.33748021265961      111.22712899028231      100.56612529763684
H          125.53138250255243      111.81264271348759      101.57282320746413
H          125.59608966296572      110.23824101758251      102.36257091471163
H          123.49770871599586      110.78518455782891      103.60353781319752
H          123.46996786208136      112.37448879712467      102.84254212146431
H          125.66631135542249      112.91130798611997      103.89131078175906
H          125.69607270449526      111.31324850172240      104.63391428133524
H          123.58095267067428      111.86640080513803      105.85856964991432
H          123.58608587585229      113.46182559474896      105.10941989668723
H          124.46737840710259      113.80053762378640      107.26465383397247
H          125.87786182447694      113.83566804804958      106.20410795937767
H          126.28442449243583      111.40494072983739      106.78757033244086
H          124.94897423955607      111.49529942186437      107.92634462838336
H          127.52986822711927      113.12078271118460      107.99218247690317
H          127.15012844783246      111.74719902069739      109.02404880538047
H          125.72010229634809      114.43870653929409      109.00415469296590
H          126.90934831771054      113.90996864565429      110.18411353323164
H          124.22003450933158      112.53672893798149      109.75182947289774
H          124.52921736162925      113.78309354243147      110.95048719129454
H          126.31751159534174      112.35279761773958      111.94872019826478
H          125.86412139018381      111.04346458714252      110.85838837666201
H          123.60929044920584      110.96160242394251      111.78733163050764
H          123.90962677605053      112.39292054272651      112.76324578274003
H          125.23033440328221      109.66255594606289      113.08027852509457
H          123.99275983536509      110.36460581126262      114.12210686548838
H          126.87640125325080      111.30056109451394      113.79616130564668
H          126.16160913632920      110.51439254109425      115.19302818083182
H          124.68824630596281      112.48164170391411      115.56446769043147
H          125.38226512358069      113.27363693648124      114.15096160490465
H          127.62839408123556      113.21625397337912      115.21702677841589
H          126.92266010034305      112.48237115326425      116.65582346259441
H          125.46826131087842      114.45637481115064      116.97090963954625
H          126.11425193404872      115.18923428760408      115.50206412147165
H          128.40428787606163      115.14616003927735      116.53004554022439
H          127.69195224747675      114.57092587919527      118.03573835862687
H          126.93159182464757      117.18378917333122      116.65781388268445
H          128.13707684583136      117.05999021370559      117.93699663265303
H          126.43543893596772      116.22040946468043      119.50654011799838
H          125.21367720074400      116.26703082913319      118.24087548202525
H          125.54169997245776      118.74107627220739      118.03506059799383
H          126.76511587129126      118.65927976233944      119.29585188734698
H          124.95761710757125      119.34745908547922      120.52729658030795
H          124.83521222010236      117.60785851067718      120.75849772401720
H          123.27473592918820      119.18969541791836      118.67080083882898
H          122.68844367261676      118.85244870063707      120.29888351106803
H          122.99948116279300      116.36834092605206      119.77425772842390
H          123.18024954216436      116.83631612919548      118.08088657235794
H          120.77031687481104      117.53454519832584      119.80420899176897
H          120.86314322756694      116.13797141320772      118.73269710635600
H          121.20853752090392      117.64847857107821      116.78839687744241
H          121.04561060006763      119.05121592315572      117.85156779699396
H          118.77972933428795      118.24882250492035      118.52763415787599
H          118.93321728040924      116.90780899497699      117.39579113253843
H          118.94170825679691      119.85435170486895      116.61682599790954
H          117.53922839676837      118.79562730732668      116.58707573490891
H          118.08973288871172      118.45209001153280      114.41833721309121
H          119.28067646950873      117.32797424202248      115.05734644181622
H          120.96880875224575      119.19950401115412      115.06131714914657
H          119.75578992590674      120.25012768330711      114.32955800433015
H          120.82567028681108      117.67824375764648      113.08666595971474
H          121.38607974781220      119.30400655756793      112.70202960430548
H          119.03196363568173      119.88206824664617      111.99028242031746
H          118.59893527061566      118.18362445263894      112.20373064426057
H          120.36574799740079      117.56822045054784      110.51876340466583
H          120.67473897191964      119.28628721047070      110.26739067812804
H          118.25372580486136      119.58702548125059      109.64599170676495
H          118.01183095772774      117.85797574067685      109.85380854684871
H          118.21856126322454      118.26155351430839      107.52604968166354
H          119.69969299199930      117.44765780984987      108.01965246067478
H          120.99073249524255      119.46338212489327      107.82464915624580
H          119.55187850269949      120.47989830791573      107.84219781524612
H          118.84889572348703      119.53573639973519      105.65635769809741
H          120.29875905933439      118.53403780979642      105.62031837595225
H          121.71053992157302      120.59195794935587      105.61016247937775
H          120.25432229313458      121.58369844618645      105.65678734336281
H          119.50649228656252      120.57188717319087      103.50203320690360
H          120.95539255369414      119.57057417831474      103.47839427405972
H          121.42274447543264      121.33388801015977      101.99367322445707
H          122.33366884314917      121.70189805672662      103.45546512076761
H          121.36506779664673      123.72582442824796      102.61099475515378
H          120.54755720818542      123.33772180754643      104.11959942889260
H          118.56987234858778      122.57283387632974      102.94041728053007
H          119.42089448807702      122.58259184537989      101.39318296467208
H          119.56870009448377      125.01331159136093      101.42288322399409
H          118.97873454748327      125.07581051799967      103.08234474772698
H          117.21001241884723      125.73763460073489      101.56997182157215
H          116.77592514254562      124.22639053799135      102.36771792302655
H          117.32274094851353      122.94576870846446      100.36271408817743
H          117.94994266660875      124.38488097217491       99.55809197878305
H          115.71258348191752      125.39979482379880       99.54341715482070
H          115.07314774276944      124.07945093408372      100.51983885772675
H          115.57149215905237      122.47125585985997       98.70141448098811
H          116.20011135959710      123.78164865835895       97.70065546022742
H          113.99508616069535      124.83817332865418       97.60085895268362
H          113.35774582809874      123.71590270722044       98.79889970028769
H          113.77395441307682      121.81782273114999       97.24345567313920
H          114.33907377938729      122.95041431222268       96.01364624786547
H          112.13622891841050      123.95731460826649       95.82585448837546
H          111.57044201896767      123.12285269339701       97.26945228140767
H          111.80986819046890      120.93999831763678       96.13640104292651
H          112.37954848922243      121.74635992482729       94.67402540402124
H          110.23286811177196      122.82111673135171       94.33608387348832
H          109.69341693614211      122.37788911298675       95.95382504496042
H          108.58789627041082      120.97988859288590       94.34068493708034
H          109.65934594860583      119.99113052119422       95.33040211973807
H          111.32988763841058      119.92511580866245       93.53807705413767
H          110.35300534742575      120.99977224710089       92.53923485673010
H          109.40374124306808      118.27356831014976       93.51864124533517
H          110.22143623446304      118.52381790164266       91.97583939120513
H          108.43552526016697      120.16713799933542       91.33676942245413
H          107.55393598484092      119.74576963642131       92.80373752371440
H          108.30054280047950      117.76197782912135       90.61440429127856
H          106.75412203104283      118.59650988254371       90.73515738603672
H          106.47422524370543      117.56950454501143       93.04844245985093
H          107.88217632626721      116.56458846778460       92.70087951404020
H          106.73337333075352      115.65926052600847       90.68306445741054
H          105.34497123429449      116.69037261775782       91.01454255441229
H          105.06310894837121      115.51952636407781       93.23198339518855
H          106.34941756357074      114.40629766044852       92.76771870207027
H          105.02367089055139      113.74278858903040       90.75139468606025
H          103.74264413468782      114.84832053098157       91.24204636362940
H          103.48504040572081      113.54951492338857       93.37886788305016
H          104.71283067257066      112.42132977513502       92.80855013766077
H          103.27139257536700      111.91519712165618       90.81165507943780
H          102.03516704586575      112.99071737887513       91.45852916842792
H          101.86854549055253      111.57227376676103       93.49632228945883
H          103.10359136601987      110.49213376808176       92.84769116817927
H          101.63805290517288      109.97204696986920       90.90910622315535
H          100.39610952044977      111.04213343656976       91.55803343394618
H          100.24610183353272      109.62805782681750       93.60314544516814
H          101.49510667982119      108.56551620863111       92.96073663500020
H           99.23639657482818      107.61614314664480       92.56787349436104
H           98.76968962628449      109.06075421436331       91.66931495918841
H          100.01973377709417      107.99284324815515       91.03175116514511
H          104.84446474267557      101.72363806182801       95.70782852753480
H          106.26817128225824      101.61601887885416       96.74345102424343
H          106.01781429384296      100.42981227350646       95.45985539944577
C           98.23390638957876      121.70592675966894      110.32419073686370
C           98.43904337576436      122.58237331172744      109.09381439212541
C           99.61667680892586      122.10044450537481      108.25138909899101
C           99.83067102996827      122.93653249410799      106.99120627281749
C          101.03731332554511      122.43795122351204      106.20164951579621
C          101.37222991313466      123.28718425200888      104.97731098611611
C          102.61235974064782      122.73547598295941      104.27812086485253
C          103.08925178865461      123.57749280766872      103.09807059712678
C          104.22892026734641      122.90940867134658      102.32400478680833
C          105.53193006905069      122.77838455599104      103.11268849321793
C          106.62120806850761      122.10252856078370      102.27982446439840
C          107.86306519244651      121.71267406255203      103.08380436620578
C          108.60517589709193      122.91031911951818      103.66954315208477
C          109.91056967524750      122.51511570922374      104.35985301839661
C          110.49389551549174      123.69291719590004      105.13652843135428
C          111.77716842664825      123.36073153013530      105.89698361329336
C          112.12624475603251      124.48413402933498      106.87095633222944
C          113.36461717880957      124.20850679453234      107.72128568879418
C          113.48751656744905      125.23520472314937      108.84518065143573
C          114.60974148964492      124.92798374993744      109.83340354089715
C          114.55237134824139      125.85948692555752      111.04270779816697