3258
 energy: -3427.569085531269 gnorm: 0.000972935318 xtb: 6.6.1 (8d0f1dd)
C          108.10468836614190      111.79267216136944      110.16007109706906
C          108.52910243013626      111.97035593022912      108.70889489334469
C          107.41877412991057      112.55759548994975      107.84175059742373
C          107.85305522995272      112.66583977631930      106.38302009838483
C          106.75674100231096      113.20216615085022      105.46634736068766
C          107.18346993385762      113.14297031371166      104.00179871439602
C          106.11187841412615      113.66069641947088      103.04589874895855
C          106.53869768600134      113.50146488068226      101.58915761207685
C          105.49716565727232      114.02108962280032      100.60216917821852
C          105.90060595316821      113.73678833140869       99.15738192612447
C          104.88740861652168      114.28544050042591       98.15654907966827
C          105.09407919526782      113.77395204138239       96.72998166562610
C          106.43867473388536      114.12682594152290       96.09224176735248
C          106.60212372251750      115.62252206309634       95.83164012560307
C          107.92005050845853      115.97527520509222       95.12861623303888
C          109.01689523642463      116.48473520670309       96.06499332505207
C          109.57393132309006      115.43883978911275       97.02717939092302
C          110.75213368328853      115.99245977551766       97.82658476756268
C          111.38009160832085      114.95273207165116       98.75158664409520
C          112.53707845331692      115.53437527457217       99.56069534426557
C          113.22014141225030      114.49347356329649      100.44495638517091
C          114.34036267132653      115.10504846011189      101.28254689126230
C          115.06285136558989      114.07781755687137      102.15140830056779
C          116.14635185398201      114.72930750037419      103.00749816344553
C          116.91726548899861      113.72630863790287      103.86199877382613
C          117.95330447076262      114.41639671112146      104.74587343062072
C          118.73426822606703      113.44062872237036      105.62256196297113
C          119.71878652872964      114.16524823551704      106.53778463772777
C          120.43986091594309      113.22021700465174      107.49517774700038
C          121.35925283236260      113.96652121969674      108.46002305513888
C          121.87749129416466      113.06380052135857      109.57643302118082
C          122.83409569248506      113.79028802433730      110.51911659596867
C          123.15144625729617      112.96068466447454      111.76045222852862
C          124.13765095183550      113.65739290000865      112.69449941860884
C          124.27764216254572      112.92347499302717      114.02548160616603
C          125.22465905568659      113.64568385688574      114.97904029572881
C          125.28016396407502      113.01123315950608      116.36859325849829
C          124.01979648365429      113.25006000577653      117.19889054480734
C          124.22026005591609      112.82018669611222      118.64978320703848
C          122.97365505541764      113.02115937789944      119.50877713165148
C          123.25689227377138      112.70801411666419      120.97623264028495
C          121.99956905731524      112.71937113666469      121.84277234799842
C          122.33773643275376      112.45604201142274      123.30921210594532
C          121.11910935337970      112.19054404544046      124.19201102847009
C          120.14767293083560      113.36476189805106      124.28821049676509
C          119.07418680828314      113.11263465131945      125.34612335344885
C          118.05409818199483      114.24541855569841      125.41810831392442
C          116.97247088787672      113.99570735580733      126.46706008115561
C          115.96571215595679      115.14333116848078      126.51902722986601
C          114.83037302739004      114.88221929905023      127.50775994811865
C          113.95226786454170      116.11133723524580      127.75134168820466
C          113.16175713035018      116.55121711578553      126.52055391307495
C          112.32222236062925      117.79611612096122      126.80370709564126
C          111.46277775670171      118.23215738209122      125.61569968868105
C          112.27952807265069      118.76251917000832      124.43825709570042
C          111.38046719694289      119.18720512112866      123.27852328040831
C          112.14378438777442      119.63869204372394      122.03077408001168
C          112.99176191423535      118.52300880014283      121.42458546810877
C          113.55691578319272      118.85919889401549      120.04624311636907
C          114.43150785777308      117.71192949761063      119.54164948572478
C          114.93757972394080      117.88033490848429      118.11124061236555
C          115.98354198007920      118.97982722205860      117.94588559260491
C          116.47630402582094      119.05460611447307      116.50250916824143
C          117.34807013645030      120.27844104199785      116.23770285757719
C          117.76736171498091      120.36523124957415      114.77275409635310
C          118.58396291400969      121.62088949159420      114.47908825751320
C          118.98751416097362      121.74287526623250      113.00894717600916
C          117.82239429847770      122.12378484350602      112.09967470129841
C          118.24727116450561      122.24895029671866      110.63880721024159
C          117.06673086055234      122.61321346594455      109.74369391386645
C          117.45028441523269      122.71775237871974      108.26989708994451
C          116.24111799308383      123.06668571614094      107.40722767546629
C          116.57109663818574      123.14889007384230      105.91912265732591
C          115.33104644079619      123.48997677303200      105.09773136090759
C          115.60024809369200      123.53832626101389      103.59621776985664
C          114.33302652616301      123.89060410047190      102.82270010764489
C          114.53904623605901      123.91319978613399      101.31072283202795
C          113.25319434654959      124.30598548275782      100.58944396236993
C          113.40248137457451      124.34945638387401       99.07136300676974
C          112.10424441018026      124.80216183487171       98.40906757474966
C          112.21068676808352      124.92430958972379       96.89219575866463
C          110.89448252239646      125.40411573159109       96.28634469600695
C          110.94943797850841      125.55493671359655       94.76863102609997
C          109.64326598659362      126.13229228811106       94.22689323109830
C          109.66111688549911      126.38630102745965       92.71951245458672
C          109.67311383066752      125.12194163107515       91.85922283429584
C          108.39665046996245      124.29239071137063       91.99791176980848
C          108.24828445329273      123.23680079978719       90.90207306664206
C          109.30743208789715      122.14013360012915       90.97493250990145
C          109.09406391544550      121.07938855277074       89.89702651778440
C          110.12330607086933      119.94977410639315       89.95554668644968
C          109.90825081420776      119.01657284729220       91.14363750524929
C          110.93928429365000      117.89305865107123       91.19671278247472
C          110.70139919619209      116.98475228708662       92.40011361260412
C          111.69062888575266      115.82348211895587       92.49240951487691
C          113.10803605211122      116.22268723526591       92.90734042296101
C          113.20797734043784      116.62198767866008       94.37728487575262
C          114.64711609078111      116.90712948922088       94.79985030049534
C          114.75270516967022      117.24736164154440       96.28441748885663
C          116.20030812896098      117.35990415191016       96.75528667748132
C          116.29674543935913      117.60570397212557       98.25876157820180
C          117.74004488818802      117.61051598774128       98.75611645025873
C          117.82012426905786      117.75794098053291      100.27321848656776
C          119.25736972092560      117.74713166976919      100.78846772461496
C          119.30927140041558      117.79620905706442      102.31324781431768
C          120.73502422547888      117.82987475285546      102.85907036714472
C          120.74679180439212      117.76415680206395      104.38439609017107
C          122.14785649616243      117.87746026623103      104.98142060090781
C          122.11804179972665      117.67293580465294      106.49457058535288
C          123.47287260657431      117.89547541931394      107.16307747421035
C          123.41394133123127      117.54960814849836      108.64980188151922
C          124.69382659720351      117.90447405400974      109.40266013430607
C          124.63032117933530      117.43809560266384      110.85619259340039
C          125.81520432346036      117.92527821864358      111.68606731279075
C          125.77393640050600      117.37835966946852      113.11228394431521
C          126.88751027868956      117.96431256458990      113.97815952677004
C          127.04402610198316      117.26678098702182      115.33000839158511
C          125.86301020690550      117.47583515675464      116.27532575744902
C          126.11887730680228      116.83842961357269      117.63941567874488
C          124.95025751902020      117.03519881931896      118.59658649286153
H          126.30035606963334      115.77003106840729      117.50551656571133
H          127.02061962783664      117.27422468495638      118.07609763764522
H          125.68532541003108      118.54615717709861      116.40238150806476
H          124.96068947997361      117.03935915221490      115.84313034383624
H          127.18767776712681      116.19609265662541      115.16647271391663
H          127.94671957559288      117.64852421998468      115.81403479690370
H          127.83185345078762      117.87547112120158      113.43480379466826
H          126.69978438624938      119.02868500508056      114.13871322478381
H          124.80193801004106      117.60818097282915      113.55371781933533
H          125.87531892986139      116.29143347512193      113.08068748514904
H          126.74754297250371      117.61441545458753      111.20824296742477
H          125.81181367673901      119.01797908324602      111.71561307871687
H          123.70511113814069      117.80308715416218      111.30832139273674
H          124.59656641124825      116.34670391672282      110.88244834906145
H          125.55225110515342      117.44290281052142      108.90817563778035
H          124.84435030301903      118.98669598192750      109.37234527382091
H          122.57699914332869      118.08341716012667      109.10540778360006
H          123.21767736577975      116.48066028150227      108.76103635646800
H          124.23165479479920      117.28004886302587      106.67316010380301
H          123.77205245510436      118.93956029191121      107.04075239325573
H          121.39111740574468      118.36043238797481      106.93238221011153
H          121.77625556576187      116.65745054321536      106.71001362799075
H          122.80392136870636      117.13260332937608      104.52400215295884
H          122.56288844177057      118.86201974771490      104.75185974762555
H          120.12553705256967      118.56908544412494      104.78246435595503
H          120.29842270598422      116.81934976010086      104.70274831580947
H          121.30177790438246      116.98809847496302      102.45347009974600
H          121.22917511701233      118.74649750454981      102.52799370552820
H          118.77198893059192      118.67948978529597      102.66406525306934
H          118.79335808371687      116.91991989208742      102.71496814463342
H          119.76150319116846      116.84306228557200      100.43815938348196
H          119.79643216442292      118.60378446334533      100.37707182795825
H          117.33692519268365      118.68970078376366      100.57351984719357
H          117.26746913094813      116.93786268598730      100.73984256988103
H          118.22457749855253      116.67659357347108       98.46064170642401
H          118.28521548098168      118.42918636763427       98.28089688154928
H          115.82443564825333      118.55907938932802       98.50454495102585
H          115.74374843689995      116.82052380863649       98.78173372081015
H          116.72596039116368      116.43324923699838       96.51184573229045
H          116.69657115217581      118.17207307144152       96.21947037410931
H          114.23127018253480      118.18641147181488       96.48522561163200
H          114.25375067555720      116.46367300392787       96.86085902935481
H          115.25976670171868      116.02594091786398       94.59325789368486
H          115.04637709188174      117.73261286438508       94.20592020517508
H          112.59780981879091      117.50742527268110       94.56117288566385
H          112.81092479750005      115.81070710021389       94.99191770596070
H          113.77116481879825      115.37087822249561       92.73410368340160
H          113.46409622691149      117.04256419745029       92.28151516087460
H          111.31074246326556      115.10131911841250       93.21718216776870
H          111.73205217088451      115.32516032120826       91.52055617405128
H          110.74408144342641      117.58009206162426       93.31383679615381
H          109.69105363108368      116.57392587066106       92.32945576428040
H          110.88339705357149      117.30245123492166       90.27912772099099
H          111.93950464167096      118.32799592905155       91.24780101925626
H          109.96464028289817      119.58634052960431       92.07304975229957
H          108.90725252230477      118.58253746913401       91.08193381928761
H          110.06101412994711      119.36401829553297       89.03513034293530
H          111.12748822141829      120.37800044449646       90.00569553763985
H          108.09156215912422      120.65572960909475       89.99541324537954
H          109.15183631529447      121.56258681575100       88.91858294362042
H          110.30019308774887      122.57551876002590       90.84808613593744
H          109.26798591023888      121.67954788285155       91.96362767136138
H          107.26177280241161      122.77432422340060       90.99055359791096
H          108.29633240112574      123.72221287104442       89.92417233257378
H          108.37795785704303      123.79752622127481       92.97034155942403
H          107.53590312082332      124.96477726768772       91.95117740360186
H          109.78070453683725      125.42349427196267       90.81406134219540
H          110.54223182632774      124.51585924296158       92.11614301595034
H          108.77930055497929      126.97624904614136       92.45593734353440
H          110.54154780089593      126.98648653270912       92.47585998380788
H          108.81905319603044      125.46166936842211       94.47524174083871
H          109.45169411505687      127.08275930030744       94.73146756907293
H          111.77515852723067      126.21839303735769       94.49995468418783
H          111.14547864318193      124.58091652820029       94.31781502827717
H          110.10283632645746      124.69671291032891       96.54666176415157
H          110.63142049650509      126.36718367606666       96.73048778820520
H          113.00665296142863      125.62830636910635       96.63768406441827
H          112.47930501111935      123.95442515849443       96.46799493901641
H          111.31180495836945      124.09012710061317       98.65494162798045
H          111.81360306965009      125.77130325320060       98.82157422739702
H          114.20591732804169      125.04075353057347       98.80504875339336
H          113.67779776258571      123.35890697371528       98.70215377371036
H          112.46565328693868      123.59370849759667      100.85005015916721
H          112.93324697985675      125.28919175941074      100.94317381928124
H          115.32709936158872      124.62811601183571      101.06197469529081
H          114.86336751181426      122.92743322414698      100.97093617204212
H          113.55379689671796      123.16262598200304      103.06505271325621
H          113.97522338748172      124.87004274282965      103.14952188481251
H          116.37211560915557      124.28288739291669      103.38820184659507
H          115.97469930251154      122.56905325847110      103.26070541237419
H          114.55675571177827      122.74352136652651      105.29618524948108
H          114.94058102879950      124.45746483556863      105.42271200792257
H          117.33720246696375      123.91024925872148      105.75686715928539
H          116.97853547243521      122.19323990760857      105.58255636040356
H          115.46700743703228      122.30934371165783      107.55972105467941
H          115.83009163134783      124.02398540874601      107.73711172753387
H          118.22100241158755      123.48153004832731      108.14636206089855
H          117.87228803409140      121.76729137570432      107.93563079394801
H          116.28784157378465      121.85427480048408      109.85771815618924
H          116.64564973289338      123.56592174408284      110.07410975125089
H          119.02475247959120      123.01061571800663      110.54755427818550
H          118.67575187047335      121.30085705021804      110.30427648588895
H          117.03666223149905      121.36969943199172      112.17352107567491
H          117.40062615851126      123.07442092827097      112.43480898352232
H          119.76755016156261      122.50207586080906      112.91589644853579
H          119.41117033481136      120.79366221051139      112.67134627382171
H          118.00590529940970      122.50238355464569      114.76626597213064
H          119.48529572927153      121.60228011125240      115.09485071463349
H          118.35824200542032      119.48257359722730      114.51405293659204
H          116.87223567869120      120.35389962973764      114.14843895112952
H          116.78935863048456      121.17909603102838      116.50271210976923
H          118.23677192456687      120.24004429354154      116.87083259576690
H          117.03802056084264      118.14803083830535      116.26558196857079
H          115.61318495609595      119.08565613829640      115.83301938733209
H          115.55532931219817      119.94283670286302      118.22972789737624
H          116.82812755047719      118.78409942384870      118.60997190312581
H          115.37844527017880      116.93419134696789      117.78741819965609
H          114.08919783202619      118.09226260822703      117.45421978358708
H          115.28773738675946      117.59563616575474      120.20950519237986
H          113.84857421939277      116.78851649301866      119.59340914888742
H          112.73568060474103      119.02940785598574      119.34606184620181
H          114.14163616802463      119.77868832674920      120.10687755542607
H          113.82536114908382      118.29886790908965      122.09306227533234
H          112.37946136468791      117.62210420710123      121.33942996446848
H          111.41714903134407      119.97470987260344      121.28648958922858
H          112.78162907681454      120.48976874867078      122.27952278914093
H          110.73485400845338      118.34670655070613      123.01093504821962
H          110.73196864490528      120.00202719060684      123.61033531516669
H          112.88080457908301      119.61411375692272      124.76454601059119
H          112.95972683194974      117.98171230643358      124.09992315726123
H          110.86219414858529      117.38259491658401      125.28135349712562
H          110.77349503143957      119.01308286173575      125.94725251683290
H          111.66539811232066      117.59029636176265      127.65295334044106
H          112.98232596695756      118.61778454955831      127.09175386445813
H          113.85337625307743      116.76000267426537      125.70515548431749
H          112.50459599366998      115.73810366171129      126.20335453269716
H          113.25110251774696      115.88810840614050      128.55984285269562
H          114.58355429788401      116.93854240466177      128.08526215818515
H          114.21212727012239      114.05891897122852      127.14246710446440
H          115.26268972432437      114.57173143593756      128.46263403558336
H          116.48586564753424      116.06079223706165      126.80493843073791
H          115.55450470713323      115.29548663186719      125.51914991676972
H          116.45207395619938      113.06407132421859      126.23399796902842
H          117.43882558588889      113.87755568666081      127.44826774625831
H          118.56852919881956      115.18230830275725      125.64586825178465
H          117.57941270461792      114.36159582053456      124.44060880193631
H          118.55863525915780      112.17718929017826      125.11941704573717
H          119.55242630380104      112.99696461856973      126.32176137307674
H          120.69888413511575      114.27351217927362      124.54207587182735
H          119.66724968689593      113.52573699130780      123.32127182347126
H          120.58575126482123      111.31565050463273      123.81559509943419
H          121.47430937530110      111.94895332307941      125.19616460352236
H          122.99411393818362      111.58309617822292      123.36593141164951
H          122.89353433046030      113.30875977286163      123.70625526949004
H          121.50275855635216      113.68533087018950      121.74401052147553
H          121.30735205525522      111.95274572246116      121.48536388661023
H          123.72903126366144      111.72488113423718      121.04478799887706
H          123.96792077389512      113.43987895630224      121.36664939281931
H          122.62873097021932      114.05415210480979      119.41875055013642
H          122.17394551360751      112.37038157640264      119.14575060236898
H          124.50527234528678      111.76517026193490      118.67679502315855
H          125.04371615129331      113.39519771102583      119.08050860768238
H          123.76851242063084      114.31277108959068      117.17222117489800
H          123.18111895156881      112.69819644280045      116.77134053347717
H          125.44744175920803      111.93630349026166      116.27057544325798
H          126.13489054329411      113.42783682689179      116.90815778622228
H          126.22875036268582      113.64358876848580      114.54582732416479
H          124.91094363493245      114.68724723366043      115.07617953058057
H          123.29259288029667      112.84200189531474      114.48843172532602
H          124.64857048768501      111.91134921825385      113.84678214697365
H          125.11436403019623      113.72879114702521      112.20929935768137
H          123.79230161771679      114.67599980861731      112.88802987363592
H          122.22104947470926      112.77294966252609      112.30393329123565
H          123.56067255906194      111.99379521221053      111.45944203652842
H          123.75924830121720      114.02820750698456      109.99009678452565
H          122.38031133825186      114.73401670574752      110.83149386774305
H          121.02455042519694      112.69532782466362      110.15262805354855
H          122.38434131592412      112.19863902791394      109.14344612122632
H          122.20276959378951      114.38689017313594      107.90894542659559
H          120.80695391608019      114.79610374266089      108.90853319878984
H          119.69680408706719      112.66772105423631      108.07349082509191
H          121.02264890011524      112.49336619821577      106.92398314692726
H          120.45621433920638      114.69381494781429      105.93018847874926
H          119.17209793074441      114.91009527003584      107.12138156990392
H          118.03442669205489      112.86652447560833      106.23341155057335
H          119.27671704090341      112.73581125330786      104.98757575834955
H          118.65468754397844      114.96607501007466      104.11393401455643
H          117.44486852607810      115.14141164606586      105.38579537915935
H          116.21738914553806      113.17411013963557      104.49288600183309
H          117.41547253312858      113.00477190862601      103.21106482932912
H          116.85005164399367      115.25226990106115      102.35527803558575
H          115.68339861074676      115.47453510111592      103.65821130383857
H          114.33894938863327      113.58247435720006      102.80341715417491
H          115.51177091008572      113.31393816703689      101.51279813878780
H          115.06665547728365      115.57981271753604      100.61806012111110
H          113.92154335212933      115.88544725367008      101.92137084427637
H          112.47845047171919      114.04735901444454      101.11042168401852
H          113.62902279680642      113.69710835698940       99.81803946588106
H          113.27434528681354      115.96265999649960       98.87708883086621
H          112.16215342153819      116.34740290579983      100.18557382596518
H          110.61967449725469      114.57233982690823       99.43667462132930
H          111.74038174210604      114.10989126966115       98.15648144410923
H          111.51250241887725      116.36198435973208       97.13425710597812
H          110.41176634686947      116.84297903857269       98.42097662944234
H          108.79427120422076      115.11776768790104       97.71953128112018
H          109.89823985301692      114.56235987551958       96.46073841854376
H          109.84038401439130      116.85912745003949       95.45229653281437
H          108.62760037104825      117.32840448777735       96.64037323030193
H          108.28828960772424      115.10382929244980       94.58257476479621
H          107.73024141621059      116.75987954091505       94.39198802660830
H          105.76365735181463      115.94980669599990       95.21201164172648
H          106.54603386554388      116.17237068038935       96.77198218891557
H          107.25305462781758      113.76275929961123       96.71728466421911
H          106.50712457571913      113.59978806574391       95.13636916161832
H          104.99113382482831      112.68492098945370       96.73749910389795
H          104.29397495406579      114.17509545424183       96.10164174976858
H          103.88628874650767      113.98683461338325       98.47704352542370
H          104.91682619809410      115.37611390520418       98.16978627545740
H          106.88123980710807      114.17864155344617       98.97005236770013
H          105.99137739903698      112.65687995991090       99.02193911411615
H          104.53569468135059      113.54524161744460      100.80718693180511
H          105.36874072561054      115.09681413589072      100.73951462755778
H          107.48170129116137      114.02952339733345      101.43263781265463
H          106.72243813905051      112.44299729883706      101.38707943100884
H          105.18177468386710      113.11092099874332      103.21172100000986
H          105.91068269800040      114.71376460135551      103.25620940340970
H          108.09859000044695      113.72440421829097      103.86733304244777
H          107.41765309602563      112.10715017966938      103.74482594767287
H          105.85111693596940      112.60612196836631      105.60104147960388
H          106.51933142268076      114.23248686891496      105.74090654955039
H          108.73169624214532      113.31153573817262      106.31505430454887
H          108.15210821753789      111.67478160050675      106.03123862680586
H          106.53423627070856      111.91884842736940      107.90927428222054
H          107.13892533924515      113.54428398723702      108.21755159435216
H          109.40468723941562      112.62119000177188      108.66081290206971
H          108.81445270557424      110.99851911243546      108.30150713404495
H          108.91695590742049      111.36643208892791      110.74568748876855
H          107.83058658831938      112.74950256060393      110.59875699497621
H          107.24722772172370      111.12774754040721      110.23119856486146
H          124.04390834008983      116.59027307612608      118.19272113633428
H          125.15929325558399      116.57100904103102      119.55773338733067
H          124.76563290118551      118.09479989452987      118.75956413472885
C          105.59673493157216      100.41965906275109      125.49533034139294
C          107.03070093254982      100.63150479469867      125.02843307152337
C          107.99812290959133       99.63072206703782      125.65335914724433
C          109.42753136676779       99.82749712905118      125.15443045836371
C          110.39669966611936       98.82988651842223      125.78290376793873
C          111.82806402457263       99.02795336909192      125.29071569160703
C          112.78860166715320       98.01875264487387      125.91730202901188
C          114.26047168054953       98.32485225211325      125.63966808759594
C          114.64503789747383       98.20170312140084      124.16752001424530
C          116.12390426035732       98.51206581488358      123.95313987997579
C          116.56615103923092       98.41597098919743      122.49313935305555
C          115.91515709456577       99.46629051648360      121.59394700190200
C          116.61699931971242       99.57881302008893      120.24356166948641
C          115.94350875574720      100.59611260877759      119.32749787282566
C          116.74671680589491      100.83628385222829      118.05232225139689
C          116.10442286281386      101.90498246028882      117.17182908187034
C          117.00042198310628      102.37345607977785      116.02666350825808
C          117.33447520062631      101.27137977451873      115.02416327999724
C          117.99704249908659      101.83692029764221      113.77171697774277
C          118.36064615515225      100.75316077454066      112.76141616619050
C          118.96627045428602      101.34434316889565      111.49130216436768