3795
 energy: -5103.632130873933 gnorm: 0.000987392071 xtb: 6.6.1 (8d0f1dd)
C          125.49695442650783      125.79856760585741      106.71986469730564
C          124.75876262272712      124.88273112251889      105.79067503023180
C          126.78272281776880      125.18092964390139      107.26581745103555
C          126.53926351660745      123.95341327086513      108.13825141474923
H          127.42373455915214      124.89877820743487      106.42756407276718
H          127.29725366267678      125.93538234566866      107.86028229837012
C          125.75741823114562      124.29347897984823      109.40361893812434
H          126.01139423160687      123.18480029320150      107.56942515591813
H          127.50727523707157      123.53836334495142      108.42883359815497
C          125.74349488041935      123.14367728246494      110.38835973209719
H          126.17770321180913      125.18328148600411      109.87689416378302
H          124.71683492486065      124.50496081466977      109.15041919415665
N          125.47078667378689      123.50266282392377      111.64516104459975
O          123.43191238839785      125.02353619270241      105.89080450326570
O          125.25811410935826      124.10344239548762      105.01648997609297
H          122.96274675600293      124.45510260681118      105.25540974887976
H          124.82911082184432      126.11969221131463      107.51691583522070
H          125.74710277243049      126.67877659598820      106.12301813624615
C          125.38487222002992      122.57508312885571      112.75210660743173
H          125.25462865816917      124.47400573667468      111.84480947044612
C          126.21662860212797      123.02608926876306      113.95335502017473
H          124.33597936370397      122.47986825848820      113.05741382789019
H          125.73598151862139      121.60720336857848      112.38702178680431
C          125.73385640037240      124.36816071101944      114.48944962016581
H          126.12183236341686      122.26805710071089      114.73143967056390
H          127.26975960066183      123.09891466021767      113.67889253651994
C          126.38944683461445      124.77837531833160      115.80398122462124
H          125.92636665855606      125.14869752447072      113.75347846746945
H          124.65339087286651      124.32292081835274      114.63125173896701
C          125.79744619222764      126.10779548951510      116.26475292536723
H          126.22327935147085      124.01927510749809      116.57029261024887
H          127.46821791238351      124.87358264788668      115.66370698777969
C          126.46495225521082      126.68216971123833      117.50218365695245
H          125.88215173651653      126.83288852439944      115.45428454531833
H          124.73990501118013      125.96386011793213      116.48933909486831
N          126.19870373111586      125.86177297626078      118.65958275868540
H          127.54957057427536      126.73188071548086      117.38273159755083
H          126.09780011983808      127.70122075917131      117.68523928344307
C          127.05923179137439      125.76969863870274      119.67088351796345
H          125.31492645273583      125.36650890876237      118.68820501165922
O          125.94941714653564      121.98152119953060      110.04397406943428
C          126.58351577393212      124.91213795433828      120.82400652274109
C          125.36662616366236      125.54485201817685      121.50003693460300
H          126.32387671170218      123.92706933064272      120.43313182380219
H          127.40072370274147      124.80325420525413      121.53755920848235
C          124.80897536608073      124.65756671837286      122.60659997426082
H          125.64641471355630      126.51477269837532      121.91579792722939
H          124.58731605200515      125.70419141366203      120.75329625758211
C          123.53575379310820      125.26134927753465      123.20869322999241
H          124.59068903591387      123.66849139440994      122.19556799454550
H          125.55066387806444      124.53143516758985      123.39811012413345
C          122.88308185436411      124.25424104503567      124.12779875947561
H          123.81856375932458      126.14058366868774      123.79013559819613
H          122.84248575267264      125.55372267769283      122.42054877920961
N          121.63212159198100      123.90219112649433      123.81086451508749
C          120.94947842314858      122.83969247968216      124.52244266575077
H          121.19025676067244      124.26637376387444      122.97581935996577
O          128.14664515302306      126.34593538850874      119.66683871633256
C          119.43105719611962      122.92647821000351      124.46781407987328
H          121.25210625359909      121.87758588015940      124.09697076119615
H          121.29756480347089      122.86880102044444      125.55846095600005
C          118.84742072774877      121.67379635100050      125.11972432676596
H          119.07803353969203      123.81905392674396      124.98632998813412
H          119.10481703583368      122.97988229520989      123.42762900806494
C          117.33199549466842      121.57908522134996      125.00871005152742
H          119.27629005383403      120.79687411214925      124.63427291008803
H          119.12878908062687      121.65060698664425      126.17228467077436
C          116.81799767308500      120.27256356495991      125.61055849306726
H          116.87034772645546      122.42894480638658      125.51543176721206
H          117.06172635515287      121.61351731406492      123.95209723952367
C          115.30408052303829      120.15885215887300      125.49766951191965
N          114.85381293233023      118.78717666015213      125.60380125333656
H          114.80076222782486      120.74347282762214      126.27157812538182
H          114.98713583183695      120.54716696509718      124.52021544129074
C          113.63896221859113      118.44604963582314      126.03774283240131
H          115.49358484185713      118.07405504768514      125.27562951022024
O          123.47476372229764      123.77665395225034      125.09760929785519
C          113.25692785835071      116.99337305640002      125.83219554588220
C          112.86061769226168      116.32195784488754      127.14617963430869
H          112.40565464597856      116.99291697188048      125.14692691702069
H          114.08759364142770      116.45747582014047      125.37174750114083
C          114.07640856916471      116.17367184047978      128.05202649151860
H          112.08481449148567      116.90589058368076      127.64575830019916
H          112.45051882557088      115.33169242529972      126.94166313064157
C          113.75540605347203      115.37672307385544      129.31901823443749
H          114.86338319501655      115.65540085373225      127.49777866079175
H          114.45325151215143      117.16488454232559      128.31607303634911
C          115.04435831466728      115.04558180280219      130.04114845177165
H          113.10006099086884      115.95497437948343      129.97031858818994
H          113.25497511781475      114.45217332912728      129.03481696897992
N          115.63881585017971      113.93710487371706      129.59794949667659
C          116.86790798128780      113.41508425367930      130.15460714830670
H          115.18939369018106      113.41870106660534      128.84460564296475
H          117.25691228521507      119.43640110154139      125.06477837674922
H          117.11978422748594      120.19561551944072      126.65592171624608
O          112.85771885016595      119.25342021168524      126.54010449393401
O          115.52634292465791      115.76071355799370      130.92270625344409
C          116.87238526592168      111.89113373365478      130.16660575488390
H          117.72281042861283      113.76620656366033      129.56373017571531
H          116.96317703283178      113.81953830325362      131.16630693869305
C          115.72452313231011      111.28820155757391      130.97239896315426
H          116.81481494856646      111.54275687910558      129.13654084236791
H          117.82397245911193      111.55218406390618      130.57795419540074
C          115.75820196096534      109.75902972302784      130.97231801026800
H          115.78719856965975      111.64608798999018      132.00219360274497
H          114.77206019535896      111.62846650759170      130.56188364132566
C          115.41268492423823      109.15945039232116      129.61025874008740
H          116.74985563937931      109.42318137781920      131.28264743363047
H          115.03623224078744      109.38133853490919      131.69949865397430
C          115.40526185778522      107.63833176733471      129.64386125107680
H          114.42071379456429      109.50408495426187      129.31569820175346
H          116.12560303893167      109.49171771696632      128.85641046307640
N          116.75109191621002      107.10228363136036      129.75169089218775
H          114.80357628931284      107.29163396173318      130.49239517910235
H          114.94987872135333      107.23633672776343      128.73143745617847
C          116.99145257170755      105.79263480890259      129.74462957466756
H          117.52214580039401      107.75124186115016      129.89200576733319
C          118.43483482420073      105.38359609300028      129.97425123477279
C          118.91918725380741      104.47217686375531      128.84243432414075
H          119.06281280481932      106.26911750664426      130.06386332419171
H          118.46206623622295      104.83455660662757      130.91759800210593
C          119.19057798038618      105.27550252999866      127.57086090332744
H          119.81560984170098      103.93734045881460      129.15875673356652
H          118.14294089475149      103.72878827183393      128.64600901303740
C          119.50967376774840      104.39699560076586      126.36439543564205
H          118.29219548644569      105.84933918000684      127.33241483467006
H          119.98630796829687      106.00023764429420      127.75770204288872
C          120.78586143577428      103.58163715471949      126.39044520171223
H          118.68961789550629      103.69482676346728      126.20427807177573
H          119.56603007426763      105.00626981602196      125.45448351857915
N          121.75373766668665      103.97931278954935      127.22430239864431
C          123.04759275369985      103.33223728104387      127.30282469366817
H          121.57423610168873      104.71257687282906      127.89065998407033
O          116.10781048264400      104.95314278533795      129.55282830572980
C          124.13749009521140      104.29519323875300      127.77001995755650
H          122.99660173661348      102.47892126936016      127.99031552622981
H          123.27578314638789      102.93778780301326      126.31007675049970
C          124.16223237106776      105.63247386495684      127.02400106484041
H          124.00876282803195      104.49173863840345      128.83653902715344
H          125.09381216811597      103.78719764672537      127.63794634881280
C          124.18270923609167      105.46902279005469      125.50435568181655
H          123.29516543668531      106.22534763315161      127.31793076413983
H          125.05730000564813      106.17248267549178      127.33699728829593
C          124.57939832002864      106.74347862125661      124.75269420104949
H          124.90401328482143      104.69317430687001      125.24290420556153
H          123.20510837376381      105.12956421643294      125.15528899740065
C          123.82249489156621      107.99369446871701      125.19433282603043
H          125.64340445649174      106.92935328617475      124.89858275023911
H          124.42415171028372      106.57618442540580      123.68528726067827
N          122.39702836363244      107.90560753950180      124.96794928359344
H          124.00485675696899      108.18250030155856      126.25713800927808
H          124.17005462104440      108.85727440336319      124.62507138832858
O          120.93648951350883      102.62542831089839      125.63009818817733
C          121.69883693662290      108.85546731312195      124.33219665076030
H          121.92772571640781      107.06625632959920      125.26647518477117
C          120.20504232762531      108.63083387355638      124.27458414462291
C          119.51835878609246      109.51847492866598      125.31839860938069
H          119.85026911148154      108.91416967110099      123.28332450627057
H          119.95728330682905      107.58188019360196      124.43110276743208
C          119.90707508727144      109.16124705378913      126.75064348842693
H          119.78443867681143      110.56062721011975      125.13002324859717
H          118.44020121316477      109.41300389955941      125.20659549460778
C          118.96987322112044      109.84566044562288      127.75296231840305
H          119.84748332564260      108.08086315343618      126.88814846000101
H          120.93439942761572      109.47524143143535      126.94159241922475
C          119.51668349166239      109.68584194748601      129.15746926622791
H          118.89920834762967      110.90667531086743      127.51641034611956
H          117.98340400663888      109.38545695901263      127.69188227002188
N          120.39240749424015      110.63421951533010      129.49227105061954
O          122.22373011834453      109.86574456748480      123.88028246648403
C          121.07010190993554      110.69585031440586      130.77150770848371
H          120.44548814591742      111.46031264338518      128.89940948780591
C          122.16654369004657      111.75575701948723      130.74812434082730
H          120.34589197371265      110.93003712900371      131.56297521428706
H          121.48278466644651      109.70587496088910      130.98947032057725
C          123.32608358598651      111.40173425376578      129.81708840152038
H          121.72537082916820      112.70238756878425      130.42908360182292
H          122.54158666233523      111.88980997085875      131.76343829766915
C          124.30536805804492      112.56876966209748      129.68352687598994
H          123.84690738805352      110.52513904635501      130.20634551976292
H          122.92683233278701      111.14809339011090      128.83362822697808
C          125.50494651254114      112.22690034139507      128.79922062807276
H          123.77913205855872      113.42657797065773      129.25929796423685
H          124.65939516214551      112.85950180907923      130.67416334853962
C          126.32193912690234      113.47487288102417      128.47207854664944
H          126.14064019109722      111.49558123120221      129.30089850447536
H          125.15263945259314      111.78227269994792      127.86624839805317
N          127.43144317276833      113.16247519868153      127.59353111696417
H          125.67192309690751      114.21586179558265      127.99352912649890
H          126.73470507394318      113.91624653232634      129.38166029640226
C          128.67787943002799      113.61936154077647      127.73226565264613
H          127.22656358831036      112.56361003220135      126.80660891754057
O          119.22370955237405      108.73613668428750      129.88655121025724
C          129.65750344448472      113.12800295238226      126.69130611439529
C          129.95104039855752      111.63234241857816      126.83861569834764
H          129.25019708534739      113.33409755888273      125.70190138087433
H          130.58814058725844      113.68622849411204      126.79476662697699
C          130.96375770070554      111.13719212387412      125.80479845907006
H          130.35717588899763      111.44832208232864      127.83647225575899
H          129.03013611550926      111.05434422854964      126.74038652691232
C          130.45250318461808      111.20389701543826      124.36026545673784
H          131.88577112209265      111.71872236259894      125.86605772334750
H          131.21527906809217      110.09781680592621      126.02926112261147
C          129.23183080859329      110.32585529172150      124.19988531224743
H          130.22390715857640      112.22821631373048      124.07495161088575
H          131.23900348831981      110.82686671157828      123.70630155694543
N          128.06258523669177      110.97737002230512      124.18219861342868
C          126.80184125267130      110.27196147619584      124.04548717156186
H          128.06329341589759      111.98711084905244      124.10795235333399
O          129.01028849456065      114.40017540757586      128.62740482293614
C          125.67649286715921      111.16165917521296      123.53425276281129
H          126.96769401678462      109.43858287061209      123.35421034685700
H          126.53083333199754      109.83901886867076      125.01641151284774
C          125.08948954636995      112.10477193950720      124.58697602698923
H          126.03628946192124      111.73271211817861      122.67820771636981
H          124.87314240709900      110.51275452854844      123.18358573921898
C          123.78289427771237      112.70427313982104      124.06186014306111
H          124.88898063449412      111.53410026952965      125.49429520033127
H          125.80072418727570      112.89811734379838      124.82466738888937
C          123.10984170377137      113.71636011099146      124.98785067773420
H          123.99260505951609      113.20053752257006      123.11481457146135
H          123.08658779000228      111.88917455451647      123.87028909820231
C          122.51584368858931      113.07905159464462      126.24017499920464
H          123.83117161804748      114.47570297916386      125.29304171805602
H          122.31204153921053      114.21801107344429      124.43682541778867
N          122.00854558936240      114.09865787168262      127.13526362564255
H          121.69006670359857      112.41159789569950      125.98424456696243
H          123.28004131830805      112.49566530298803      126.76191884522741
C          120.89724245507333      113.98266385034347      127.85738104023601
H          122.58328626916480      114.92629021618797      127.24834345363658
O          129.30708338644246      109.09856571254460      124.16576607042359
C          120.55332143048481      115.19617888002293      128.70263933980044
C          119.32730829743035      115.90160461108850      128.11687970311533
H          120.31520991746413      114.85979393184721      129.71444315669316
H          121.40492952575707      115.87311370951603      128.74440895171514
C          118.86214013549014      117.07663910209288      128.97434862607622
H          119.55008095898958      116.24991491421086      127.10722915831943
H          118.51152643896756      115.17899123908296      128.03772407969527
C          117.48181810607404      117.56143268705887      128.51968140053822
H          118.79743678841324      116.76654292716724      130.01989049950774
H          119.58078332851599      117.89559364398445      128.90773686169305
C          117.05140002459278      118.77746059208887      129.31124978140738
H          117.50722050459865      117.81772164601944      127.45953213268628
H          116.76064536939637      116.75877622668273      128.66404402860192
N          116.38108958055955      118.51634949737731      130.43406122831186
O          120.18303019083469      112.97744705356709      127.84414303464195
C          115.90601867075851      119.55493866100782      131.32430974282798
H          116.14860927101830      117.55921786621015      130.68497884654809
C          114.62643355154673      119.13065820201039      132.03608257913288
H          116.67904655845125      119.77530638647129      132.07163728886874
H          115.74489881322280      120.45707018825034      130.72839769461044
C          113.44650484130973      118.88980739159081      131.09512808829695
H          114.82975484215032      118.20425376467983      132.57726317244101
H          114.36297487289603      119.89937236817572      132.76418281028285
C          112.90764850698147      120.15160322244252      130.42485081203785
H          113.74159846001767      118.17734665250518      130.32513209348298
H          112.63936045886084      118.42979806647148      131.66957781294468
C          111.60513747868374      119.85304753285686      129.68665591342159
H          112.72780474621779      120.91922853165201      131.18154337305018
H          113.64177573470907      120.53600282557106      129.71620417811550
C          110.97002217278771      121.08144053149690      129.05307012674581
H          111.78493561071438      119.11290663767369      128.90573982644705
H          110.88704108525694      119.41283898844381      130.38028837534563
N          111.73371926054081      121.53563035770810      127.90767347399826
H          109.94720668730353      120.84667805396242      128.74308432101168
H          110.91250364543615      121.90841859772033      129.77064788754626
C          111.35189466663269      122.59042972066277      127.18260719580600
H          112.36993563169064      120.85673785320787      127.50346164075395
O          117.32742077602333      119.92394295331974      128.95529712225542
C          112.31207995539016      122.97552802822999      126.07262909310555
C          112.38991649769508      122.01172561255650      124.88340970842947
H          112.03029442011686      123.96849647325486      125.71834859785527
H          113.29705271723066      123.04115215530678      126.53678805139765
C          111.29409707480337      122.24915299127355      123.85124261646396
H          113.35134270643320      122.17295039610653      124.39002178160028
H          112.36449782239289      120.97860049143445      125.22768807420255
C          111.56486055510544      121.50879769432839      122.53640824642616
H          110.32080207131834      121.95858681407188      124.25143801701597
H          111.25431689887566      123.31481234233445      123.62787521075042
C          111.04753336514173      120.08653913195863      122.53534005745850
H          111.06630231752462      122.04548129702374      121.73023265388493
H          112.63511745484303      121.49652797426266      122.32768424504425
N          109.72833726401174      120.00212921338318      122.34091076684631
C          108.99672164334102      118.75842447384574      122.36341560820340
H          109.19527645346130      120.85769365889122      122.19685771091139
O          110.36111184302582      123.26806904650800      127.46030293336386
C          107.87645312942303      118.79612142429430      123.39651456296278
H          108.56703028285352      118.56251811932550      121.37559363976952
H          109.71344492551412      117.97111317522996      122.60025138628784
C          107.03946717322241      117.51860612930089      123.39932806721140
H          108.31397256479964      118.95607528317527      124.38442463157776
H          107.23338616752095      119.65198409107167      123.17636560676151
C          107.83249329544778      116.28960589098432      123.84168645820141
H          106.20411779456424      117.66550628790436      124.08167762839291
H          106.63532924932667      117.34402426496223      122.40000525382229
C          106.93951976123313      115.10018682223317      124.19427428932228
H          108.50015173469914      115.98835119683005      123.03510783022730
H          108.45022468118211      116.54086399246384      124.70755221746579
C          106.17800437984900      115.26205900032205      125.51325855730681
H          106.22868703238781      114.92688834187403      123.38455526884930
H          107.56672900404156      114.21135208400470      124.28266312987505
N          104.96534466381014      116.04042923680818      125.36677003689182
H          105.90864769219536      114.26743696013267      125.89118146028981
H          106.80527739060783      115.75540107719979      126.25940564577066
C          104.56460509630756      116.99506601042363      126.21460262821095
H          104.26581671249876      115.64355817440968      124.74935305034562
O          111.77169763785334      119.09971380325297      122.65701113298589
C          103.22491677004207      117.61517980657587      125.87400140402252
C          103.37071680101145      118.61815762484234      124.72406356237941
H          102.52846824789560      116.82458164586444      125.59235695190787
H          102.84992639787718      118.12646576576894      126.76168543592003
C          104.31566536530774      119.76527810743650      125.07522037925283
H          103.75144340462151      118.09835995368304      123.84261368208654
H          102.38850245799028      119.02140891192948      124.47498583361229
C          104.53618173175002      120.71476482900560      123.89233360284261
H          103.91808869975259      120.32839562464348      125.92188624638369
H          105.27998577849668      119.35688785435779      125.38129164626136
C          103.29616402331278      121.54567226103724      123.62602803598712
H          105.36331501562771      121.38902235062045      124.11599898914167
H          104.77373717610935      120.13445857218700      122.99937502394621
N          103.18131511880503      122.61373471417672      124.41360662246731
O          105.23337271726304      117.38083615461541      127.17204939592897
C          102.10362803827543      123.57479869950895      124.32220522265354
H          103.94251658474217      122.84122320152096      125.04516323022135
C          102.60111889892067      124.97289931061007      124.67243442410987
H          101.70971933078384      123.54331600530338      123.30190594413962
H          101.29640434916404      123.28593364964215      125.00726426989162
C          103.62949164432688      125.49467073240019      123.67147662462951
H          101.74791271640893      125.65123853212620      124.71620812304269
H          103.05809724059587      124.93758387500216      125.66394538679366
C          104.26882606029581      126.79642801110566      124.14924940644502
H          104.41278819972658      124.74462639985154      123.54907256939678
H          103.15695327113110      125.65281429546457      122.69933192388984
C          105.31163065021082      127.30320557895271      123.15881924235553
H          103.49574163946046      127.55561737640278      124.28910321068327
H          104.74315568609114      126.62277299575855      125.11841116460927
C          106.07061648673420      128.52209292240633      123.67524978569894
H          106.03399673160769      126.51162460964463      122.95908521258116
H          104.81952960411249      127.55517310205676      122.21672947436313
N          107.13930732178031      128.87328909203754      122.74849600314111
H          105.35776157844406      129.34754482951018      123.84721398117415
H          106.53753873065037      128.28028132269094      124.63490760398727
H          106.74289938241870      129.09447006728993      121.84071284364325
H          107.62691859494235      129.69877946522530      123.07847526492290
O          102.46341240711131      121.24112502682426      122.77292154746704
C          119.83609710775943       99.75257387607783      109.00495047115088
C          118.76048142608875      100.59941173537372      108.36267577831042
C          119.77651066764039       99.73200366255064      110.53003380244940
C          118.67830790211933       98.81417654881038      111.06131350436257
H          120.73936307088306       99.39478858811550      110.91783952570593
H          119.60054533961066      100.74548998556571      110.89254471033406
C          118.62904242388035       98.81257280376506      112.59197169609052
H          117.71457230164326       99.13833125224212      110.67080457307355
H          118.85844955615465       97.79389344386868      110.71648965831325
C          118.27598498898747      100.17877623384720      113.14536889449235
H          117.87340681640292       98.09998080527365      112.92574843323870
H          119.59893660770179       98.51885883619576      112.99598818582167
N          117.03737993284929      100.58609550402244      112.87554899953666
O          118.96542421380768      100.72825372075003      107.06442341809131
O          117.82752674205578      101.10725820286548      108.94278367475894
H          118.28562703028859      101.31492475368728      106.60694040497211
H          120.79306995977635      100.14183348569833      108.65138095780517
H          119.73897059154552       98.74225594436699      108.60111871567996
C          116.50594376411973      101.83923393863282      113.36769091991397
H          116.38296346632740       99.94164032085149      112.43812199415164
C          115.23099444866858      102.22906638071517      112.63204592562946
H          116.30013291440801      101.74689439526458      114.44090726558535
H          117.27629753075399      102.60512489738946      113.23503068224758
C          114.54208374423196      103.43686339087726      113.27255781565435
H          115.47662584996417      102.44778396569025      111.59095211822726
H          114.55165994011722      101.37642653858207      112.64462824577896
C          113.82845454866617      103.09865408725550      114.58265844166652
H          115.27906633212380      104.22067513687648      113.46323416436030
H          113.80990088929256      103.84097794168635      112.57112207712230
C          113.07838456482268      104.30423943595383      115.14540880269662
H          113.12237681058046      102.28493182891081      114.41212972916125
H          114.54666083204933      102.75302338149660      115.32804132407085
C          112.42895314269393      103.99327009328876      116.49013574584829
H          113.76684649915529      105.14142297123286      115.27498016125567
H          112.30489074183504      104.62751682792569      114.44626023090083
N          111.58519493872141      105.08684242009386      116.91548680191966
H          111.79892850692572      103.10210691541558      116.41899306910804
H          113.20313746815378      103.80163928527558      117.24503720433242