      -----------------------------------------------------------      
     |                   =====================                   |     
     |                           x T B                           |     
     |                   =====================                   |     
     |                         S. Grimme                         |     
     |          Mulliken Center for Theoretical Chemistry        |     
     |                    University of Bonn                     |     
      -----------------------------------------------------------      

   * xtb version 6.6.1 (8d0f1dd) compiled by 'stahn@M-Bot' on 2023-08-01

   xtb is free software: you can redistribute it and/or modify it under
   the terms of the GNU Lesser General Public License as published by
   the Free Software Foundation, either version 3 of the License, or
   (at your option) any later version.
   
   xtb is distributed in the hope that it will be useful,
   but WITHOUT ANY WARRANTY; without even the implied warranty of
   MERCHANTABILITY or FITNESS FOR A PARTICULAR PURPOSE.  See the
   GNU Lesser General Public License for more details.
   
   Cite this work as:
   * C. Bannwarth, E. Caldeweyher, S. Ehlert, A. Hansen, P. Pracht,
     J. Seibert, S. Spicher, S. Grimme, WIREs Comput. Mol. Sci., 2020, 11,
     e01493. DOI: 10.1002/wcms.1493
   
   for GFN2-xTB:
   * C. Bannwarth, S. Ehlert and S. Grimme., J. Chem. Theory Comput., 2019,
     15, 1652-1671. DOI: 10.1021/acs.jctc.8b01176
   for GFN1-xTB:
   * S. Grimme, C. Bannwarth, P. Shushkov, J. Chem. Theory Comput., 2017,
     13, 1989-2009. DOI: 10.1021/acs.jctc.7b00118
   for GFN0-xTB:
   * P. Pracht, E. Caldeweyher, S. Ehlert, S. Grimme, ChemRxiv, 2019, preprint.
     DOI: 10.26434/chemrxiv.8326202.v1
   for GFN-FF:
   * S. Spicher and S. Grimme, Angew. Chem. Int. Ed., 2020, 59, 15665-15673.
     DOI: 10.1002/anie.202004239
   
   for ALPB and GBSA implicit solvation:
   * S. Ehlert, M. Stahn, S. Spicher, S. Grimme, J. Chem. Theory Comput.,
     2021, 17, 4250-4261. DOI: 10.1021/acs.jctc.1c00471
   
   for DFT-D4:
   * E. Caldeweyher, C. Bannwarth and S. Grimme, J. Chem. Phys., 2017,
     147, 034112. DOI: 10.1063/1.4993215
   * E. Caldeweyher, S. Ehlert, A. Hansen, H. Neugebauer, S. Spicher,
     C. Bannwarth and S. Grimme, J. Chem. Phys., 2019, 150, 154122.
     DOI: 10.1063/1.5090222
   * E. Caldeweyher, J.-M. Mewes, S. Ehlert and S. Grimme, Phys. Chem. Chem. Phys.
     2020, 22, 8499-8512. DOI: 10.1039/D0CP00502A
   
   for sTDA-xTB:
   * S. Grimme and C. Bannwarth, J. Chem. Phys., 2016, 145, 054103.
     DOI: 10.1063/1.4959605
   
   in the mass-spec context:
   * V. Asgeirsson, C. Bauer and S. Grimme, Chem. Sci., 2017, 8, 4879.
     DOI: 10.1039/c7sc00601b
   * J. Koopman and S. Grimme, ACS Omega 2019, 4, 12, 15120-15133.
     DOI: 10.1021/acsomega.9b02011
   
   for metadynamics refer to:
   * S. Grimme, J. Chem. Theory Comput., 2019, 155, 2847-2862
     DOI: 10.1021/acs.jctc.9b00143
   
   for SPH calculations refer to:
   * S. Spicher and S. Grimme, J. Chem. Theory Comput., 2021, 17, 1701-1714
     DOI: 10.1021/acs.jctc.0c01306
   
   with help from (in alphabetical order)
   P. Atkinson, C. Bannwarth, F. Bohle, G. Brandenburg, E. Caldeweyher
   M. Checinski, S. Dohm, S. Ehlert, S. Ehrlich, I. Gerasimov, C. Hölzer
   A. Katbashev, J. Koopman, C. Lavigne, S. Lehtola, F. März, M. Müller,
   F. Musil, H. Neugebauer, J. Pisarek, C. Plett, P. Pracht, F. Pultar,
   J. Seibert, P. Shushkov, S. Spicher, M. Stahn, M. Steiner, T. Strunk,
   J. Stückrath, T. Rose, and J. Unsleber
   
 * started run on 2024/07/07 at 06:47:59.462     

           -------------------------------------------------
          |                Calculation Setup                |
           -------------------------------------------------

          program call               : /home/abt-grimme/AK-bin/xtb input.xyz --input input.inp --opt --gbsa water
          hostname                   : boar085.thch.uni-bonn.de
          coordinate file            : input.xyz
          omp threads                :                     8

   ID    Z sym.   atoms
    1    6 C      1-146, 294-300, 306, 309-314, 323-468, 616-622, 628,
                  631-636, 645-790, 938-944, 950, 953-958, 967-1112,
                  1260-1266, 1272, 1275-1280, 1289-1434, 1582-1588, 1594,
                  1597-1602, 1611-1756, 1904-1910, 1916, 1919-1924,
                  1933-2078, 2226-2232, 2238, 2241-2246, 2255-2400,
                  2548-2554, 2560, 2563-2568, 2577-2722, 2870-2876, 2882,
                  2885-2890, 2899-3044, 3192-3198, 3204, 3207-3212,
                  3221-3366, 3514-3520, 3526, 3529-3534, 3543-3688,
                  3836-3842, 3848, 3851-3856
    2    1 H      147-293, 301-305, 307, 308, 315-322, 469-615, 623-627, 629,
                  630, 637-644, 791-937, 945-949, 951, 952, 959-966,
                  1113-1259, 1267-1271, 1273, 1274, 1281-1288, 1435-1581,
                  1589-1593, 1595, 1596, 1603-1610, 1757-1903, 1911-1915,
                  1917, 1918, 1925-1932, 2079-2225, 2233-2237, 2239, 2240,
                  2247-2254, 2401-2547, 2555-2559, 2561, 2562, 2569-2576,
                  2723-2869, 2877-2881, 2883, 2884, 2891-2898, 3045-3191,
                  3199-3203, 3205, 3206, 3213-3220, 3367-3513, 3521-3525,
                  3527, 3528, 3535-3542, 3689-3835, 3843-3847, 3849, 3850,
                  3857-3864

molecular fragmentation (1/2 indicates fragments):
111111111111111111111111111111111111111111111111111111111111111111111111
111111111111111111111111111111111111111111111111111111111111111111111111
111111111111111111111111111111111111111111111111111111111111111111111111
111111111111111111111111111111111111111111111111111111111111111111111111
111111111111111111111111111111111122222222222222222222222222222222222222
222222222222222222222222222222222222222222222222222222222222222222222222
222222222222222222222222222222222222222222222222222222222222222222222222
222222222222222222222222222222222222222222222222222222222222222222222222
222222222222222222222222222222222222222222222222222222222222222222222222
222222222222222222222222222222222222222222222222222222222222222222222222
222222222222222222222222222222222222222222222222222222222222222222222222
222222222222222222222222222222222222222222222222222222222222222222222222
222222222222222222222222222222222222222222222222222222222222222222222222
222222222222222222222222222222222222222222222222222222222222222222222222
222222222222222222222222222222222222222222222222222222222222222222222222
222222222222222222222222222222222222222222222222222222222222222222222222
222222222222222222222222222222222222222222222222222222222222222222222222
222222222222222222222222222222222222222222222222222222222222222222222222
222222222222222222222222222222222222222222222222222222222222222222222222
222222222222222222222222222222222222222222222222222222222222222222222222
222222222222222222222222222222222222222222222222222222222222222222222222
222222222222222222222222222222222222222222222222222222222222222222222222
222222222222222222222222222222222222222222222222222222222222222222222222
222222222222222222222222222222222222222222222222222222222222222222222222
222222222222222222222222222222222222222222222222222222222222222222222222
222222222222222222222222222222222222222222222222222222222222222222222222
222222222222222222222222222222222222222222222222222222222222222222222222
222222222222222222222222222222222222222222222222222222222222222222222222
222222222222222222222222222222222222222222222222222222222222222222222222
222222222222222222222222222222222222222222222222222222222222222222222222
222222222222222222222222222222222222222222222222222222222222222222222222
222222222222222222222222222222222222222222222222222222222222222222222222
222222222222222222222222222222222222222222222222222222222222222222222222
222222222222222222222222222222222222222222222222222222222222222222222222
222222222222222222222222222222222222222222222222222222222222222222222222
222222222222222222222222222222222222222222222222222222222222222222222222
222222222222222222222222222222222222222222222222222222222222222222222222
222222222222222222222222222222222222222222222222222222222222222222222222
222222222222222222222222222222222222222222222222222222222222222222222222
222222222222222222222222222222222222222222222222222222222222222222222222
222222222222222222222222222222222222222222222222222222222222222222222222
222222222222222222222222222222222222222222222222222222222222222222222222
222222222222222222222222222222222222222222222222222222222222222222222222
222222222222222222222222222222222222222222222222222222222222222222222222
222222222222222222222222222222222222222222222222222222222222222222222222
222222222222222222222222222222222222222222222222222222222222222222222222
222222222222222222222222222222222222222222222222222222222222222222222222
222222222222222222222222222222222222222222222222222222222222222222222222
222222222222222222222222222222222222222222222222222222222222222222222222
222222222222222222222222222222222222222222222222222222222222222222222222
222222222222222222222222222222222222222222222222222222222222222222222222
222222222222222222222222222222222222222222222222222222222222222222222222
222222222222222222222222222222222222222222222222222222222222222222222222
222222222222222222222222222222222222222222222222
# atoms in fragment 1/2:   322  3542
 fragment masses (1/2) :     2085.00    22935.05
CMA distance (Bohr)    :  26.414
constraining FC (au)   :  0.0500

           -------------------------------------------------
          |                 G F N 2 - x T B                 |
           -------------------------------------------------

        Reference                      10.1021/acs.jctc.8b01176
      * Hamiltonian:
        H0-scaling (s, p, d)           1.850000    2.230000    2.230000
        zeta-weighting                 0.500000
      * Dispersion:
        s8                             2.700000
        a1                             0.520000
        a2                             5.000000
        s9                             5.000000
      * Repulsion:
        kExp                           1.500000    1.000000
        rExp                           1.000000
      * Coulomb:
        alpha                          2.000000
        third order                    shell-resolved
        anisotropic                    true
        a3                             3.000000
        a5                             4.000000
        cn-shift                       1.200000
        cn-exp                         4.000000
        max-rad                        5.000000

      * Solvation model:               GBSA
        Solvent                        water
        Parameter file                 internal GFN2-xTB/GBSA
        Dielectric constant                8.0200E+01
        Reference state                gsolv [1 M gas/solution]
        Free energy shift                  1.8574E-03 Eh       1.1656E+00 kcal/mol
        Temperature                        2.9815E+02 K
        Density                            1.0000E+00 kg/L
        Solvent mass                       1.8000E+01 g/mol
        Interaction kernel             Still
        Born radius scaling (c1)           1.5524E+00
        Born radii integrator          GBOBC
        Born offset                        2.4628E-02 a0       4.6540E-02 AA
        H-bond correction              true
        Ion screening                  false
        Surface tension                    1.0000E-05 Eh       1.5569E+01 dyn/cm
        Grid points                               230 per atom
q/qsh data taken from xtbrestart
CAMM data taken from xtbrestart

          ...................................................
          :                      SETUP                      :
          :.................................................:
          :  # basis functions                9624          :
          :  # atomic orbitals                9624          :
          :  # shells                         5784          :
          :  # electrons                      9624          :
          :  max. iterations                   250          :
          :  Hamiltonian                  GFN2-xTB          :
          :  restarted?                       true          :
          :  GBSA solvation                   true          :
          :  PC potential                    false          :
          :  electronic temp.          300.0000000     K    :
          :  accuracy                    1.0000000          :
          :  -> integral cutoff          0.2500000E+02      :
          :  -> integral neglect         0.1000000E-07      :
          :  -> SCF convergence          0.1000000E-05 Eh   :
          :  -> wf. convergence          0.1000000E-03 e    :
          :  Broyden damping             0.4000000          :
          ...................................................

 iter      E             dE          RMSdq      gap      omega  full diag
   1  -5190.3469417 -0.519035E+04  0.111E-04    3.76       0.0  T
   2  -5190.3469417 -0.147547E-07  0.916E-05    3.76      17.6  T
   3  -5190.3469417 -0.139325E-07  0.742E-05    3.76      21.7  T

   *** convergence criteria satisfied after 3 iterations ***

         #    Occupation            Energy/Eh            Energy/eV
      -------------------------------------------------------------
         1        2.0000           -0.6346103             -17.2686
       ...           ...                  ...                  ...
      4806        2.0000           -0.3645243              -9.9192
      4807        2.0000           -0.3639912              -9.9047
      4808        2.0000           -0.3637377              -9.8978
      4809        2.0000           -0.3625340              -9.8651
      4810        2.0000           -0.3623213              -9.8593
      4811        2.0000           -0.3605461              -9.8110
      4812        2.0000           -0.3600899              -9.7985 (HOMO)
      4813                         -0.2220548              -6.0424 (LUMO)
      4814                         -0.2203433              -5.9958
      4815                         -0.2202627              -5.9937
      4816                         -0.2198172              -5.9815
      4817                         -0.2195494              -5.9742
       ...                                ...                  ...
      9624                          0.6720475              18.2873
      -------------------------------------------------------------
                  HL-Gap            0.1380351 Eh            3.7561 eV
             Fermi-level           -0.2910723 Eh           -7.9205 eV

 SCC (total)                   0 d,  0 h, 16 min, 20.360 sec
 SCC setup                      ...        0 min,  2.405 sec (  0.245%)
 Dispersion                     ...        0 min,  6.878 sec (  0.702%)
 classical contributions        ...        0 min,  0.148 sec (  0.015%)
 integral evaluation            ...        0 min, 11.842 sec (  1.208%)
 iterations                     ...       10 min, 36.728 sec ( 64.948%)
 molecular gradient             ...        4 min, 55.835 sec ( 30.176%)
 printout                       ...        0 min, 26.523 sec (  2.705%)

         :::::::::::::::::::::::::::::::::::::::::::::::::::::
         ::                     SUMMARY                     ::
         :::::::::::::::::::::::::::::::::::::::::::::::::::::
         :: total energy           -5103.305879883165 Eh    ::
         :: total w/o Gsasa/hb     -5103.108772152892 Eh    ::
         :: gradient norm              0.742570810753 Eh/a0 ::
         :: HOMO-LUMO gap              3.756126083875 eV    ::
         ::.................................................::
         :: SCC energy             -5190.346941703064 Eh    ::
         :: -> isotropic ES            0.281759917510 Eh    ::
         :: -> anisotropic ES          0.850618147121 Eh    ::
         :: -> anisotropic XC          3.454247171269 Eh    ::
         :: -> dispersion             -6.868186993322 Eh    ::
         :: -> Gsolv                  -0.205936076475 Eh    ::
         ::    -> Gelec               -0.008828346202 Eh    ::
         ::    -> Gsasa               -0.191537507144 Eh    ::
         ::    -> Ghb                 -0.007427666256 Eh    ::
         ::    -> Gshift               0.001857443127 Eh    ::
         :: repulsion energy          85.952627345621 Eh    ::
         :: add. restraining           0.000000000000 Eh    ::
         :: total charge              -0.000000000031 e     ::
         :::::::::::::::::::::::::::::::::::::::::::::::::::::

      ----------------------------------------------------------- 
     |              Fast Inertial Relaxation Engine              |
      ----------------------------------------------------------- 

          ...................................................
          :                      SETUP                      :
          :.................................................:
          :   energy convergence        0.5000000E-05 Eh    :
          :   grad. convergence         0.1000000E-02 Eh/a0 :
          :   optimization log               true           :
          :   writing optlog all                1     steps :
          :   Hessian reset                    20     steps :
          :   time step scaling                 5     steps :
          :   maximium step len.        1.0000000     a0    :
          :   initial time step         0.2500000     fs    :
          :   maximum time step         1.2500000     fs    :
          :   power reset thr           0.0000000     au    :
          :   alpha parameter           0.1000000           :
          :   BFGS update                   false           :
          :   preconditioning               false           :
          ...................................................

........................................................................
.............................. CYCLE    1 ..............................
........................................................................

 iter      E             dE          RMSdq      gap      omega  full diag
   1  -5190.5602585 -0.519056E+04  0.910E-03    3.77       0.0  T
   2  -5190.5602948 -0.363324E-04  0.556E-03    3.77       1.0  T
   3  -5190.5602852  0.960659E-05  0.296E-03    3.77       1.0  T
   4  -5190.5603032 -0.179923E-04  0.790E-04    3.77       2.0  T
   5  -5190.5603049 -0.174563E-05  0.275E-04    3.77       5.8  T
   6  -5190.5603050 -0.112632E-06  0.180E-04    3.77       8.9  T
   7  -5190.5603051 -0.446598E-07  0.124E-04    3.77      13.0  T
     SCC iter.                  ...       24 min, 40.193 sec
     gradient                   ...        4 min, 54.809 sec
 * total energy  : -5103.3677175 Eh     change    :  -0.6183760E-01 Eh
   gradient norm :     0.6823379 Eh/a0  converged?    E=F G=F D=F
   time step     :     0.2500000 fs     power     :   0.3142894E-05
   step length   :     0.0870277 a0     speed     :   0.8420399E-02

........................................................................
.............................. CYCLE    2 ..............................
........................................................................

 iter      E             dE          RMSdq      gap      omega  full diag
   1  -5190.8742489 -0.519087E+04  0.132E-02    3.79       0.0  T
   2  -5190.8743262 -0.772382E-04  0.809E-03    3.79       1.0  T
   3  -5190.8743061  0.200489E-04  0.427E-03    3.79       1.0  T
   4  -5190.8743436 -0.374498E-04  0.115E-03    3.79       1.4  T
   5  -5190.8743473 -0.372405E-05  0.409E-04    3.79       3.9  T
   6  -5190.8743475 -0.239809E-06  0.273E-04    3.79       5.9  T
   7  -5190.8743476 -0.104532E-06  0.189E-04    3.79       8.5  T
     SCC iter.                  ...       24 min, 45.674 sec
     gradient                   ...        4 min, 55.906 sec
 * total energy  : -5103.4487550 Eh     change    :  -0.8103747E-01 Eh
   gradient norm :     0.5988642 Eh/a0  converged?    E=F G=F D=F
   time step     :     0.2500000 fs     power     :   0.4009110E-05
   step length   :     0.1269262 a0     speed     :   0.1228079E-01

........................................................................
.............................. CYCLE    3 ..............................
........................................................................

 iter      E             dE          RMSdq      gap      omega  full diag
   1  -5191.2814789 -0.519128E+04  0.168E-02    3.82       0.0  T
   2  -5191.2816027 -0.123841E-03  0.103E-02    3.82       1.0  T
   3  -5191.2815706  0.320755E-04  0.536E-03    3.82       1.0  T
   4  -5191.2816295 -0.588423E-04  0.146E-03    3.82       1.1  T
   5  -5191.2816355 -0.602324E-05  0.518E-04    3.82       3.1  T
   6  -5191.2816359 -0.371963E-06  0.350E-04    3.82       4.6  T
   7  -5191.2816361 -0.174991E-06  0.243E-04    3.81       6.6  T
     SCC iter.                  ...       24 min, 42.672 sec
     gradient                   ...        4 min, 54.159 sec
 * total energy  : -5103.5367112 Eh     change    :  -0.8795621E-01 Eh
   gradient norm :     0.5003625 Eh/a0  converged?    E=F G=F D=F
   time step     :     0.2500000 fs     power     :   0.4206915E-05
   step length   :     0.1618065 a0     speed     :   0.1565564E-01

........................................................................
.............................. CYCLE    4 ..............................
........................................................................

 iter      E             dE          RMSdq      gap      omega  full diag
   1  -5191.7738537 -0.519177E+04  0.196E-02    3.84       0.0  T
   2  -5191.7740198 -0.166132E-03  0.120E-02    3.84       1.0  T
   3  -5191.7739761  0.437175E-04  0.614E-03    3.84       1.0  T
   4  -5191.7740537 -0.776218E-04  0.169E-03    3.84       1.0  T
   5  -5191.7740619 -0.820408E-05  0.601E-04    3.84       2.7  T
   6  -5191.7740624 -0.473807E-06  0.412E-04    3.84       3.9  T
   7  -5191.7740626 -0.245038E-06  0.284E-04    3.84       5.7  T
     SCC iter.                  ...       24 min, 37.413 sec
     gradient                   ...        4 min, 52.485 sec
 * total energy  : -5103.6194199 Eh     change    :  -0.8270878E-01 Eh
   gradient norm :     0.4013174 Eh/a0  converged?    E=F G=F D=F
   time step     :     0.2500000 fs     power     :   0.3780558E-05
   step length   :     0.1903966 a0     speed     :   0.1842189E-01

........................................................................
.............................. CYCLE    5 ..............................
........................................................................

 iter      E             dE          RMSdq      gap      omega  full diag
   1  -5192.3428728 -0.519234E+04  0.215E-02    3.86       0.0  T
   2  -5192.3430652 -0.192393E-03  0.131E-02    3.85       1.0  T
   3  -5192.3430123  0.528752E-04  0.653E-03    3.85       1.0  T
   4  -5192.3431015 -0.891578E-04  0.182E-03    3.85       1.0  T
   5  -5192.3431112 -0.975042E-05  0.651E-04    3.85       2.5  T
   6  -5192.3431117 -0.511422E-06  0.451E-04    3.85       3.6  T
   7  -5192.3431120 -0.300209E-06  0.309E-04    3.85       5.2  T
     SCC iter.                  ...       24 min, 41.110 sec
     gradient                   ...        4 min, 54.728 sec
 * total energy  : -5103.6876259 Eh     change    :  -0.6820593E-01 Eh
   gradient norm :     0.3245975 Eh/a0  converged?    E=F G=F D=F
   time step     :     0.2500000 fs     power     :   0.2924785E-05
   step length   :     0.2115883 a0     speed     :   0.2047230E-01

........................................................................
.............................. CYCLE    6 ..............................
........................................................................

 iter      E             dE          RMSdq      gap      omega  full diag
   1  -5193.0457547 -0.519305E+04  0.245E-02    3.87       0.0  T
   2  -5193.0459871 -0.232372E-03  0.149E-02    3.87       1.0  T
   3  -5193.0459179  0.692459E-04  0.706E-03    3.87       1.0  T
   4  -5193.0460259 -0.108018E-03  0.202E-03    3.87       1.0  T
   5  -5193.0460382 -0.122984E-04  0.723E-04    3.87       2.2  T
   6  -5193.0460387 -0.555136E-06  0.505E-04    3.87       3.2  T
   7  -5193.0460391 -0.384971E-06  0.340E-04    3.87       4.7  T
     SCC iter.                  ...       24 min, 36.731 sec
     gradient                   ...        4 min, 54.974 sec
 * total energy  : -5103.7416870 Eh     change    :  -0.5406117E-01 Eh
   gradient norm :     0.2955928 Eh/a0  converged?    E=F G=F D=F
   time step     :     0.2750000 fs     power     :   0.1850978E-05
   step length   :     0.2481546 a0     speed     :   0.2182754E-01

........................................................................
.............................. CYCLE    7 ..............................
........................................................................

 iter      E             dE          RMSdq      gap      omega  full diag
   1  -5193.8738004 -0.519387E+04  0.261E-02    3.89       0.0  T
   2  -5193.8740254 -0.224982E-03  0.157E-02    3.89       1.0  T
   3  -5193.8739513  0.741592E-04  0.677E-03    3.89       1.0  T
   4  -5193.8740562 -0.104944E-03  0.202E-03    3.88       1.0  T
   5  -5193.8740690 -0.127528E-04  0.742E-04    3.88       2.2  T
   6  -5193.8740695 -0.494897E-06  0.512E-04    3.88       3.1  T
   7  -5193.8740699 -0.421848E-06  0.337E-04    3.88       4.8  T
     SCC iter.                  ...       24 min, 38.047 sec
     gradient                   ...        5 min,  1.397 sec
 * total energy  : -5103.7799274 Eh     change    :  -0.3824036E-01 Eh
   gradient norm :     0.3243393 Eh/a0  converged?    E=F G=F D=F
   time step     :     0.3025000 fs     power     :   0.9980200E-06
   step length   :     0.2769634 a0     speed     :   0.2214686E-01

........................................................................
.............................. CYCLE    8 ..............................
........................................................................

 iter      E             dE          RMSdq      gap      omega  full diag
   1  -5194.7912258 -0.519479E+04  0.260E-02    3.90       0.0  T
   2  -5194.7913931 -0.167375E-03  0.154E-02    3.90       1.0  T
   3  -5194.7913392  0.539164E-04  0.544E-03    3.90       1.0  T
   4  -5194.7914097 -0.704371E-04  0.177E-03    3.90       1.0  T
   5  -5194.7914198 -0.100990E-04  0.699E-04    3.90       2.3  T
   6  -5194.7914201 -0.390812E-06  0.447E-04    3.90       3.6  T
   7  -5194.7914205 -0.368263E-06  0.286E-04    3.90       5.6  T
     SCC iter.                  ...       24 min, 37.734 sec
     gradient                   ...        4 min, 55.827 sec
 * total energy  : -5103.8105841 Eh     change    :  -0.3065670E-01 Eh
   gradient norm :     0.3672463 Eh/a0  converged?    E=F G=F D=F
   time step     :     0.3327500 fs     power     :   0.7144618E-06
   step length   :     0.2973119 a0     speed     :   0.2161272E-01

........................................................................
.............................. CYCLE    9 ..............................
........................................................................

 iter      E             dE          RMSdq      gap      omega  full diag
   1  -5195.7541241 -0.519575E+04  0.254E-02    3.92       0.0  T
   2  -5195.7542242 -0.100068E-03  0.149E-02    3.92       1.0  T
   3  -5195.7542077  0.164690E-04  0.355E-03    3.92       1.0  T
   4  -5195.7542331 -0.254019E-04  0.123E-03    3.91       1.3  T
   5  -5195.7542372 -0.406020E-05  0.607E-04    3.91       2.6  T
   6  -5195.7542374 -0.290212E-06  0.331E-04    3.91       4.9  T
   7  -5195.7542377 -0.255427E-06  0.213E-04    3.91       7.5  T
     SCC iter.                  ...       24 min, 34.522 sec
     gradient                   ...        4 min, 56.785 sec
 * total energy  : -5103.8468220 Eh     change    :  -0.3623790E-01 Eh
   gradient norm :     0.3786867 Eh/a0  converged?    E=F G=F D=F
   time step     :     0.3660250 fs     power     :   0.9394206E-06
   step length   :     0.3175166 a0     speed     :   0.2098315E-01

........................................................................
.............................. CYCLE   10 ..............................
........................................................................

 iter      E             dE          RMSdq      gap      omega  full diag
   1  -5196.7167901 -0.519672E+04  0.260E-02    3.93       0.0  T
   2  -5196.7168671 -0.769267E-04  0.152E-02    3.93       1.0  T
   3  -5196.7168330  0.340102E-04  0.419E-03    3.93       1.0  T
   4  -5196.7168808 -0.477379E-04  0.106E-03    3.92       1.5  T
   5  -5196.7168832 -0.242960E-05  0.512E-04    3.92       3.1  T
   6  -5196.7168834 -0.209912E-06  0.302E-04    3.92       5.3  T
   7  -5196.7168836 -0.147767E-06  0.171E-04    3.92       9.4  T
     SCC iter.                  ...       24 min, 39.750 sec
     gradient                   ...        4 min, 55.058 sec
 * total energy  : -5103.8954523 Eh     change    :  -0.4863028E-01 Eh
   gradient norm :     0.3340121 Eh/a0  converged?    E=F G=F D=F
   time step     :     0.4026275 fs     power     :   0.1214602E-05
   step length   :     0.3469527 a0     speed     :   0.2084404E-01

........................................................................
.............................. CYCLE   11 ..............................
........................................................................

 iter      E             dE          RMSdq      gap      omega  full diag
   1  -5197.6288260 -0.519763E+04  0.288E-02    3.93       0.0  T
   2  -5197.6289611 -0.135009E-03  0.171E-02    3.93       1.0  T
   3  -5197.6288528  0.108237E-03  0.700E-03    3.93       1.0  T
   4  -5197.6289999 -0.147062E-03  0.137E-03    3.93       1.2  T
   5  -5197.6290040 -0.410410E-05  0.582E-04    3.93       2.8  T
   6  -5197.6290047 -0.722526E-06  0.283E-04    3.93       5.7  T
   7  -5197.6290048 -0.495684E-07  0.135E-04    3.93      11.9  T
     SCC iter.                  ...       24 min, 37.054 sec
     gradient                   ...        4 min, 56.645 sec
 * total energy  : -5103.9456901 Eh     change    :  -0.5023781E-01 Eh
   gradient norm :     0.2358292 Eh/a0  converged?    E=F G=F D=F
   time step     :     0.4428903 fs     power     :   0.9281845E-06
   step length   :     0.3876648 a0     speed     :   0.2117266E-01

........................................................................
.............................. CYCLE   12 ..............................
........................................................................

 iter      E             dE          RMSdq      gap      omega  full diag
   1  -5198.4325726 -0.519843E+04  0.324E-02    3.92       0.0  T
   2  -5198.4328220 -0.249411E-03  0.196E-02    3.92       1.0  T
   3  -5198.4326606  0.161323E-03  0.931E-03    3.92       1.0  T
   4  -5198.4328979 -0.237211E-03  0.180E-03    3.92       1.0  T
   5  -5198.4329058 -0.794436E-05  0.681E-04    3.92       2.4  T
   6  -5198.4329068 -0.957921E-06  0.351E-04    3.92       4.6  T
   7  -5198.4329068 -0.875743E-07  0.205E-04    3.92       7.8  T
     SCC iter.                  ...       24 min, 35.959 sec
     gradient                   ...        4 min, 55.296 sec
 * total energy  : -5103.9690304 Eh     change    :  -0.2334028E-01 Eh
   gradient norm :     0.1701575 Eh/a0  converged?    E=F G=F D=F
   time step     :     0.4871793 fs     power     :  -0.1711244E-06
   step length   :     0.4266658 a0     speed     :   0.2118430E-01

........................................................................
.............................. CYCLE   13 ..............................
........................................................................
 * reset velocities

 iter      E             dE          RMSdq      gap      omega  full diag
   1  -5198.4192141 -0.519842E+04  0.919E-04    3.92       0.0  T
   2  -5198.4192145 -0.414547E-06  0.554E-04    3.92       2.9  T
   3  -5198.4192145  0.122564E-07  0.259E-04    3.92       6.2  T
     SCC iter.                  ...       10 min, 34.259 sec
     gradient                   ...        4 min, 55.274 sec
 * total energy  : -5103.9706171 Eh     change    :  -0.1586712E-02 Eh
   gradient norm :     0.1651180 Eh/a0  converged?    E=F G=F D=F
   time step     :     0.2435896 fs     power     :   0.8512953E-07
   step length   :     0.0094663 a0     speed     :   0.9400146E-03

........................................................................
.............................. CYCLE   14 ..............................
........................................................................

 iter      E             dE          RMSdq      gap      omega  full diag
   1  -5198.3921014 -0.519839E+04  0.181E-03    3.92       0.0  T
   2  -5198.3921029 -0.147049E-05  0.108E-03    3.92       1.5  T
   3  -5198.3921028  0.957698E-07  0.458E-04    3.92       3.5  T
   4  -5198.3921030 -0.237919E-06  0.136E-04    3.92      11.8  T
     SCC iter.                  ...       14 min,  7.502 sec
     gradient                   ...        4 min, 56.732 sec
 * total energy  : -5103.9736044 Eh     change    :  -0.2987358E-02 Eh
   gradient norm :     0.1554303 Eh/a0  converged?    E=F G=F D=F
   time step     :     0.2435896 fs     power     :   0.1577056E-06
   step length   :     0.0186512 a0     speed     :   0.1852096E-02

........................................................................
.............................. CYCLE   15 ..............................
........................................................................

 iter      E             dE          RMSdq      gap      omega  full diag
   1  -5198.3521014 -0.519835E+04  0.260E-03    3.92       0.0  T
   2  -5198.3521046 -0.312112E-05  0.157E-03    3.92       1.0  T
   3  -5198.3521043  0.274023E-06  0.710E-04    3.92       2.3  T
   4  -5198.3521049 -0.652127E-06  0.207E-04    3.92       7.8  T
     SCC iter.                  ...       14 min,  9.972 sec
     gradient                   ...        5 min,  4.092 sec
 * total energy  : -5103.9776524 Eh     change    :  -0.4047924E-02 Eh
   gradient norm :     0.1420448 Eh/a0  converged?    E=F G=F D=F
   time step     :     0.2435896 fs     power     :   0.2100518E-06
   step length   :     0.0272894 a0     speed     :   0.2709878E-02

........................................................................
.............................. CYCLE   16 ..............................
........................................................................

 iter      E             dE          RMSdq      gap      omega  full diag
   1  -5198.2999957 -0.519830E+04  0.332E-03    3.92       0.0  T
   2  -5198.3000007 -0.497604E-05  0.200E-03    3.92       1.0  T
   3  -5198.3000002  0.496457E-06  0.898E-04    3.92       1.8  T
   4  -5198.3000013 -0.108797E-05  0.267E-04    3.92       6.0  T
   5  -5198.3000014 -0.185333E-06  0.907E-05    3.92      17.7  T
     SCC iter.                  ...       17 min, 37.287 sec
     gradient                   ...        4 min, 57.817 sec
 * total energy  : -5103.9823294 Eh     change    :  -0.4676987E-02 Eh
   gradient norm :     0.1263611 Eh/a0  converged?    E=F G=F D=F
   time step     :     0.2435896 fs     power     :   0.2381708E-06
   step length   :     0.0351526 a0     speed     :   0.3490713E-02

........................................................................
.............................. CYCLE   17 ..............................
........................................................................

 iter      E             dE          RMSdq      gap      omega  full diag
   1  -5198.2368307 -0.519824E+04  0.392E-03    3.91       0.0  T
   2  -5198.2368375 -0.684386E-05  0.236E-03    3.91       1.0  T
   3  -5198.2368369  0.656770E-06  0.103E-03    3.91       1.6  T
   4  -5198.2368383 -0.142058E-05  0.311E-04    3.92       5.2  T
   5  -5198.2368386 -0.250914E-06  0.107E-04    3.92      15.1  T
   6  -5198.2368386 -0.126702E-07  0.717E-05    3.92      22.4  T
     SCC iter.                  ...       21 min,  5.921 sec
     gradient                   ...        4 min, 54.588 sec
 * total energy  : -5103.9871898 Eh     change    :  -0.4860398E-02 Eh
   gradient norm :     0.1102982 Eh/a0  converged?    E=F G=F D=F
   time step     :     0.2435896 fs     power     :   0.2425245E-06
   step length   :     0.0420579 a0     speed     :   0.4176420E-02

........................................................................
.............................. CYCLE   18 ..............................
........................................................................

 iter      E             dE          RMSdq      gap      omega  full diag
   1  -5198.1640057 -0.519816E+04  0.440E-03    3.91       0.0  T
   2  -5198.1640139 -0.816974E-05  0.264E-03    3.91       1.0  T
   3  -5198.1640129  0.102965E-05  0.113E-03    3.91       1.4  T
   4  -5198.1640148 -0.190571E-05  0.356E-04    3.91       4.5  T
   5  -5198.1640151 -0.345787E-06  0.117E-04    3.91      13.8  T
   6  -5198.1640151 -0.137388E-07  0.768E-05    3.91      21.0  T
     SCC iter.                  ...       21 min,  5.425 sec
     gradient                   ...        4 min, 54.779 sec
 * total energy  : -5103.9918577 Eh     change    :  -0.4667908E-02 Eh
   gradient norm :     0.0961872 Eh/a0  converged?    E=F G=F D=F
   time step     :     0.2435896 fs     power     :   0.2280571E-06
   step length   :     0.0478657 a0     speed     :   0.4753146E-02

........................................................................
.............................. CYCLE   19 ..............................
........................................................................

 iter      E             dE          RMSdq      gap      omega  full diag
   1  -5198.0745289 -0.519807E+04  0.525E-03    3.91       0.0  T
   2  -5198.0745395 -0.106744E-04  0.316E-03    3.91       1.0  T
   3  -5198.0745377  0.179676E-05  0.131E-03    3.91       1.2  T
   4  -5198.0745407 -0.291971E-05  0.422E-04    3.91       3.8  T
   5  -5198.0745412 -0.507445E-06  0.134E-04    3.91      12.0  T
   6  -5198.0745412 -0.155678E-07  0.861E-05    3.91      18.7  T
     SCC iter.                  ...       21 min,  4.057 sec
     gradient                   ...        4 min, 57.861 sec
 * total energy  : -5103.9965118 Eh     change    :  -0.4654099E-02 Eh
   gradient norm :     0.0854163 Eh/a0  converged?    E=F G=F D=F
   time step     :     0.2679486 fs     power     :   0.1996857E-06
   step length   :     0.0582675 a0     speed     :   0.5260051E-02

........................................................................
.............................. CYCLE   20 ..............................
........................................................................

 iter      E             dE          RMSdq      gap      omega  full diag
   1  -5197.9689000 -0.519797E+04  0.608E-03    3.91       0.0  T
   2  -5197.9689123 -0.123300E-04  0.366E-03    3.91       1.0  T
   3  -5197.9689092  0.308606E-05  0.144E-03    3.91       1.1  T
   4  -5197.9689137 -0.444522E-05  0.472E-04    3.91       3.4  T
   5  -5197.9689144 -0.663808E-06  0.148E-04    3.91      10.9  T
   6  -5197.9689144 -0.144146E-07  0.911E-05    3.91      17.7  T
     SCC iter.                  ...       21 min,  5.753 sec
     gradient                   ...        4 min, 55.386 sec
 * total energy  : -5104.0009302 Eh     change    :  -0.4418460E-02 Eh
   gradient norm :     0.0804815 Eh/a0  converged?    E=F G=F D=F
   time step     :     0.2947435 fs     power     :   0.1666841E-06
   step length   :     0.0689685 a0     speed     :   0.5660072E-02
 * RMSD in coord.:     0.0411003 a0     energy gain  -0.6950503E+00 Eh

........................................................................
.............................. CYCLE   21 ..............................
........................................................................

 iter      E             dE          RMSdq      gap      omega  full diag
   1  -5197.8790031 -0.519788E+04  0.521E-03    3.91       0.0  T
   2  -5197.8790104 -0.725585E-05  0.313E-03    3.91       1.0  T
   3  -5197.8790075  0.289225E-05  0.118E-03    3.91       1.4  T
   4  -5197.8790114 -0.385108E-05  0.371E-04    3.91       4.3  T
   5  -5197.8790118 -0.419480E-06  0.120E-04    3.91      13.4  T
   6  -5197.8790118 -0.755244E-08  0.714E-05    3.91      22.5  T
     SCC iter.                  ...       21 min,  5.298 sec
     gradient                   ...        4 min, 56.261 sec
 * total energy  : -5104.0041768 Eh     change    :  -0.3246587E-02 Eh
   gradient norm :     0.0800829 Eh/a0  converged?    E=F G=F D=F
   time step     :     0.2500000 fs     power     :   0.1493871E-06
   step length   :     0.0602134 a0     speed     :   0.5825971E-02

........................................................................
.............................. CYCLE   22 ..............................
........................................................................

 iter      E             dE          RMSdq      gap      omega  full diag
   1  -5197.7928115 -0.519779E+04  0.522E-03    3.91       0.0  T
   2  -5197.7928169 -0.538201E-05  0.314E-03    3.91       1.0  T
   3  -5197.7928133  0.358094E-05  0.114E-03    3.91       1.4  T
   4  -5197.7928179 -0.456338E-05  0.314E-04    3.91       5.1  T
   5  -5197.7928182 -0.295312E-06  0.108E-04    3.91      14.9  T
   6  -5197.7928182 -0.323416E-08  0.601E-05    3.91      26.8  T
     SCC iter.                  ...       21 min,  7.912 sec
     gradient                   ...        4 min, 59.325 sec
 * total energy  : -5104.0072213 Eh     change    :  -0.3044524E-02 Eh
   gradient norm :     0.0800535 Eh/a0  converged?    E=F G=F D=F
   time step     :     0.2500000 fs     power     :   0.1431158E-06
   step length   :     0.0610684 a0     speed     :   0.5908696E-02

........................................................................
.............................. CYCLE   23 ..............................
........................................................................

 iter      E             dE          RMSdq      gap      omega  full diag
   1  -5197.7136495 -0.519771E+04  0.524E-03    3.91       0.0  T
   2  -5197.7136532 -0.376829E-05  0.314E-03    3.91       1.0  T
   3  -5197.7136491  0.411170E-05  0.112E-03    3.91       1.4  T
   4  -5197.7136542 -0.512617E-05  0.251E-04    3.91       6.4  T
   5  -5197.7136544 -0.174660E-06  0.970E-05    3.91      16.6  T
   6  -5197.7136544 -0.139971E-08  0.522E-05    3.91      30.8  T
     SCC iter.                  ...       21 min, 10.703 sec
     gradient                   ...        4 min, 57.402 sec
 * total energy  : -5104.0102261 Eh     change    :  -0.3004810E-02 Eh
   gradient norm :     0.0787320 Eh/a0  converged?    E=F G=F D=F
   time step     :     0.2500000 fs     power     :   0.1442348E-06
   step length   :     0.0615793 a0     speed     :   0.5958127E-02

........................................................................
.............................. CYCLE   24 ..............................
........................................................................

 iter      E             dE          RMSdq      gap      omega  full diag
   1  -5197.6439879 -0.519764E+04  0.527E-03    3.91       0.0  T
   2  -5197.6439905 -0.262711E-05  0.316E-03    3.91       1.0  T
   3  -5197.6439862  0.429743E-05  0.110E-03    3.91       1.5  T
   4  -5197.6439915 -0.529178E-05  0.203E-04    3.91       7.9  T
   5  -5197.6439916 -0.101881E-06  0.901E-05    3.91      17.9  T
   6  -5197.6439916 -0.222099E-08  0.474E-05    3.91      33.9  T
     SCC iter.                  ...       21 min,  9.219 sec
     gradient                   ...        5 min,  3.589 sec
 * total energy  : -5104.0132657 Eh     change    :  -0.3039588E-02 Eh
   gradient norm :     0.0758395 Eh/a0  converged?    E=F G=F D=F
   time step     :     0.2500000 fs     power     :   0.1478349E-06
   step length   :     0.0621027 a0     speed     :   0.6008774E-02

........................................................................
.............................. CYCLE   25 ..............................
........................................................................

 iter      E             dE          RMSdq      gap      omega  full diag
   1  -5197.5855111 -0.519759E+04  0.531E-03    3.91       0.0  T
   2  -5197.5855131 -0.192943E-05  0.317E-03    3.91       1.0  T
   3  -5197.5855090  0.403381E-05  0.105E-03    3.91       1.5  T
   4  -5197.5855140 -0.493277E-05  0.176E-04    3.91       9.1  T
   5  -5197.5855140 -0.703985E-07  0.897E-05    3.91      17.9  T
   6  -5197.5855140 -0.571163E-08  0.482E-05    3.91      33.3  T
     SCC iter.                  ...       21 min,  5.731 sec
     gradient                   ...        4 min, 55.880 sec
 * total energy  : -5104.0163390 Eh     change    :  -0.3073250E-02 Eh
   gradient norm :     0.0719456 Eh/a0  converged?    E=F G=F D=F
   time step     :     0.2500000 fs     power     :   0.1503170E-06
   step length   :     0.0627838 a0     speed     :   0.6074666E-02

........................................................................
.............................. CYCLE   26 ..............................
........................................................................

 iter      E             dE          RMSdq      gap      omega  full diag
   1  -5197.5348566 -0.519753E+04  0.588E-03    3.91       0.0  T
   2  -5197.5348585 -0.185853E-05  0.350E-03    3.91       1.0  T
   3  -5197.5348544  0.402673E-05  0.105E-03    3.91       1.5  T
   4  -5197.5348593 -0.492089E-05  0.183E-04    3.91       8.8  T
   5  -5197.5348594 -0.703376E-07  0.105E-04    3.91      15.4  T
   6  -5197.5348594 -0.139271E-07  0.625E-05    3.91      25.7  T
     SCC iter.                  ...       21 min,  7.795 sec
     gradient                   ...        4 min, 59.708 sec
 * total energy  : -5104.0197174 Eh     change    :  -0.3378402E-02 Eh
   gradient norm :     0.0674643 Eh/a0  converged?    E=F G=F D=F
   time step     :     0.2750000 fs     power     :   0.1491032E-06
   step length   :     0.0703092 a0     speed     :   0.6184360E-02

........................................................................
.............................. CYCLE   27 ..............................
........................................................................

 iter      E             dE          RMSdq      gap      omega  full diag
   1  -5197.4950901 -0.519750E+04  0.645E-03    3.91       0.0  T
   2  -5197.4950920 -0.188322E-05  0.382E-03    3.91       1.0  T
   3  -5197.4950887  0.326551E-05  0.961E-04    3.91       1.7  T
   4  -5197.4950928 -0.405402E-05  0.201E-04    3.91       8.0  T
   5  -5197.4950928 -0.814225E-07  0.125E-04    3.91      12.9  T
   6  -5197.4950929 -0.236778E-07  0.831E-05    3.91      19.4  T
     SCC iter.                  ...       21 min,  7.452 sec
     gradient                   ...        5 min,  3.568 sec
 * total energy  : -5104.0233427 Eh     change    :  -0.3625276E-02 Eh
   gradient norm :     0.0632617 Eh/a0  converged?    E=F G=F D=F
   time step     :     0.3025000 fs     power     :   0.1439654E-06
   step length   :     0.0791025 a0     speed     :   0.6325279E-02

........................................................................
.............................. CYCLE   28 ..............................
........................................................................

 iter      E             dE          RMSdq      gap      omega  full diag
   1  -5197.4691601 -0.519747E+04  0.695E-03    3.91       0.0  T
   2  -5197.4691620 -0.191521E-05  0.411E-03    3.91       1.0  T
   3  -5197.4691600  0.198079E-05  0.810E-04    3.91       2.0  T
   4  -5197.4691626 -0.263339E-05  0.224E-04    3.91       7.2  T
   5  -5197.4691627 -0.971868E-07  0.144E-04    3.91      11.2  T
   6  -5197.4691628 -0.335358E-07  0.988E-05    3.91      16.3  T
     SCC iter.                  ...       21 min,  8.585 sec
     gradient                   ...        4 min, 55.492 sec
 * total energy  : -5104.0271556 Eh     change    :  -0.3812966E-02 Eh
   gradient norm :     0.0596926 Eh/a0  converged?    E=F G=F D=F
   time step     :     0.3327500 fs     power     :   0.1361782E-06
   step length   :     0.0891163 a0     speed     :   0.6478201E-02

........................................................................
.............................. CYCLE   29 ..............................
........................................................................

 iter      E             dE          RMSdq      gap      omega  full diag
   1  -5197.4594717 -0.519746E+04  0.734E-03    3.90       0.0  T
   2  -5197.4594736 -0.199182E-05  0.433E-03    3.90       1.0  T
   3  -5197.4594722  0.147487E-05  0.781E-04    3.90       2.1  T
   4  -5197.4594743 -0.215552E-05  0.236E-04    3.90       6.8  T
   5  -5197.4594744 -0.887248E-07  0.160E-04    3.90      10.1  T
   6  -5197.4594745 -0.467744E-07  0.105E-04    3.90      15.4  T
     SCC iter.                  ...       21 min,  3.233 sec
     gradient                   ...        4 min, 56.582 sec
 * total energy  : -5104.0311127 Eh     change    :  -0.3957057E-02 Eh
   gradient norm :     0.0567268 Eh/a0  converged?    E=F G=F D=F
   time step     :     0.3660250 fs     power     :   0.1271247E-06
   step length   :     0.1002872 a0     speed     :   0.6627504E-02

........................................................................
.............................. CYCLE   30 ..............................
........................................................................

 iter      E             dE          RMSdq      gap      omega  full diag
   1  -5197.4675603 -0.519747E+04  0.755E-03    3.90       0.0  T
   2  -5197.4675626 -0.223913E-05  0.446E-03    3.90       1.0  T
   3  -5197.4675598  0.277124E-05  0.100E-03    3.90       1.6  T
   4  -5197.4675635 -0.372712E-05  0.236E-04    3.89       6.8  T
   5  -5197.4675636 -0.762939E-07  0.166E-04    3.89       9.7  T
   6  -5197.4675637 -0.502623E-07  0.106E-04    3.89      15.2  T
     SCC iter.                  ...       21 min,  4.822 sec
     gradient                   ...        4 min, 53.653 sec
 * total energy  : -5104.0351954 Eh     change    :  -0.4082699E-02 Eh
   gradient norm :     0.0550453 Eh/a0  converged?    E=F G=F D=F
   time step     :     0.4026275 fs     power     :   0.1182011E-06
   step length   :     0.1125870 a0     speed     :   0.6763943E-02

........................................................................
.............................. CYCLE   31 ..............................
........................................................................

 iter      E             dE          RMSdq      gap      omega  full diag
   1  -5197.4939606 -0.519749E+04  0.758E-03    3.89       0.0  T
   2  -5197.4939632 -0.256255E-05  0.450E-03    3.89       1.0  T
   3  -5197.4939589  0.433048E-05  0.118E-03    3.89       1.4  T
   4  -5197.4939644 -0.554907E-05  0.228E-04    3.89       7.1  T
   5  -5197.4939645 -0.730661E-07  0.156E-04    3.89      10.3  T
   6  -5197.4939645 -0.398086E-07  0.976E-05    3.89      16.5  T
     SCC iter.                  ...       21 min,  5.628 sec
     gradient                   ...        4 min, 53.622 sec
 * total energy  : -5104.0394664 Eh     change    :  -0.4270993E-02 Eh
   gradient norm :     0.0556124 Eh/a0  converged?    E=F G=F D=F
   time step     :     0.4428903 fs     power     :   0.1127708E-06
   step length   :     0.1260146 a0     speed     :   0.6882399E-02

........................................................................
.............................. CYCLE   32 ..............................
........................................................................

 iter      E             dE          RMSdq      gap      omega  full diag
   1  -5197.5385923 -0.519754E+04  0.754E-03    3.89       0.0  T
   2  -5197.5385949 -0.257389E-05  0.450E-03    3.89       1.0  T
   3  -5197.5385911  0.373102E-05  0.106E-03    3.88       1.5  T
   4  -5197.5385958 -0.472571E-05  0.212E-04    3.88       7.6  T
   5  -5197.5385959 -0.703658E-07  0.129E-04    3.88      12.4  T
   6  -5197.5385959 -0.218806E-07  0.792E-05    3.88      20.3  T
     SCC iter.                  ...       21 min,  4.654 sec
     gradient                   ...        4 min, 56.044 sec
 * total energy  : -5104.0441561 Eh     change    :  -0.4689749E-02 Eh
   gradient norm :     0.0563037 Eh/a0  converged?    E=F G=F D=F
   time step     :     0.4871793 fs     power     :   0.1147369E-06
   step length   :     0.1408638 a0     speed     :   0.6994003E-02

........................................................................
.............................. CYCLE   33 ..............................
........................................................................

 iter      E             dE          RMSdq      gap      omega  full diag
   1  -5197.6021861 -0.519760E+04  0.779E-03    3.88       0.0  T
   2  -5197.6021888 -0.269919E-05  0.465E-03    3.88       1.0  T
   3  -5197.6021870  0.181042E-05  0.774E-04    3.88       2.1  T
   4  -5197.6021894 -0.239356E-05  0.219E-04    3.88       7.4  T
   5  -5197.6021895 -0.101976E-06  0.104E-04    3.88      15.5  T
   6  -5197.6021895 -0.736873E-08  0.499E-05    3.88      32.2  T
     SCC iter.                  ...       21 min,  8.546 sec
     gradient                   ...        5 min,  5.588 sec
 * total energy  : -5104.0495125 Eh     change    :  -0.5356330E-02 Eh
   gradient norm :     0.0523049 Eh/a0  converged?    E=F G=F D=F
   time step     :     0.5358972 fs     power     :   0.1198772E-06
   step length   :     0.1582313 a0     speed     :   0.7142103E-02

........................................................................
.............................. CYCLE   34 ..............................
........................................................................

 iter      E             dE          RMSdq      gap      omega  full diag
   1  -5197.6880978 -0.519769E+04  0.856E-03    3.89       0.0  T
   2  -5197.6881020 -0.414088E-05  0.512E-03    3.89       1.0  T
   3  -5197.6880953  0.667744E-05  0.134E-03    3.89       1.2  T
   4  -5197.6881033 -0.803207E-05  0.256E-04    3.89       6.3  T
   5  -5197.6881035 -0.173956E-06  0.117E-04    3.89      13.7  T
   6  -5197.6881035 -0.757518E-08  0.548E-05    3.89      29.4  T
     SCC iter.                  ...       21 min,  4.210 sec
     gradient                   ...        4 min, 57.990 sec
 * total energy  : -5104.0553254 Eh     change    :  -0.5812900E-02 Eh
   gradient norm :     0.0437298 Eh/a0  converged?    E=F G=F D=F
   time step     :     0.5894869 fs     power     :   0.1138708E-06
   step length   :     0.1793777 a0     speed     :   0.7360534E-02

........................................................................
.............................. CYCLE   35 ..............................
........................................................................

 iter      E             dE          RMSdq      gap      omega  full diag
   1  -5197.8028282 -0.519780E+04  0.941E-03    3.89       0.0  T
   2  -5197.8028344 -0.619937E-05  0.570E-03    3.89       1.0  T
   3  -5197.8028166  0.177184E-04  0.211E-03    3.89       1.0  T
   4  -5197.8028381 -0.214873E-04  0.294E-04    3.89       5.5  T
   5  -5197.8028383 -0.202471E-06  0.140E-04    3.89      11.5  T
   6  -5197.8028383 -0.998079E-08  0.668E-05    3.89      24.1  T
     SCC iter.                  ...       21 min,  5.908 sec
     gradient                   ...        4 min, 53.819 sec
 * total energy  : -5104.0609036 Eh     change    :  -0.5578239E-02 Eh
   gradient norm :     0.0411547 Eh/a0  converged?    E=F G=F D=F
   time step     :     0.6484356 fs     power     :   0.9326853E-07
   step length   :     0.2038218 a0     speed     :   0.7603244E-02

........................................................................
.............................. CYCLE   36 ..............................
........................................................................

 iter      E             dE          RMSdq      gap      omega  full diag
   1  -5197.9485710 -0.519795E+04  0.970E-03    3.89       0.0  T
   2  -5197.9485777 -0.664080E-05  0.592E-03    3.89       1.0  T
   3  -5197.9485542  0.235028E-04  0.238E-03    3.89       1.0  T
   4  -5197.9485826 -0.284731E-04  0.283E-04    3.89       5.7  T
   5  -5197.9485828 -0.152586E-06  0.141E-04    3.89      11.4  T
   6  -5197.9485828 -0.968794E-08  0.667E-05    3.89      24.1  T
     SCC iter.                  ...       21 min,  6.369 sec
     gradient                   ...        4 min, 57.930 sec
 * total energy  : -5104.0661344 Eh     change    :  -0.5230765E-02 Eh
   gradient norm :     0.0428912 Eh/a0  converged?    E=F G=F D=F
   time step     :     0.7132792 fs     power     :   0.7922748E-07
   step length   :     0.2280852 a0     speed     :   0.7734864E-02

........................................................................
.............................. CYCLE   37 ..............................
........................................................................

 iter      E             dE          RMSdq      gap      omega  full diag
   1  -5198.1123109 -0.519811E+04  0.100E-02    3.89       0.0  T
   2  -5198.1123196 -0.868620E-05  0.603E-03    3.89       1.0  T
   3  -5198.1123028  0.167629E-04  0.227E-03    3.89       1.0  T
   4  -5198.1123234 -0.205394E-04  0.345E-04    3.89       4.7  T
   5  -5198.1123237 -0.303583E-06  0.145E-04    3.89      11.1  T
   6  -5198.1123237 -0.820091E-08  0.782E-05    3.89      20.6  T
     SCC iter.                  ...       21 min,  8.849 sec
     gradient                   ...        5 min,  0.638 sec
 * total energy  : -5104.0713784 Eh     change    :  -0.5243999E-02 Eh
   gradient norm :     0.0398409 Eh/a0  converged?    E=F G=F D=F
   time step     :     0.7846071 fs     power     :   0.7095679E-07
   step length   :     0.2525891 a0     speed     :   0.7787132E-02

........................................................................
.............................. CYCLE   38 ..............................
........................................................................

 iter      E             dE          RMSdq      gap      omega  full diag
   1  -5198.2591543 -0.519826E+04  0.103E-02    3.88       0.0  T
   2  -5198.2591637 -0.932847E-05  0.609E-03    3.88       1.0  T
   3  -5198.2591551  0.858892E-05  0.186E-03    3.88       1.0  T
   4  -5198.2591658 -0.107257E-04  0.353E-04    3.88       4.6  T
   5  -5198.2591661 -0.297014E-06  0.148E-04    3.88      10.8  T
   6  -5198.2591661 -0.860473E-08  0.823E-05    3.88      19.5  T
     SCC iter.                  ...       21 min,  9.765 sec
     gradient                   ...        4 min, 57.978 sec
 * total energy  : -5104.0765387 Eh     change    :  -0.5160304E-02 Eh
   gradient norm :     0.0424137 Eh/a0  converged?    E=F G=F D=F
   time step     :     0.8630678 fs     power     :   0.6183778E-07
   step length   :     0.2791892 a0     speed     :   0.7824720E-02

........................................................................
.............................. CYCLE   39 ..............................
........................................................................

 iter      E             dE          RMSdq      gap      omega  full diag
   1  -5198.3390681 -0.519834E+04  0.104E-02    3.88       0.0  T
   2  -5198.3390728 -0.462959E-05  0.612E-03    3.88       1.0  T
   3  -5198.3390673  0.543388E-05  0.134E-03    3.88       1.2  T
   4  -5198.3390741 -0.679416E-05  0.264E-04    3.89       6.1  T
   5  -5198.3390743 -0.128619E-06  0.135E-04    3.89      11.9  T
   6  -5198.3390743 -0.908494E-08  0.605E-05    3.89      26.6  T
     SCC iter.                  ...       21 min,  9.089 sec
     gradient                   ...        4 min, 57.396 sec
 * total energy  : -5104.0822507 Eh     change    :  -0.5712051E-02 Eh
   gradient norm :     0.0421459 Eh/a0  converged?    E=F G=F D=F
   time step     :     0.9493746 fs     power     :   0.6600543E-07
   step length   :     0.3072162 a0     speed     :   0.7827474E-02

........................................................................
.............................. CYCLE   40 ..............................
........................................................................

 iter      E             dE          RMSdq      gap      omega  full diag
   1  -5198.3168138 -0.519832E+04  0.107E-02    3.89       0.0  T
   2  -5198.3168219 -0.812912E-05  0.647E-03    3.89       1.0  T
   3  -5198.3168091  0.128445E-04  0.192E-03    3.89       1.0  T
   4  -5198.3168250 -0.159078E-04  0.343E-04    3.89       4.7  T
   5  -5198.3168252 -0.225725E-06  0.209E-04    3.89       7.7  T
   6  -5198.3168252 -0.374630E-07  0.129E-04    3.89      12.5  T
     SCC iter.                  ...       21 min,  7.951 sec
     gradient                   ...        4 min, 54.159 sec
 * total energy  : -5104.0888074 Eh     change    :  -0.6556686E-02 Eh
   gradient norm :     0.0394249 Eh/a0  converged?    E=F G=F D=F
   time step     :     1.0443120 fs     power     :   0.6751409E-07
   step length   :     0.3417301 a0     speed     :   0.7915312E-02

........................................................................
.............................. CYCLE   41 ..............................
........................................................................

 iter      E             dE          RMSdq      gap      omega  full diag
   1  -5198.2103766 -0.519821E+04  0.119E-02    3.88       0.0  T
   2  -5198.2103937 -0.171007E-04  0.715E-03    3.88       1.0  T
   3  -5198.2103809  0.127678E-04  0.212E-03    3.88       1.0  T
   4  -5198.2103971 -0.161449E-04  0.514E-04    3.88       3.1  T
   5  -5198.2103978 -0.760976E-06  0.242E-04    3.88       6.6  T
   6  -5198.2103979 -0.372283E-07  0.150E-04    3.88      10.7  T
     SCC iter.                  ...       21 min,  8.771 sec
     gradient                   ...        4 min, 58.782 sec
 * total energy  : -5104.0957155 Eh     change    :  -0.6908128E-02 Eh
   gradient norm :     0.0360420 Eh/a0  converged?    E=F G=F D=F
   time step     :     1.1487432 fs     power     :   0.6088353E-07
   step length   :     0.3828853 a0     speed     :   0.8062335E-02

........................................................................
.............................. CYCLE   42 ..............................
........................................................................

 iter      E             dE          RMSdq      gap      omega  full diag
   1  -5198.0977872 -0.519810E+04  0.130E-02    3.87       0.0  T
   2  -5198.0977965 -0.929305E-05  0.779E-03    3.87       1.0  T
   3  -5198.0977796  0.168346E-04  0.246E-03    3.87       1.0  T
   4  -5198.0978003 -0.206979E-04  0.370E-04    3.87       4.4  T
   5  -5198.0978005 -0.200088E-06  0.192E-04    3.87       8.4  T
   6  -5198.0978005 -0.131467E-07  0.867E-05    3.87      18.5  T
     SCC iter.                  ...       21 min,  6.748 sec
     gradient                   ...        5 min,  0.228 sec
 * total energy  : -5104.1024936 Eh     change    :  -0.6778046E-02 Eh
   gradient norm :     0.0374460 Eh/a0  converged?    E=F G=F D=F
   time step     :     1.2500000 fs     power     :   0.5439297E-07
   step length   :     0.4228211 a0     speed     :   0.8182043E-02
 * RMSD in coord.:     0.0544156 a0     energy gain  -0.1015633E+00 Eh

........................................................................
.............................. CYCLE   43 ..............................
........................................................................

 iter      E             dE          RMSdq      gap      omega  full diag
   1  -5198.0838697 -0.519808E+04  0.224E-03    3.87       0.0  T
   2  -5198.0838700 -0.297845E-06  0.136E-03    3.87       1.2  T
   3  -5198.0838689  0.109346E-05  0.532E-04    3.87       3.0  T
   4  -5198.0838702 -0.131698E-05  0.641E-05    3.88      25.1  T
   5  -5198.0838702 -0.799628E-08  0.342E-05    3.88      47.1  T
   6  -5198.0838702 -0.745786E-09  0.156E-05    3.88     102.9  T
     SCC iter.                  ...       21 min,  7.851 sec
     gradient                   ...        4 min, 55.425 sec
 * total energy  : -5104.1037714 Eh     change    :  -0.1277812E-02 Eh
   gradient norm :     0.0366545 Eh/a0  converged?    E=F G=F D=F
   time step     :     0.2500000 fs     power     :   0.6552438E-07
   step length   :     0.0801903 a0     speed     :   0.7758846E-02

........................................................................
.............................. CYCLE   44 ..............................
........................................................................

 iter      E             dE          RMSdq      gap      omega  full diag
   1  -5198.0786766 -0.519808E+04  0.223E-03    3.88       0.0  T
   2  -5198.0786772 -0.564418E-06  0.139E-03    3.88       1.2  T
   3  -5198.0786759  0.134434E-05  0.623E-04    3.88       2.6  T
   4  -5198.0786776 -0.176989E-05  0.790E-05    3.88      20.4  T
   5  -5198.0786776 -0.174277E-07  0.342E-05    3.88      47.1  T
   6  -5198.0786776 -0.846740E-09  0.179E-05    3.88      89.7  T
     SCC iter.                  ...       21 min, 11.925 sec
     gradient                   ...        4 min, 58.881 sec
 * total energy  : -5104.1051969 Eh     change    :  -0.1425484E-02 Eh
   gradient norm :     0.0330620 Eh/a0  converged?    E=F G=F D=F
   time step     :     0.2500000 fs     power     :   0.7254122E-07
   step length   :     0.0769962 a0     speed     :   0.7449792E-02

........................................................................
.............................. CYCLE   45 ..............................
........................................................................

 iter      E             dE          RMSdq      gap      omega  full diag
   1  -5198.0822508 -0.519808E+04  0.243E-03    3.88       0.0  T
   2  -5198.0822517 -0.891296E-06  0.153E-03    3.88       1.0  T
   3  -5198.0822502  0.151898E-05  0.712E-04    3.88       2.3  T
   4  -5198.0822524 -0.216326E-05  0.971E-05    3.88      16.6  T
   5  -5198.0822524 -0.268792E-07  0.418E-05    3.88      38.5  T
   6  -5198.0822524 -0.125510E-08  0.238E-05    3.88      67.5  T
     SCC iter.                  ...       21 min,  8.068 sec
     gradient                   ...        4 min, 57.734 sec
 * total energy  : -5104.1066596 Eh     change    :  -0.1462737E-02 Eh
   gradient norm :     0.0289206 Eh/a0  converged?    E=F G=F D=F
   time step     :     0.2500000 fs     power     :   0.7306102E-07
   step length   :     0.0749129 a0     speed     :   0.7248226E-02

........................................................................
.............................. CYCLE   46 ..............................
........................................................................

 iter      E             dE          RMSdq      gap      omega  full diag
   1  -5198.0946092 -0.519809E+04  0.262E-03    3.88       0.0  T
   2  -5198.0946102 -0.973263E-06  0.164E-03    3.88       1.0  T
   3  -5198.0946084  0.183713E-05  0.757E-04    3.88       2.1  T
   4  -5198.0946109 -0.253099E-05  0.102E-04    3.88      15.8  T
   5  -5198.0946109 -0.266664E-07  0.476E-05    3.88      33.8  T
   6  -5198.0946109 -0.169439E-08  0.274E-05    3.88      58.7  T
     SCC iter.                  ...       21 min,  9.141 sec
     gradient                   ...        4 min, 57.472 sec
 * total energy  : -5104.1080645 Eh     change    :  -0.1404907E-02 Eh
   gradient norm :     0.0266795 Eh/a0  converged?    E=F G=F D=F
   time step     :     0.2500000 fs     power     :   0.6927034E-07
   step length   :     0.0736005 a0     speed     :   0.7121245E-02

........................................................................
.............................. CYCLE   47 ..............................
........................................................................

 iter      E             dE          RMSdq      gap      omega  full diag
   1  -5198.1150801 -0.519812E+04  0.269E-03    3.88       0.0  T
   2  -5198.1150809 -0.740852E-06  0.165E-03    3.88       1.0  T
   3  -5198.1150790  0.189802E-05  0.710E-04    3.88       2.3  T
   4  -5198.1150814 -0.240906E-05  0.931E-05    3.88      17.3  T
   5  -5198.1150814 -0.190439E-07  0.476E-05    3.88      33.8  T
   6  -5198.1150814 -0.161072E-08  0.269E-05    3.88      59.8  T
     SCC iter.                  ...       21 min,  9.401 sec
     gradient                   ...        4 min, 58.343 sec
 * total energy  : -5104.1093883 Eh     change    :  -0.1323836E-02 Eh
   gradient norm :     0.0266623 Eh/a0  converged?    E=F G=F D=F
   time step     :     0.2500000 fs     power     :   0.6553878E-07
   step length   :     0.0724785 a0     speed     :   0.7012684E-02

........................................................................
.............................. CYCLE   48 ..............................
........................................................................

 iter      E             dE          RMSdq      gap      omega  full diag
   1  -5198.1448617 -0.519814E+04  0.290E-03    3.88       0.0  T
   2  -5198.1448622 -0.519771E-06  0.174E-03    3.88       1.0  T
   3  -5198.1448607  0.148419E-05  0.612E-04    3.88       2.6  T
   4  -5198.1448625 -0.178980E-05  0.873E-05    3.88      18.4  T
   5  -5198.1448625 -0.148593E-07  0.466E-05    3.88      34.5  T
   6  -5198.1448625 -0.136879E-08  0.239E-05    3.88      67.3  T
     SCC iter.                  ...       21 min,  6.648 sec
     gradient                   ...        4 min, 59.983 sec
 * total energy  : -5104.1107913 Eh     change    :  -0.1402914E-02 Eh
   gradient norm :     0.0272036 Eh/a0  converged?    E=F G=F D=F
   time step     :     0.2750000 fs     power     :   0.6370107E-07
   step length   :     0.0784238 a0     speed     :   0.6898109E-02

........................................................................
.............................. CYCLE   49 ..............................
........................................................................

 iter      E             dE          RMSdq      gap      omega  full diag
   1  -5198.1830589 -0.519818E+04  0.306E-03    3.88       0.0  T
   2  -5198.1830593 -0.373320E-06  0.181E-03    3.88       1.0  T
   3  -5198.1830586  0.647667E-06  0.466E-04    3.88       3.5  T
   4  -5198.1830594 -0.804775E-06  0.785E-05    3.88      20.5  T
     SCC iter.                  ...       14 min,  6.867 sec
     gradient                   ...        4 min, 55.983 sec
 * total energy  : -5104.1123166 Eh     change    :  -0.1525315E-02 Eh
   gradient norm :     0.0269071 Eh/a0  converged?    E=F G=F D=F
   time step     :     0.3025000 fs     power     :   0.6343345E-07
   step length   :     0.0848857 a0     speed     :   0.6787724E-02

........................................................................
.............................. CYCLE   50 ..............................
........................................................................

 iter      E             dE          RMSdq      gap      omega  full diag
   1  -5198.2279556 -0.519823E+04  0.322E-03    3.88       0.0  T
   2  -5198.2279560 -0.397471E-06  0.191E-03    3.88       1.0  T
   3  -5198.2279552  0.783553E-06  0.501E-04    3.88       3.2  T
   4  -5198.2279562 -0.971334E-06  0.739E-05    3.88      21.8  T
     SCC iter.                  ...       14 min,  9.406 sec
     gradient                   ...        4 min, 54.630 sec
 * total energy  : -5104.1139841 Eh     change    :  -0.1667483E-02 Eh
   gradient norm :     0.0254892 Eh/a0  converged?    E=F G=F D=F
   time step     :     0.3327500 fs     power     :   0.6293804E-07
   step length   :     0.0922497 a0     speed     :   0.6705978E-02

........................................................................
.............................. CYCLE   51 ..............................
........................................................................

 iter      E             dE          RMSdq      gap      omega  full diag
   1  -5198.2765820 -0.519828E+04  0.340E-03    3.88       0.0  T
   2  -5198.2765826 -0.546480E-06  0.204E-03    3.88       1.0  T
   3  -5198.2765810  0.160159E-05  0.625E-04    3.88       2.6  T
   4  -5198.2765829 -0.192065E-05  0.865E-05    3.88      18.6  T
   5  -5198.2765829 -0.114305E-07  0.478E-05    3.88      33.6  T
   6  -5198.2765829 -0.104956E-08  0.217E-05    3.88      74.0  T
     SCC iter.                  ...       21 min,  4.247 sec
     gradient                   ...        4 min, 55.707 sec
 * total energy  : -5104.1157725 Eh     change    :  -0.1788470E-02 Eh
   gradient norm :     0.0234428 Eh/a0  converged?    E=F G=F D=F
   time step     :     0.3660250 fs     power     :   0.6075177E-07
   step length   :     0.1008513 a0     speed     :   0.6664778E-02

........................................................................
.............................. CYCLE   52 ..............................
........................................................................

 iter      E             dE          RMSdq      gap      omega  full diag
   1  -5198.3240884 -0.519832E+04  0.360E-03    3.88       0.0  T
   2  -5198.3240891 -0.668592E-06  0.216E-03    3.88       1.0  T
   3  -5198.3240877  0.146061E-05  0.607E-04    3.88       2.7  T
   4  -5198.3240894 -0.176870E-05  0.104E-04    3.88      15.4  T
   5  -5198.3240894 -0.211085E-07  0.544E-05    3.88      29.6  T
   6  -5198.3240894 -0.113323E-08  0.247E-05    3.88      65.1  T
     SCC iter.                  ...       21 min,  3.170 sec
     gradient                   ...        4 min, 56.017 sec
 * total energy  : -5104.1176312 Eh     change    :  -0.1858645E-02 Eh
   gradient norm :     0.0218004 Eh/a0  converged?    E=F G=F D=F
   time step     :     0.4026275 fs     power     :   0.5660361E-07
   step length   :     0.1108136 a0     speed     :   0.6657403E-02

........................................................................
.............................. CYCLE   53 ..............................
........................................................................

 iter      E             dE          RMSdq      gap      omega  full diag
   1  -5198.3637011 -0.519836E+04  0.380E-03    3.88       0.0  T
   2  -5198.3637019 -0.783327E-06  0.226E-03    3.88       1.0  T
   3  -5198.3637009  0.100515E-05  0.588E-04    3.88       2.7  T
   4  -5198.3637022 -0.128690E-05  0.106E-04    3.88      15.1  T
   5  -5198.3637022 -0.176060E-07  0.602E-05    3.88      26.7  T
   6  -5198.3637022 -0.228465E-08  0.270E-05    3.88      59.6  T
     SCC iter.                  ...       21 min,  8.566 sec
     gradient                   ...        4 min, 53.379 sec
 * total energy  : -5104.1195279 Eh     change    :  -0.1896758E-02 Eh
   gradient norm :     0.0221676 Eh/a0  converged?    E=F G=F D=F
   time step     :     0.4428903 fs     power     :   0.5222730E-07
   step length   :     0.1218894 a0     speed     :   0.6657097E-02

........................................................................
.............................. CYCLE   54 ..............................
........................................................................

 iter      E             dE          RMSdq      gap      omega  full diag
   1  -5198.3890320 -0.519839E+04  0.396E-03    3.88       0.0  T
   2  -5198.3890329 -0.919326E-06  0.236E-03    3.88       1.0  T
   3  -5198.3890304  0.247864E-05  0.817E-04    3.88       2.0  T
   4  -5198.3890334 -0.301861E-05  0.112E-04    3.88      14.3  T
   5  -5198.3890335 -0.234322E-07  0.664E-05    3.88      24.2  T
   6  -5198.3890335 -0.317686E-08  0.337E-05    3.88      47.7  T
     SCC iter.                  ...       21 min,  9.424 sec
     gradient                   ...        4 min, 55.430 sec
 * total energy  : -5104.1215237 Eh     change    :  -0.1995758E-02 Eh
   gradient norm :     0.0234709 Eh/a0  converged?    E=F G=F D=F
   time step     :     0.4871793 fs     power     :   0.5080221E-07
   step length   :     0.1334571 a0     speed     :   0.6626254E-02

........................................................................
.............................. CYCLE   55 ..............................
........................................................................

 iter      E             dE          RMSdq      gap      omega  full diag
   1  -5198.3967257 -0.519840E+04  0.420E-03    3.88       0.0  T
   2  -5198.3967268 -0.110449E-05  0.252E-03    3.88       1.0  T
   3  -5198.3967227  0.414494E-05  0.102E-03    3.88       1.6  T
   4  -5198.3967277 -0.501213E-05  0.110E-04    3.88      14.7  T
   5  -5198.3967277 -0.169857E-07  0.657E-05    3.88      24.5  T
   6  -5198.3967277 -0.278033E-08  0.331E-05    3.88      48.6  T
     SCC iter.                  ...       21 min,  8.672 sec
     gradient                   ...        4 min, 54.708 sec
 * total energy  : -5104.1237287 Eh     change    :  -0.2204986E-02 Eh
   gradient norm :     0.0221987 Eh/a0  converged?    E=F G=F D=F
   time step     :     0.5358972 fs     power     :   0.5149198E-07
   step length   :     0.1459181 a0     speed     :   0.6586320E-02

........................................................................
.............................. CYCLE   56 ..............................
........................................................................

 iter      E             dE          RMSdq      gap      omega  full diag
   1  -5198.3860956 -0.519839E+04  0.458E-03    3.88       0.0  T
   2  -5198.3860969 -0.127474E-05  0.273E-03    3.88       1.0  T
   3  -5198.3860933  0.359737E-05  0.102E-03    3.88       1.6  T
   4  -5198.3860976 -0.434160E-05  0.125E-04    3.88      12.9  T
   5  -5198.3860977 -0.295367E-07  0.653E-05    3.88      24.6  T
   6  -5198.3860977 -0.169439E-08  0.285E-05    3.88      56.4  T
     SCC iter.                  ...       21 min, 11.899 sec
     gradient                   ...        4 min, 54.088 sec
 * total energy  : -5104.1261088 Eh     change    :  -0.2380130E-02 Eh
   gradient norm :     0.0193895 Eh/a0  converged?    E=F G=F D=F
   time step     :     0.5894869 fs     power     :   0.4937912E-07
   step length   :     0.1607416 a0     speed     :   0.6595827E-02

........................................................................
.............................. CYCLE   57 ..............................
........................................................................

 iter      E             dE          RMSdq      gap      omega  full diag
   1  -5198.3599592 -0.519836E+04  0.491E-03    3.88       0.0  T
   2  -5198.3599603 -0.106171E-05  0.292E-03    3.88       1.0  T
   3  -5198.3599584  0.190042E-05  0.814E-04    3.88       2.0  T
   4  -5198.3599607 -0.233721E-05  0.122E-04    3.88      13.2  T
   5  -5198.3599607 -0.184928E-07  0.681E-05    3.88      23.6  T
   6  -5198.3599608 -0.241744E-08  0.309E-05    3.88      52.0  T
     SCC iter.                  ...       21 min,  6.840 sec
     gradient                   ...        4 min, 54.865 sec
 * total energy  : -5104.1285349 Eh     change    :  -0.2426076E-02 Eh
   gradient norm :     0.0193349 Eh/a0  converged?    E=F G=F D=F
   time step     :     0.6484356 fs     power     :   0.4496943E-07
[...]
  3618   6 C     3619   6 C                                       1.3823722
  3619   6 C     3620   6 C                                       1.3845642
  3620   6 C     3621   6 C                                       1.3840606
  3617   6 C     3622   6 C                                       1.3889177
  3621   6 C     3622   6 C                                       1.3838802
  3616   6 C     3623   6 C                                       1.5363188
  3623   6 C     3624   6 C                                       1.5316933
  3625   6 C     3626   6 C                                       1.3892782
  3626   6 C     3627   6 C                                       1.3835703
  3627   6 C     3628   6 C                                       1.3828988
  3628   6 C     3629   6 C                                       1.3844452
  3625   6 C     3630   6 C                                       1.3903069
  3629   6 C     3630   6 C                                       1.3832037
  3624   6 C     3631   6 C                                       1.5385183
  3631   6 C     3632   6 C                                       1.5357802
  3633   6 C     3634   6 C                                       1.3892426
  3634   6 C     3635   6 C                                       1.3839360
  3635   6 C     3636   6 C                                       1.3833566
  3636   6 C     3637   6 C                                       1.3833202
  3633   6 C     3638   6 C                                       1.3903315
  3637   6 C     3638   6 C                                       1.3816235
  3632   6 C     3639   6 C                                       1.5333232
  3639   6 C     3640   6 C                                       1.5347741
  3641   6 C     3642   6 C                                       1.3893972
  3642   6 C     3643   6 C                                       1.3836855
  3643   6 C     3644   6 C                                       1.3842196
  3644   6 C     3645   6 C                                       1.3839627
  3641   6 C     3646   6 C                                       1.3903002
  3645   6 C     3646   6 C                                       1.3826973
  3640   6 C     3647   6 C                                       1.5336835
  3647   6 C     3648   6 C                                       1.5359606
  3649   6 C     3650   6 C                                       1.3915324
  3650   6 C     3651   6 C                                       1.3825779
  3651   6 C     3652   6 C                                       1.3843927
  3652   6 C     3653   6 C                                       1.3838011
  3649   6 C     3654   6 C                                       1.3887850
  3653   6 C     3654   6 C                                       1.3843337
  3648   6 C     3655   6 C                                       1.5378931
  3655   6 C     3656   6 C                                       1.5400538
  3657   6 C     3658   6 C                                       1.3901251
  3658   6 C     3659   6 C                                       1.3827566
  3659   6 C     3660   6 C                                       1.3850660
  3660   6 C     3661   6 C                                       1.3834558
  3657   6 C     3662   6 C                                       1.3895958
  3661   6 C     3662   6 C                                       1.3840002
  3656   6 C     3663   6 C                                       1.5333127
  3663   6 C     3664   6 C                                       1.5370016
  3665   6 C     3666   6 C                                       1.3888831
  3666   6 C     3667   6 C                                       1.3841266
  3667   6 C     3668   6 C                                       1.3828436
  3668   6 C     3669   6 C                                       1.3842928
  3665   6 C     3670   6 C                                       1.3910462
  3669   6 C     3670   6 C                                       1.3823298
  3664   6 C     3671   6 C                                       1.5374743
  3671   6 C     3672   6 C                                       1.5406844
  3673   6 C     3674   6 C                                       1.3907643
  3674   6 C     3675   6 C                                       1.3839108
  3675   6 C     3676   6 C                                       1.3842580
  3676   6 C     3677   6 C                                       1.3848093
  3673   6 C     3678   6 C                                       1.3913872
  3677   6 C     3678   6 C                                       1.3829146
  3672   6 C     3679   6 C                                       1.5331988
  3679   6 C     3680   6 C                                       1.5368209
  3681   6 C     3682   6 C                                       1.3878722
  3682   6 C     3683   6 C                                       1.3829970
  3683   6 C     3684   6 C                                       1.3829248
  3684   6 C     3685   6 C                                       1.3837673
  3681   6 C     3686   6 C                                       1.3894782
  3685   6 C     3686   6 C                                       1.3832521
  3680   6 C     3687   6 C                                       1.5315639
  3687   6 C     3688   6 C                                       1.5337735
  3549   6 C     3689   1 H                                       1.0967396
  3551   6 C     3690   1 H                                       1.0913547
  3551   6 C     3691   1 H                                       1.0910011
  3552   6 C     3692   1 H                                       1.0940523
  3559   6 C     3693   1 H                                       1.0930390
  3559   6 C     3694   1 H                                       1.0916927
  3560   6 C     3695   1 H                                       1.0940566
  3567   6 C     3696   1 H                                       1.0922169
  3567   6 C     3697   1 H                                       1.0917104
  3568   6 C     3698   1 H                                       1.0961591
  3575   6 C     3699   1 H                                       1.0936089
  3576   6 C     3700   1 H                                       1.0954016
  3583   6 C     3701   1 H                                       1.0919002
  3583   6 C     3702   1 H                                       1.0910631
  3584   6 C     3703   1 H                                       1.0956490
  3591   6 C     3704   1 H                                       1.0928282
  3591   6 C     3705   1 H                                       1.0897951
  3592   6 C     3706   1 H                                       1.0951839
  3599   6 C     3707   1 H                                       1.0913807
  3599   6 C     3708   1 H                                       1.0934732
  3600   6 C     3709   1 H                                       1.0940215
  3608   6 C     3710   1 H                                       1.0962935
  3615   6 C     3711   1 H                                       1.0894084
  3615   6 C     3712   1 H                                       1.0902506
  3616   6 C     3713   1 H                                       1.0954375
  3623   6 C     3714   1 H                                       1.0928415
  3623   6 C     3715   1 H                                       1.0911764
  3624   6 C     3716   1 H                                       1.0932222
  3631   6 C     3717   1 H                                       1.0912108
  3631   6 C     3718   1 H                                       1.0933545
  3632   6 C     3719   1 H                                       1.0948610
  3639   6 C     3720   1 H                                       1.0897763
  3639   6 C     3721   1 H                                       1.0908556
  3640   6 C     3722   1 H                                       1.0948643
  3647   6 C     3723   1 H                                       1.0901981
  3647   6 C     3724   1 H                                       1.0899329
  3648   6 C     3725   1 H                                       1.0960366
  3655   6 C     3726   1 H                                       1.0927655
  3655   6 C     3727   1 H                                       1.0930684
  3656   6 C     3728   1 H                                       1.0934598
  3663   6 C     3729   1 H                                       1.0906762
  3663   6 C     3730   1 H                                       1.0923221
  3664   6 C     3731   1 H                                       1.0944415
  3671   6 C     3732   1 H                                       1.0928156
  3671   6 C     3733   1 H                                       1.0925807
  3672   6 C     3734   1 H                                       1.0956179
  3679   6 C     3735   1 H                                       1.0898206
  3679   6 C     3736   1 H                                       1.0911276
  3543   6 C     3737   1 H                                       1.0791508
  3548   6 C     3738   1 H                                       1.0813418
  3547   6 C     3739   1 H                                       1.0814944
  3546   6 C     3740   1 H                                       1.0804480
  3545   6 C     3741   1 H                                       1.0800758
  3554   6 C     3742   1 H                                       1.0775642 (min)
  3555   6 C     3743   1 H                                       1.0811636
  3556   6 C     3744   1 H                                       1.0815192
  3557   6 C     3745   1 H                                       1.0800897
  3558   6 C     3746   1 H                                       1.0804478
  3562   6 C     3747   1 H                                       1.0802776
  3563   6 C     3748   1 H                                       1.0805374
  3564   6 C     3749   1 H                                       1.0805853
  3565   6 C     3750   1 H                                       1.0800864
  3566   6 C     3751   1 H                                       1.0788612
  3570   6 C     3752   1 H                                       1.0798069
  3571   6 C     3753   1 H                                       1.0791321
  3572   6 C     3754   1 H                                       1.0806042
  3573   6 C     3755   1 H                                       1.0812375
  3574   6 C     3756   1 H                                       1.0823622
  3575   6 C     3757   1 H                                       1.0902903
  3578   6 C     3758   1 H                                       1.0803553
  3579   6 C     3759   1 H                                       1.0813416
  3580   6 C     3760   1 H                                       1.0807062
  3581   6 C     3761   1 H                                       1.0808048
  3582   6 C     3762   1 H                                       1.0806406
  3586   6 C     3763   1 H                                       1.0806499
  3587   6 C     3764   1 H                                       1.0811991
  3588   6 C     3765   1 H                                       1.0790017
  3589   6 C     3766   1 H                                       1.0807149
  3590   6 C     3767   1 H                                       1.0810329
  3594   6 C     3768   1 H                                       1.0818731
  3595   6 C     3769   1 H                                       1.0815536
  3596   6 C     3770   1 H                                       1.0797788
  3597   6 C     3771   1 H                                       1.0801898
  3598   6 C     3772   1 H                                       1.0800700
  3602   6 C     3773   1 H                                       1.0811427
  3603   6 C     3774   1 H                                       1.0817355
  3604   6 C     3775   1 H                                       1.0808079
  3605   6 C     3776   1 H                                       1.0812198
  3606   6 C     3777   1 H                                       1.0788660
  3607   6 C     3778   1 H                                       1.0898841
  3607   6 C     3779   1 H                                       1.0923201
  3610   6 C     3780   1 H                                       1.0796082
  3611   6 C     3781   1 H                                       1.0801832
  3612   6 C     3782   1 H                                       1.0809224
  3613   6 C     3783   1 H                                       1.0816087
  3614   6 C     3784   1 H                                       1.0819826
  3618   6 C     3785   1 H                                       1.0792881
  3619   6 C     3786   1 H                                       1.0805666
  3620   6 C     3787   1 H                                       1.0806520
  3621   6 C     3788   1 H                                       1.0810736
  3622   6 C     3789   1 H                                       1.0816485
  3626   6 C     3790   1 H                                       1.0809490
  3627   6 C     3791   1 H                                       1.0802039
  3628   6 C     3792   1 H                                       1.0798994
  3629   6 C     3793   1 H                                       1.0814535
  3630   6 C     3794   1 H                                       1.0806326
  3634   6 C     3795   1 H                                       1.0820068
  3635   6 C     3796   1 H                                       1.0810906
  3636   6 C     3797   1 H                                       1.0805547
  3637   6 C     3798   1 H                                       1.0801237
  3638   6 C     3799   1 H                                       1.0798500
  3642   6 C     3800   1 H                                       1.0817421
  3643   6 C     3801   1 H                                       1.0813152
  3644   6 C     3802   1 H                                       1.0807672
  3645   6 C     3803   1 H                                       1.0795808
  3646   6 C     3804   1 H                                       1.0809900
  3650   6 C     3805   1 H                                       1.0796307
  3651   6 C     3806   1 H                                       1.0802153
  3652   6 C     3807   1 H                                       1.0805207
  3653   6 C     3808   1 H                                       1.0812124
  3654   6 C     3809   1 H                                       1.0818587
  3658   6 C     3810   1 H                                       1.0807749
  3659   6 C     3811   1 H                                       1.0803511
  3660   6 C     3812   1 H                                       1.0807400
  3661   6 C     3813   1 H                                       1.0808307
  3662   6 C     3814   1 H                                       1.0799673
  3666   6 C     3815   1 H                                       1.0803395
  3667   6 C     3816   1 H                                       1.0803257
  3668   6 C     3817   1 H                                       1.0797941
  3669   6 C     3818   1 H                                       1.0812858
  3670   6 C     3819   1 H                                       1.0805364
  3674   6 C     3820   1 H                                       1.0816208
  3675   6 C     3821   1 H                                       1.0813888
  3676   6 C     3822   1 H                                       1.0807060
  3677   6 C     3823   1 H                                       1.0806039
  3678   6 C     3824   1 H                                       1.0802162
  3686   6 C     3825   1 H                                       1.0801671
  3685   6 C     3826   1 H                                       1.0808895
  3684   6 C     3827   1 H                                       1.0809516
  3683   6 C     3828   1 H                                       1.0795271
  3682   6 C     3829   1 H                                       1.0801695
  3550   6 C     3830   1 H                                       1.0883190
  3550   6 C     3831   1 H                                       1.0885359
  3550   6 C     3832   1 H                                       1.0883659
  3680   6 C     3833   1 H                                       1.0966895
  3687   6 C     3834   1 H                                       1.0899332
  3687   6 C     3835   1 H                                       1.0918440
  3688   6 C     3836   6 C                                       1.5347281
  3837   6 C     3838   6 C                                       1.3902424
  3838   6 C     3839   6 C                                       1.3829306
  3839   6 C     3840   6 C                                       1.3846564
  3840   6 C     3841   6 C                                       1.3849436
  3837   6 C     3842   6 C                                       1.3878701
  3841   6 C     3842   6 C                                       1.3834516
  3838   6 C     3843   1 H                                       1.0804009
  3839   6 C     3844   1 H                                       1.0819057
  3840   6 C     3845   1 H                                       1.0812400
  3841   6 C     3846   1 H                                       1.0813308
  3842   6 C     3847   1 H                                       1.0803323
  3836   6 C     3848   6 C                                       1.5268289
  3836   6 C     3849   1 H                                       1.0913969
  3836   6 C     3850   1 H                                       1.0915777
  3851   6 C     3852   6 C                                       1.3920687
  3852   6 C     3853   6 C                                       1.3822372
  3853   6 C     3854   6 C                                       1.3853449
  3854   6 C     3855   6 C                                       1.3833075
  3851   6 C     3856   6 C                                       1.3889363
  3855   6 C     3856   6 C                                       1.3850624
  3852   6 C     3857   1 H                                       1.0813559
  3853   6 C     3858   1 H                                       1.0810644
  3854   6 C     3859   1 H                                       1.0805323
  3855   6 C     3860   1 H                                       1.0810828
  3856   6 C     3861   1 H                                       1.0792625
  3688   6 C     3862   1 H                                       1.0965552
  3848   6 C     3863   1 H                                       1.0937859
  3848   6 C     3864   1 H                                       1.0948308

 * 2 distinct bonds (by element types)

   Z      Z             #   av. dist./Å        max./Å        min./Å
   1 H    6 C        1944     1.0852422     1.0984184     1.0775642
   6 C    6 C        1862     1.4196921     1.5407118     1.3808078


optimized geometry written to: xtbopt.xyz


           -------------------------------------------------
          | TOTAL ENERGY            -5104.215607405232 Eh   |
          | GRADIENT NORM               0.000747884433 Eh/α |
          | HOMO-LUMO GAP               3.842823927207 eV   |
           -------------------------------------------------

------------------------------------------------------------------------
 * finished run on 2024/07/15 at 09:28:23.740     
------------------------------------------------------------------------
 total:
 * wall-time:     8 d,  2 h, 40 min, 24.276 sec
 *  cpu-time:    52 d, 15 h, 43 min, 36.772 sec
 * ratio c/w:     6.492 speedup
 SCF:
 * wall-time:     0 d,  0 h, 16 min, 20.566 sec
 *  cpu-time:     0 d,  1 h, 44 min, 10.200 sec
 * ratio c/w:     6.374 speedup
 ANC optimizer:
 * wall-time:     8 d,  2 h, 22 min, 52.895 sec
 *  cpu-time:    52 d, 13 h, 57 min, 54.072 sec
 * ratio c/w:     6.492 speedup

