3536
 energy: -3716.259488390612 gnorm: 0.000953062086 xtb: 6.6.1 (8d0f1dd)
C           54.54477741353186       50.41910347202928       65.55761495481543
C           53.30128668438231       49.71309001867495       66.09118123236539
C           53.45327495785749       48.20420818381976       65.91224532301635
C           52.02655577676774       50.18912264406249       65.38435027122689
C           51.70563676993911       51.68265392072743       65.52532556044629
C           51.66545343741222       52.09602303052999       66.99368934147488
C           50.36027477665119       51.98622699845987       64.85002667423407
C           50.14754256987926       53.47093716658863       64.52370742259954
C           48.65865411122971       53.76390304015738       64.34760283406843
C           50.92295540517141       53.87068724564044       63.26113299178833
C           51.34968412104425       55.34474186175446       63.20386941942895
C           51.77733967307878       55.68503028234537       61.77723637893913
C           52.46939420150674       55.60538446330083       64.22216027817267
C           53.19573029439128       56.95417885426163       64.13130518671767
C           54.30694378685007       56.97811216846932       65.18163882572991
C           52.22672001636519       58.12642640099849       64.31790957434062
C           52.80694940848662       59.51083198757200       63.99612748590511
C           51.87423205474870       60.58517316631782       64.54937799028619
C           53.00619261366401       59.69699769739871       62.48780417373433
C           53.91978972587372       60.86164459479507       62.07980941255298
C           53.98407621039081       60.92425926477112       60.55339003633519
C           55.33102994491489       60.70972298737487       62.67535232648368
C           55.59625976328389       61.59424523767335       63.90616167017190
C           55.98874100868593       62.99875760682076       63.45453778734479
C           56.68273922914098       60.96608616356818       64.78560356722872
C           56.91655964780337       61.65737282994179       66.13452409683035
C           58.12813487641255       61.02374195561413       66.81856535145464
C           55.68059930825574       61.58894823375547       67.05242760245093
C           54.93917377004513       62.92448652796137       67.21178215998583
C           55.78249651296310       63.90609047247676       68.02319736664973
C           53.58399153189004       62.69524589825905       67.89106383011591
C           52.61158424479574       63.88328840322369       67.86047696764960
C           51.44993137803839       63.58859726490451       68.81232346307881
C           52.07941968734493       64.16384820638719       66.44236030467965
C           52.78851407411415       65.31536164322360       65.71235887430909
C           52.18343185203982       66.66074857084342       66.10905645240082
C           52.85609574963896       65.13673229275049       64.18270353004341
C           51.60306296189984       65.42084160438971       63.34471716779472
C           50.47441514960014       64.42818514658747       63.61568764972186
C           51.94014412783562       65.35462114792597       61.84545667181099
C           52.88345774473473       66.42776183177637       61.29006146652912
C           52.36013142534829       67.83526277071995       61.57997212999098
C           53.03963332448100       66.26634749293181       59.76992549153616
C           53.65598582283399       64.95043128075703       59.28135346778298
C           55.03578532895251       64.72635272047461       59.89884473557495
C           53.81754765505727       64.95623121420240       57.75452900021115
C           52.55658405048924       65.20838365554773       56.92180633969659
C           51.45509820282070       64.20297610019135       57.25695448997769
C           52.86529226947759       65.11877063770619       55.41778992527999
C           54.03780271171842       65.96975843549185       54.92034230439050
C           53.83063521749336       67.44772027422574       55.24890987456848
C           54.24289522670051       65.83524803754420       53.40512200751682
C           54.44060277323315       64.42050446023525       52.84774240109314
C           55.47708426391236       63.62499900420133       53.63470454530514
C           54.86932001747301       64.50766877345227       51.37198327598351
C           54.35157357339654       63.34245268121784       50.51934846436533
C           55.15214590412191       63.25010935291972       49.22207782633253
C           52.84463065169300       63.50716101135388       50.23955842774257
C           51.97155521976084       62.35029596849083       50.74052538223248
C           52.01664569307076       61.17789738935617       49.76246068513394
C           50.52224536658886       62.81017992201316       50.95174635583263
C           50.29160719131752       63.69040276508011       52.19104835427109
C           50.51202557784710       62.88897782821658       53.46819804178733
C           48.86558114383036       64.25704619523670       52.13166802032256
C           48.42676059045869       65.17368761636911       53.28484068027910
C           46.94374867891000       65.50380653496859       53.11816301984693
C           49.28051486876362       66.44545476149847       53.31634476354530
C           48.90193277662812       67.51646318303777       54.34961999886136
C           49.82588828415451       68.71779053041763       54.14652286230216
C           48.98406057341862       66.98137388450768       55.78402539153587
C           48.54348769629866       67.99079275813163       56.86128471202801
C           49.74952075675905       68.46954181283196       57.67180101339905
C           47.49911537665616       67.41677678493879       57.83027536124891
C           46.13608024868003       67.04555768537082       57.23128709357670
C           45.49742179078945       68.22653643874661       56.50354159884128
C           45.18033937698250       66.57148735452887       58.33754535792956
C           45.44676601203972       65.16518895397809       58.88818856183906
C           44.92926800067425       64.10982142021615       57.91332913760315
C           44.76203479164121       64.97440248272416       60.24960157907496
C           45.45783990524049       65.66829875370941       61.42614486395421
C           46.72193581903169       64.90845909571065       61.82924376517447
C           44.53506587302319       65.76496138880218       62.65060766434038
C           43.26964695058965       66.61540544773580       62.48747892875470
C           43.59616441626423       68.03830510076293       62.03375181079686
C           42.48118247121822       66.69206539788486       63.80318895209014
C           42.01980436853171       65.35839480522309       64.40656825613813
C           41.21373252984117       64.53568006251298       63.40540288506189
C           41.19975929237485       65.64559574472965       65.67217714971605
C           40.98592243522543       64.42237047007163       66.56142546176791
C           40.24823230901171       64.78446155516367       67.84506302155441
H           55.44080193956931       50.00860352818875       66.02059763709447
H           54.62511452751615       50.27752468124017       64.48131133701870
H           54.51441304143993       51.48517163265767       65.76626694191388
H           40.81356535202503       65.51702787450465       68.41766629314650
H           39.27234243977588       65.20893436663995       67.61832756071223
H           40.10264966898857       63.90314912319806       68.46589845839426
H           41.71845465293512       66.40755652440320       66.26070680013433
H           40.22935544903632       66.05951662449867       65.38624316036477
H           43.09656459827093       67.21121938112167       64.54409261579207
H           41.59401156817179       67.30894635670886       63.63114542903696
H           42.62199958036668       66.16310201979476       61.73325803346349
H           43.98994597679745       68.04599759266587       61.02124744115186
H           42.69820607407719       68.65342597138662       62.04780451223105
H           44.33018134710690       68.49431923438024       62.69572075306507
H           44.24255177986786       64.74942109874989       62.92444002807454
H           45.11379115690758       66.17614964843661       63.48302954361400
H           43.73985730605271       65.34434255555480       60.15934996803868
H           44.70166529686188       63.90698855417486       60.47271877374766
H           42.90068032612306       64.78268376789417       64.70642495546076
H           40.83374380679524       63.63131279262394       63.87273502069112
H           40.36964268234933       65.11360249983697       63.03382863876369
H           41.82848877439731       64.24009557302716       62.55982734829333
H           45.75871802730889       66.67685455129825       61.12944219422219
H           47.23273024920861       65.42203369301336       62.64149465050694
H           46.47182844776626       63.90409800090242       62.16541600348280
H           47.41300497289964       64.82737214749793       60.99397117646627
H           46.52441847263727       65.02274587996386       59.00883869306825
H           43.85029997274390       64.19386003768115       57.80002478706454
H           45.38529845077862       64.22948596277561       56.93346717202769
H           45.15303386815631       63.10965683341370       58.27664686464818
H           45.22713673065049       67.29912473962642       59.15073185864696
H           44.15747608946433       66.59094496019107       57.95203974197403
H           46.26974862427245       66.23494426347555       56.50797435656280
H           44.51081781803604       67.95026197242208       56.13878246402389
H           45.38782580474893       69.07699023884186       57.17398116935063
H           46.09383120353199       68.53510889143597       55.65012985535964
H           47.92805850951160       66.53368052531650       58.31014301328042
H           47.32939747645432       68.16059093807593       58.61517483758477
H           48.10516989615125       68.86622398975035       56.37416302923634
H           50.51848913344565       68.87505955243853       57.01963420645121
H           49.45946959305206       69.24613273481255       58.37819894698783
H           50.17866709773698       67.64311903209202       58.23574880864746
H           48.36214759996064       66.08965789356768       55.85667560827614
H           50.01283050456914       66.67389528508998       55.97938565795739
H           47.87663169597426       67.84721774249086       54.15683089425223
H           49.76471585650725       69.07377665151418       53.11971448493387
H           49.56384446826151       69.54174248077875       54.80525272514972
H           50.85915510814691       68.44016515893075       54.34564990407991
H           50.32072704913953       66.16343329775903       53.49606958833208
H           49.23146378673599       66.90680981901531       52.32598285286950
H           48.54545194627386       64.62958591831656       54.22528808949979
H           46.55990460267849       66.03827341293089       53.98369472602194
H           46.78706408113393       66.12069273628148       52.23537178272232
H           46.36481856487715       64.58993870003398       53.00456295578348
H           48.76004596811679       64.81735877783596       51.19798246966494
H           48.17213802645308       63.41306174684129       52.08856011671524
H           51.00269333554884       64.52172398226925       52.16857293881460
H           50.39202463712692       63.51435822934357       54.34739964277169
H           49.79957075232932       62.07155580496472       53.51646544677803
H           51.51321519946863       62.46955199003170       53.50243994523367
H           50.20540652245955       63.35703723296528       50.05984347528882
H           49.88016482763386       61.92941865684409       51.03746031484031
H           52.37156246518581       61.99818365891264       51.69649330493491
H           53.04224246434774       60.85483525073654       49.59902243082215
H           51.45267920670458       60.32928684974448       50.14443740145381
H           51.58787175896845       61.46465089081800       48.80400051815658
H           52.50189160442825       64.42796889640583       50.71045030445199
H           52.68210898821497       63.62636331944459       49.16583150826956
H           54.51208953902085       62.41215681749192       51.07669905312903
H           54.78642435064177       62.43836134007283       48.59766347138906
H           55.07510748287871       64.17796727833742       48.65983550043408
H           56.20440899946422       63.06548068347202       49.43043009337779
H           54.50865516442034       65.44091754340600       50.93267578565248
H           55.96058142676802       64.53623461917665       51.32732441649772
H           53.48288852902012       63.89537677163020       52.90042515880888
H           55.66205932079507       62.66947262129590       53.14805664168313
H           56.41674176767035       64.17168616364815       53.67831250452839
H           55.14656329088153       63.42479798648078       54.65029998619178
H           53.37946054489083       66.27420775466440       52.89817803714163
H           55.11685891208046       66.43591003476411       53.13326166434547
H           54.95436941652244       65.63612379329754       55.41322752511800
H           54.64837222467465       68.04533060525195       54.84986619069549
H           52.90151016758784       67.80714199681964       54.80851138735829
H           53.78454473128519       67.61313388304360       56.32196427966934
H           53.06405027057772       64.07270150129709       55.18106024523409
H           51.96872723797579       65.41251646233188       54.86544886284286
H           52.18247514332624       66.21368588286163       57.13852459335673
H           50.58983549774584       64.35772186638982       56.61572761125314
H           51.81212541959769       63.18583872318206       57.10844548159781
H           51.12747514950888       64.30548947426166       58.28816115461469
H           54.55147773151884       65.72765377029484       57.51775927948864
H           54.23878873212750       63.99270357024260       57.45266208943662
H           53.00864073696852       64.11616733044275       59.56513253873744
H           54.96599048942207       64.55432012399137       60.96897156892619
H           55.51964325209612       63.86201429750361       59.44808082203283
H           55.67170645407902       65.59238456626207       59.73118172669351
H           52.04898848754302       66.38232644742060       59.32571981874154
H           53.66094792620306       67.08588146459826       59.39846041868677
H           53.86813424028774       66.33181657754956       61.75665087040021
H           52.97802753538945       68.57973446980719       61.08124625335076
H           51.33922222799205       67.94572570425869       61.21907880124648
H           52.37537246927283       68.05164680707988       62.64521003334383
H           52.36833707553981       64.37039382844382       61.64422296892111
H           51.00168542221449       65.42237767548689       61.28773350679496
H           51.23543201333294       66.42347138569370       63.57632008681294
H           50.81826006786896       63.40742278674144       63.46750125848839
H           50.09967502890979       64.52073177937955       64.62854143036147
H           49.64463448906364       64.60720397795568       62.93463245234771
H           53.64268000698839       65.80660929992915       63.82701007121182
H           53.18657066599359       64.11591892794783       63.97488320532420
H           53.83238626304950       65.32369501340088       66.04745042968008
H           52.27150331655132       66.81152625807134       67.18334226586596
H           52.69982353987815       67.47802361921774       65.60867837527651
H           51.12834104612731       66.70748062724779       65.85000021202694
H           52.16433107625836       63.25224978406944       65.85236462286086
H           51.01783736053292       64.39925517543449       66.51657965348845
H           53.12366064554254       64.77493819711798       68.23535744707191
H           50.91191669985164       62.69930808923746       68.49022160026857
H           51.81288518728404       63.41997950278943       69.82481248042076
H           50.75001394302418       64.42122278626974       68.83850501213399
H           53.08787626108738       61.84336379827015       67.41869361367080
H           53.76980248949724       62.42372015258902       68.93471696471605
H           54.76468634957142       63.34094608970094       66.21705941303667
H           55.31049048406589       64.88466198817578       68.07314029949121
H           55.91275479353273       63.53922163220755       69.04020934895701
H           56.76635323837569       64.03531214406716       67.58128599790825
H           54.98579244028763       60.84275498316899       66.66236610405890
H           55.98086119600294       61.24844536745086       68.04630118057871
H           57.15819095461079       62.70546560370762       65.94036802985055
H           57.93834349044554       59.97346415113599       67.03194038328117
H           59.00906943449669       61.08567001179355       66.18172651441672
H           58.34774197533483       61.53342483487301       67.75489671167513
H           56.42349037744771       59.92187765856662       64.98146410598882
H           57.62239269272465       60.96653231981081       64.22603268937559
H           54.67723201526875       61.66713978132372       64.49376593690742
H           55.25847159211578       63.38013989638331       62.74514035418004
H           56.03511807648238       63.69298414786743       64.29001550203191
H           56.96191712311497       62.98502323119300       62.96755745516724
H           55.48389894678948       59.66164868609052       62.93641704975794
H           56.07629745777012       60.95630751987485       61.91637703152076
H           53.48104066034262       61.80173076678801       62.43184459330762
H           52.98653512700577       61.01917984035906       60.12865417558790
H           54.57429136864373       61.77783184146606       60.22880507123822
H           54.43807764460112       60.01802664466776       60.15629285941938
H           53.43703775549710       58.78635403191901       62.06686351700294
H           52.02578487249232       59.83620286379398       62.02344218854036
H           53.77221585626874       59.60785070487315       64.49630912830715
H           51.82101948084401       60.52700978059064       65.63517834104022
H           52.22483808292795       61.57905651183580       64.28273075369208
H           50.86898675440677       60.46044031414731       64.15113428763563
H           51.34814188463452       57.97549720552286       63.68899466301712
H           51.88476343072512       58.12195846460836       65.35656364279522
H           53.67139221990244       57.02753863896430       63.14934650078715
H           53.89170552000461       56.89514971773097       66.18476218126737
H           54.99258667635262       56.14635183050069       65.02941241068561
H           54.88281573436343       57.89848108004504       65.12676707538783
H           52.05521325486718       55.51377830206442       65.22943543632843
H           53.21845806511890       54.81579893994250       64.11281367375494
H           50.48385043529865       55.96502362491196       63.45900808094523
H           52.65842950638425       55.11298217634913       61.49449057701421
H           50.97718746540354       55.44026925945144       61.08214613157345
H           51.99621930730573       56.74303644407290       61.66809233888712
H           51.81953319712206       53.25431104528102       63.16664285945283
H           50.29291186234554       53.65313076157861       62.39685671651364
H           50.50557794707342       54.06603102867771       65.36786553363841
H           48.23042189877735       53.12299527373541       63.57906001449658
H           48.11930962709469       53.58948326293740       65.27603034465470
H           48.50413644550405       54.80049828651425       64.05731239545992
H           50.28396301087762       51.41554667638488       63.92083802760018
H           49.55960740357272       51.64236892511332       65.50844572468574
H           52.48537812903785       52.26102935389487       65.02077513311589
H           52.65929075599121       52.09867792019137       67.43316238455427
H           51.25242862149973       53.09598291415067       67.10085437557431
H           51.04181834345114       51.40542809270791       67.55781104338050
H           52.11229381865077       49.94880750984056       64.32051959746750
H           51.18148004719335       49.61719888355223       65.77937325464974
H           53.21179636875349       49.91971912841688       67.16276478327703
H           53.58022041255313       47.96260476093929       64.85965441205938
H           54.32513463266019       47.83728266362404       66.44846343586590
H           52.57766523006310       47.67551500502862       66.28316927242280
H           40.41195249088746       63.66519483238144       66.02480658238763
H           41.95607392563206       63.98930658105440       66.81297241621685
C           40.40349335034146       45.06127663217973       44.60790085821021
C           41.62574746777155       44.21489346670791       44.95468240573324
C           41.88494616857558       43.19391484483533       43.84727489511333
C           41.45190868673031       43.48476514298375       46.29090403843578
C           41.22399225176311       44.38111213410535       47.51298872855638
C           42.31841309471167       45.43945490517037       47.64849870996137
C           41.19818691994249       43.55253906193078       48.80461257417116
C           40.17662195929717       42.41161445886785       48.87326095468986
C           38.76249225796126       42.90917104244608       48.57184590999831
C           40.19214446059734       41.77078990717430       50.26911652766827
C           41.47083097940749       41.01124051878920       50.65159252936423
C           41.55438538083504       39.68843984143903       49.89267668026810
C           41.47969535392971       40.77821119833990       52.16950285027704
C           42.80235898886546       40.26850981968495       52.76798487975483
C           42.50191491749043       39.29068901031707       53.90574675082524
C           43.68474980162755       41.39963355759834       53.31643436529792
C           44.34660721462057       42.32750715629908       52.28738103567064
C           45.23790915704566       41.51885627317020       51.34599550959084
C           45.16207267137473       43.40756524008245       53.02534875771809
C           45.12487125286169       44.80235746169894       52.38232645851810
C           45.81283673420803       44.82922257928734       51.02106162911603
C           45.75339544729031       45.81387731960080       53.35373274059128
C           45.67195901966912       47.29109489809908       52.94373404600391
C           46.50084233186995       48.13059187062071       53.91517676404853
C           44.22360738698755       47.79442588243500       52.90318983492658
C           43.98826182938823       48.99385554996088       51.97435713689066
C           42.64279077697847       49.63508431657851       52.30662063056543
C           44.04331033593319       48.54889984414676       50.50762389194836
C           43.84207158601377       49.63867920234653       49.44381810033651
C           43.98362214228656       48.99953945327117       48.06364722088168
C           44.85177050436465       50.77229982028825       49.63452875967190
C           44.79656318045352       51.94274643187764       48.64361930801878
C           45.92590654538292       52.90503180360003       49.00818618440604
C           43.43752496069646       52.65027692082951       48.69871434253858
C           43.26768183675171       53.83411601361884       47.72847754432333
C           42.66843636101081       55.03047710807733       48.46610089859129
C           42.37622943486138       53.49677150840667       46.52754419497994
C           42.91112233083961       52.41891501653770       45.57973686546286
C           44.23208329680122       52.84978594548666       44.94468636193422
C           41.90802704062409       52.13154985711780       44.45237995908656
C           40.58507376541522       51.47123581829426       44.86090719088138
C           40.81100591128288       50.03131595498119       45.31436828038309
C           39.60878678581006       51.52266328811760       43.67595466699527
C           38.13008444419765       51.30883623413568       44.03386578343275
C           37.34857706201632       50.98959335470502       42.75959024058884
C           37.55537504504896       52.54753345306525       44.73186306796340
C           36.19850788030345       52.34151758810432       45.41785481134475
C           35.67250097179250       53.69027484901121       45.90956233096905
C           36.28306930666445       51.32658537766855       46.57525156853638
C           35.45665377726490       50.05832473951478       46.32646829358242
C           33.96842038945474       50.35698652250051       46.50943740721468
C           35.86505216678096       48.91409967993607       47.26429991364098
C           37.18881422486142       48.22242196327083       46.91632391307187
C           37.05767430897617       47.39997541590512       45.63457329864114
C           37.63873700698868       47.30312035388112       48.06176121773103
C           38.23314888864412       48.02409561210144       49.27609391074366
C           39.62601538838132       48.57159392452773       48.95949100877819
C           38.34456738398364       47.08496042362014       50.48401053346438
C           37.04004896273501       46.53966140684938       51.08546973341283
C           36.01015400723989       47.64519829444718       51.30965255721498
C           37.33486303139041       45.84513153770838       52.42561312836182
C           38.02400680337824       44.48134522090948       52.29492289369752
C           36.98610043060005       43.38935470228487       52.03299361591326
C           38.83075971488289       44.11559764712622       53.54753877232200
C           40.04254148715730       45.00254032851770       53.86204722947520
C           40.99241785335639       45.12790167212824       52.67256733359117
C           40.83593167645289       44.43048494309721       55.04465240086162
C           40.11042106564380       44.36060768451158       56.39136946718733
C           39.61844913130559       45.74056475888776       56.83032979513601
C           41.04544204378442       43.80853101440966       57.47733493445131
C           41.64679468544649       42.42083887284954       57.22437775639198
C           40.55795004743843       41.38123068508073       56.95984836237857
C           42.48445273118224       41.96528268681334       58.42827092059142
C           43.71420943999191       42.81845453337418       58.75938674424011
C           44.75282489169243       42.74583669209086       57.64082900428689
C           44.36197433788450       42.35774716632571       60.07291817527022
C           43.51667836091397       42.52430620186591       61.34264822368638
C           43.11001681268500       43.97955253326491       61.56509036723195
C           44.30626057274378       42.01067460762171       62.55607861661764
C           43.42478682321460       41.55043968534183       63.72614628102229
C           44.22872352197700       41.58188520430212       65.02492802113709
C           42.88474758704065       40.14269392383195       63.44326611677105
C           41.72514136713750       39.68208222612979       64.33769523342782
C           41.56565628349804       38.16625220341776       64.22036547818782
C           40.42572636189541       40.39930434297653       63.95380016529728
C           39.25058429311429       40.20627050436458       64.92069337704795
C           38.02837461780587       40.95771013511982       64.39013953383414
C           39.56533029218243       40.61851408119897       66.36715064733060
C           40.11832792907693       42.03210341718768       66.53415849447534
C           40.30916551710808       42.38412403323188       68.00454168468715
H           40.27563198826306       45.87187692725410       45.32052973071572
H           40.51178781960800       45.50007440046600       43.61814844893894
H           39.50273367491174       44.44977186005114       44.61242098642167
H           40.99549613752625       41.68628113078546       68.48066445562411
H           40.71731403447792       43.38723995661732       68.10622686702987
H           39.36052402912623       42.34310321895214       68.53668886501281
H           38.64444435059478       40.53203215658581       66.95135298244873
H           40.27753785200117       39.90864466881461       66.79514307256579
H           40.61839045225711       41.46850057775291       63.85785927536885
H           40.11647018875182       40.03935912212589       62.96909507813550
H           41.97463375876089       39.91605205733997       65.37545751133003
H           41.30920964135615       37.88844960060164       63.19976123110106
H           42.49202732966616       37.66210369385731       64.48880651340659
H           40.78255174220730       37.80141630035191       64.88017893628223
H           42.55250202302082       40.09100110601655       62.40406768658133
H           43.71379554139961       39.43847017743827       63.55498131483967
H           44.93415737237744       41.16822513035287       62.25727291708310
H           44.97320844986705       42.80501297335535       62.89663917506190
H           38.98995264290537       39.14132671105732       64.94388495666645
H           38.23334306305787       42.02229832344030       64.30594508670357
H           37.75224318779043       40.58684389569643       63.40478054435363