      -----------------------------------------------------------      
     |                   =====================                   |     
     |                           x T B                           |     
     |                   =====================                   |     
     |                         S. Grimme                         |     
     |          Mulliken Center for Theoretical Chemistry        |     
     |                    University of Bonn                     |     
      -----------------------------------------------------------      

   * xtb version 6.6.1 (8d0f1dd) compiled by 'stahn@M-Bot' on 2023-08-01

   xtb is free software: you can redistribute it and/or modify it under
   the terms of the GNU Lesser General Public License as published by
   the Free Software Foundation, either version 3 of the License, or
   (at your option) any later version.
   
   xtb is distributed in the hope that it will be useful,
   but WITHOUT ANY WARRANTY; without even the implied warranty of
   MERCHANTABILITY or FITNESS FOR A PARTICULAR PURPOSE.  See the
   GNU Lesser General Public License for more details.
   
   Cite this work as:
   * C. Bannwarth, E. Caldeweyher, S. Ehlert, A. Hansen, P. Pracht,
     J. Seibert, S. Spicher, S. Grimme, WIREs Comput. Mol. Sci., 2020, 11,
     e01493. DOI: 10.1002/wcms.1493
   
   for GFN2-xTB:
   * C. Bannwarth, S. Ehlert and S. Grimme., J. Chem. Theory Comput., 2019,
     15, 1652-1671. DOI: 10.1021/acs.jctc.8b01176
   for GFN1-xTB:
   * S. Grimme, C. Bannwarth, P. Shushkov, J. Chem. Theory Comput., 2017,
     13, 1989-2009. DOI: 10.1021/acs.jctc.7b00118
   for GFN0-xTB:
   * P. Pracht, E. Caldeweyher, S. Ehlert, S. Grimme, ChemRxiv, 2019, preprint.
     DOI: 10.26434/chemrxiv.8326202.v1
   for GFN-FF:
   * S. Spicher and S. Grimme, Angew. Chem. Int. Ed., 2020, 59, 15665-15673.
     DOI: 10.1002/anie.202004239
   
   for ALPB and GBSA implicit solvation:
   * S. Ehlert, M. Stahn, S. Spicher, S. Grimme, J. Chem. Theory Comput.,
     2021, 17, 4250-4261. DOI: 10.1021/acs.jctc.1c00471
   
   for DFT-D4:
   * E. Caldeweyher, C. Bannwarth and S. Grimme, J. Chem. Phys., 2017,
     147, 034112. DOI: 10.1063/1.4993215
   * E. Caldeweyher, S. Ehlert, A. Hansen, H. Neugebauer, S. Spicher,
     C. Bannwarth and S. Grimme, J. Chem. Phys., 2019, 150, 154122.
     DOI: 10.1063/1.5090222
   * E. Caldeweyher, J.-M. Mewes, S. Ehlert and S. Grimme, Phys. Chem. Chem. Phys.
     2020, 22, 8499-8512. DOI: 10.1039/D0CP00502A
   
   for sTDA-xTB:
   * S. Grimme and C. Bannwarth, J. Chem. Phys., 2016, 145, 054103.
     DOI: 10.1063/1.4959605
   
   in the mass-spec context:
   * V. Asgeirsson, C. Bauer and S. Grimme, Chem. Sci., 2017, 8, 4879.
     DOI: 10.1039/c7sc00601b
   * J. Koopman and S. Grimme, ACS Omega 2019, 4, 12, 15120-15133.
     DOI: 10.1021/acsomega.9b02011
   
   for metadynamics refer to:
   * S. Grimme, J. Chem. Theory Comput., 2019, 155, 2847-2862
     DOI: 10.1021/acs.jctc.9b00143
   
   for SPH calculations refer to:
   * S. Spicher and S. Grimme, J. Chem. Theory Comput., 2021, 17, 1701-1714
     DOI: 10.1021/acs.jctc.0c01306
   
   with help from (in alphabetical order)
   P. Atkinson, C. Bannwarth, F. Bohle, G. Brandenburg, E. Caldeweyher
   M. Checinski, S. Dohm, S. Ehlert, S. Ehrlich, I. Gerasimov, C. Hölzer
   A. Katbashev, J. Koopman, C. Lavigne, S. Lehtola, F. März, M. Müller,
   F. Musil, H. Neugebauer, J. Pisarek, C. Plett, P. Pracht, F. Pultar,
   J. Seibert, P. Shushkov, S. Spicher, M. Stahn, M. Steiner, T. Strunk,
   J. Stückrath, T. Rose, and J. Unsleber
   
 * started run on 2024/10/03 at 21:22:50.648     

           -------------------------------------------------
          |                Calculation Setup                |
           -------------------------------------------------

          program call               : /home/abt-grimme/AK-bin/xtb input.xyz --input input.inp --opt
          hostname                   : boar049.thch.uni-bonn.de
          coordinate file            : input.xyz
          omp threads                :                     8

   ID    Z sym.   atoms
    1    6 C      1-120, 363-482, 725-844, 1087-1206, 1449-1568, 1811-1930,
                  2173-2292, 2535-2654, 2897-3016
    2    1 H      121-362, 483-724, 845-1086, 1207-1448, 1569-1810,
                  1931-2172, 2293-2534, 2655-2896, 3017-3258

molecular fragmentation (1/2 indicates fragments):
111111111111111111111111111111111111111111111111111111111111111111111111
111111111111111111111111111111111111111111111111111111111111111111111111
111111111111111111111111111111111111111111111111111111111111111111111111
111111111111111111111111111111111111111111111111111111111111111111111111
111111111111111111111111111111111111111111111111111111111111111111111111
112222222222222222222222222222222222222222222222222222222222222222222222
222222222222222222222222222222222222222222222222222222222222222222222222
222222222222222222222222222222222222222222222222222222222222222222222222
222222222222222222222222222222222222222222222222222222222222222222222222
222222222222222222222222222222222222222222222222222222222222222222222222
222222222222222222222222222222222222222222222222222222222222222222222222
222222222222222222222222222222222222222222222222222222222222222222222222
222222222222222222222222222222222222222222222222222222222222222222222222
222222222222222222222222222222222222222222222222222222222222222222222222
222222222222222222222222222222222222222222222222222222222222222222222222
222222222222222222222222222222222222222222222222222222222222222222222222
222222222222222222222222222222222222222222222222222222222222222222222222
222222222222222222222222222222222222222222222222222222222222222222222222
222222222222222222222222222222222222222222222222222222222222222222222222
222222222222222222222222222222222222222222222222222222222222222222222222
222222222222222222222222222222222222222222222222222222222222222222222222
222222222222222222222222222222222222222222222222222222222222222222222222
222222222222222222222222222222222222222222222222222222222222222222222222
222222222222222222222222222222222222222222222222222222222222222222222222
222222222222222222222222222222222222222222222222222222222222222222222222
222222222222222222222222222222222222222222222222222222222222222222222222
222222222222222222222222222222222222222222222222222222222222222222222222
222222222222222222222222222222222222222222222222222222222222222222222222
222222222222222222222222222222222222222222222222222222222222222222222222
222222222222222222222222222222222222222222222222222222222222222222222222
222222222222222222222222222222222222222222222222222222222222222222222222
222222222222222222222222222222222222222222222222222222222222222222222222
222222222222222222222222222222222222222222222222222222222222222222222222
222222222222222222222222222222222222222222222222222222222222222222222222
222222222222222222222222222222222222222222222222222222222222222222222222
222222222222222222222222222222222222222222222222222222222222222222222222
222222222222222222222222222222222222222222222222222222222222222222222222
222222222222222222222222222222222222222222222222222222222222222222222222
222222222222222222222222222222222222222222222222222222222222222222222222
222222222222222222222222222222222222222222222222222222222222222222222222
222222222222222222222222222222222222222222222222222222222222222222222222
222222222222222222222222222222222222222222222222222222222222222222222222
222222222222222222222222222222222222222222222222222222222222222222222222
222222222222222222222222222222222222222222222222222222222222222222222222
222222222222222222222222222222222222222222222222222222222222222222222222
222222222222222222
# atoms in fragment 1/2:   362  2896
 fragment masses (1/2) :     1685.21    13481.68
CMA distance (Bohr)    :  12.110
constraining FC (au)   :  0.0500

           -------------------------------------------------
          |                 G F N 2 - x T B                 |
           -------------------------------------------------

        Reference                      10.1021/acs.jctc.8b01176
      * Hamiltonian:
        H0-scaling (s, p, d)           1.850000    2.230000    2.230000
        zeta-weighting                 0.500000
      * Dispersion:
        s8                             2.700000
        a1                             0.520000
        a2                             5.000000
        s9                             5.000000
      * Repulsion:
        kExp                           1.500000    1.000000
        rExp                           1.000000
      * Coulomb:
        alpha                          2.000000
        third order                    shell-resolved
        anisotropic                    true
        a3                             3.000000
        a5                             4.000000
        cn-shift                       1.200000
        cn-exp                         4.000000
        max-rad                        5.000000


          ...................................................
          :                      SETUP                      :
          :.................................................:
          :  # basis functions                6498          :
          :  # atomic orbitals                6498          :
          :  # shells                         4338          :
          :  # electrons                      6498          :
          :  max. iterations                   250          :
          :  Hamiltonian                  GFN2-xTB          :
          :  restarted?                      false          :
          :  GBSA solvation                  false          :
          :  PC potential                    false          :
          :  electronic temp.          300.0000000     K    :
          :  accuracy                    1.0000000          :
          :  -> integral cutoff          0.2500000E+02      :
          :  -> integral neglect         0.1000000E-07      :
          :  -> SCF convergence          0.1000000E-05 Eh   :
          :  -> wf. convergence          0.1000000E-03 e    :
          :  Broyden damping             0.4000000          :
          ...................................................

 iter      E             dE          RMSdq      gap      omega  full diag
   1  -3473.4900938 -0.347349E+04  0.243E+00   11.36       0.0  T
   2  -3478.5877337 -0.509764E+01  0.134E+00   11.49       1.0  T
   3  -3478.7930539 -0.205320E+00  0.595E-01   11.46       1.0  T
   4  -3478.8135593 -0.205054E-01  0.754E-02   11.49       1.0  T
   5  -3478.8145038 -0.944587E-03  0.389E-02   11.49       1.0  T
   6  -3478.8147124 -0.208556E-03  0.650E-03   11.49       1.0  T
   7  -3478.8147288 -0.163779E-04  0.125E-03   11.49       1.4  T
   8  -3478.8147299 -0.108268E-05  0.388E-04   11.49       4.5  T
   9  -3478.8147299 -0.680438E-07  0.142E-04   11.49      12.4  T
  10  -3478.8147299 -0.386353E-08  0.411E-05   11.49      42.7  T

   *** convergence criteria satisfied after 10 iterations ***

         #    Occupation            Energy/Eh            Energy/eV
      -------------------------------------------------------------
         1        2.0000           -0.6246049             -16.9964
       ...           ...                  ...                  ...
      3243        2.0000           -0.4019000             -10.9363
      3244        2.0000           -0.4017413             -10.9319
      3245        2.0000           -0.4016161             -10.9285
      3246        2.0000           -0.4015987             -10.9281
      3247        2.0000           -0.4015691             -10.9273
      3248        2.0000           -0.4015248             -10.9260
      3249        2.0000           -0.4014066             -10.9228 (HOMO)
      3250                          0.0208765               0.5681 (LUMO)
      3251                          0.0225107               0.6125
      3252                          0.0233282               0.6348
      3253                          0.0234816               0.6390
      3254                          0.0240659               0.6549
       ...                                ...                  ...
      6498                          0.3843635              10.4591
      -------------------------------------------------------------
                  HL-Gap            0.4222831 Eh           11.4909 eV
             Fermi-level           -0.1902650 Eh           -5.1774 eV

 SCC (total)                   0 d,  0 h, 13 min, 23.994 sec
 SCC setup                      ...        0 min,  0.434 sec (  0.054%)
 Dispersion                     ...        0 min,  3.643 sec (  0.453%)
 classical contributions        ...        0 min,  0.132 sec (  0.016%)
 integral evaluation            ...        0 min,  6.097 sec (  0.758%)
 iterations                     ...        9 min, 18.176 sec ( 69.425%)
 molecular gradient             ...        3 min, 47.611 sec ( 28.310%)
 printout                       ...        0 min,  7.901 sec (  0.983%)

         :::::::::::::::::::::::::::::::::::::::::::::::::::::
         ::                     SUMMARY                     ::
         :::::::::::::::::::::::::::::::::::::::::::::::::::::
         :: total energy           -3427.553130451643 Eh    ::
         :: gradient norm              0.018368218433 Eh/a0 ::
         :: HOMO-LUMO gap             11.490908531380 eV    ::
         ::.................................................::
         :: SCC energy             -3478.814729933456 Eh    ::
         :: -> isotropic ES            0.418636713879 Eh    ::
         :: -> anisotropic ES          1.120623955782 Eh    ::
         :: -> anisotropic XC          1.946051222281 Eh    ::
         :: -> dispersion             -4.048750273595 Eh    ::
         :: repulsion energy          50.619543313038 Eh    ::
         :: add. restraining           0.000000000000 Eh    ::
         :: total charge              -0.000000000011 e     ::
         :::::::::::::::::::::::::::::::::::::::::::::::::::::

      ----------------------------------------------------------- 
     |              Fast Inertial Relaxation Engine              |
      ----------------------------------------------------------- 

          ...................................................
          :                      SETUP                      :
          :.................................................:
          :   energy convergence        0.5000000E-05 Eh    :
          :   grad. convergence         0.1000000E-02 Eh/a0 :
          :   optimization log               true           :
          :   writing optlog all                1     steps :
          :   Hessian reset                    20     steps :
          :   time step scaling                 5     steps :
          :   maximium step len.        1.0000000     a0    :
          :   initial time step         0.2500000     fs    :
          :   maximum time step         1.2500000     fs    :
          :   power reset thr           0.0000000     au    :
          :   alpha parameter           0.1000000           :
          :   BFGS update                   false           :
          :   preconditioning               false           :
          ...................................................

........................................................................
.............................. CYCLE    1 ..............................
........................................................................

 iter      E             dE          RMSdq      gap      omega  full diag
   1  -3478.8183134 -0.347882E+04  0.266E-04   11.49       0.0  T
   2  -3478.8183134 -0.286041E-07  0.152E-04   11.49      11.6  T
   3  -3478.8183134 -0.642103E-09  0.493E-05   11.49      35.5  T
     SCC iter.                  ...        2 min, 53.236 sec
     gradient                   ...        3 min, 48.277 sec
 * total energy  : -3427.5531684 Eh     change    :  -0.3793614E-04 Eh
   gradient norm :     0.0168742 Eh/a0  converged?    E=F G=F D=F
   time step     :     0.2500000 fs     power     :   0.1927625E-08
   step length   :     0.0021527 a0     speed     :   0.2082868E-03

........................................................................
.............................. CYCLE    2 ..............................
........................................................................

 iter      E             dE          RMSdq      gap      omega  full diag
   1  -3478.8235288 -0.347882E+04  0.384E-04   11.49       0.0  T
   2  -3478.8235288 -0.600689E-07  0.219E-04   11.49       8.0  T
   3  -3478.8235288 -0.128148E-08  0.713E-05   11.49      24.6  T
     SCC iter.                  ...        2 min, 47.796 sec
     gradient                   ...        3 min, 47.855 sec
 * total energy  : -3427.5532180 Eh     change    :  -0.4961967E-04 Eh
   gradient norm :     0.0147251 Eh/a0  converged?    E=F G=F D=F
   time step     :     0.2500000 fs     power     :   0.2451900E-08
   step length   :     0.0031414 a0     speed     :   0.3039426E-03

........................................................................
.............................. CYCLE    3 ..............................
........................................................................

 iter      E             dE          RMSdq      gap      omega  full diag
   1  -3478.8301471 -0.347883E+04  0.488E-04   11.49       0.0  T
   2  -3478.8301472 -0.965028E-07  0.279E-04   11.49       6.3  T
   3  -3478.8301472 -0.209366E-08  0.904E-05   11.49      19.4  T
     SCC iter.                  ...        2 min, 47.811 sec
     gradient                   ...        3 min, 47.867 sec
 * total energy  : -3427.5532715 Eh     change    :  -0.5345063E-04 Eh
   gradient norm :     0.0120406 Eh/a0  converged?    E=F G=F D=F
   time step     :     0.2500000 fs     power     :   0.2544575E-08
   step length   :     0.0040031 a0     speed     :   0.3873218E-03

........................................................................
.............................. CYCLE    4 ..............................
........................................................................

 iter      E             dE          RMSdq      gap      omega  full diag
   1  -3478.8378735 -0.347884E+04  0.572E-04   11.49       0.0  T
   2  -3478.8378736 -0.130942E-06  0.326E-04   11.49       5.4  T
   3  -3478.8378736 -0.283399E-08  0.105E-04   11.49      16.7  T
     SCC iter.                  ...        2 min, 51.440 sec
     gradient                   ...        3 min, 47.920 sec
 * total energy  : -3427.5533205 Eh     change    :  -0.4900491E-04 Eh
   gradient norm :     0.0090121 Eh/a0  converged?    E=F G=F D=F
   time step     :     0.2500000 fs     power     :   0.2203461E-08
   step length   :     0.0047041 a0     speed     :   0.4551481E-03

........................................................................
.............................. CYCLE    5 ..............................
........................................................................

 iter      E             dE          RMSdq      gap      omega  full diag
   1  -3478.8463454 -0.347885E+04  0.630E-04   11.49       0.0  T
   2  -3478.8463456 -0.156074E-06  0.360E-04   11.49       4.9  T
   3  -3478.8463456 -0.349883E-08  0.114E-04   11.49      15.3  T
     SCC iter.                  ...        2 min, 55.432 sec
     gradient                   ...        3 min, 47.164 sec
 * total energy  : -3427.5533579 Eh     change    :  -0.3742522E-04 Eh
   gradient norm :     0.0059972 Eh/a0  converged?    E=F G=F D=F
   time step     :     0.2500000 fs     power     :   0.1506906E-08
   step length   :     0.0052154 a0     speed     :   0.5046185E-03

........................................................................
.............................. CYCLE    6 ..............................
........................................................................

 iter      E             dE          RMSdq      gap      omega  full diag
   1  -3478.8560094 -0.347886E+04  0.729E-04   11.49       0.0  T
   2  -3478.8560096 -0.200062E-06  0.417E-04   11.49       4.2  T
   3  -3478.8560096 -0.461796E-08  0.128E-04   11.49      13.6  T
     SCC iter.                  ...        2 min, 53.491 sec
     gradient                   ...        3 min, 47.800 sec
 * total energy  : -3427.5533804 Eh     change    :  -0.2246968E-04 Eh
   gradient norm :     0.0038893 Eh/a0  converged?    E=F G=F D=F
   time step     :     0.2750000 fs     power     :   0.5162491E-09
   step length   :     0.0060844 a0     speed     :   0.5351818E-03

........................................................................
.............................. CYCLE    7 ..............................
........................................................................

 iter      E             dE          RMSdq      gap      omega  full diag
   1  -3478.8658173 -0.347887E+04  0.769E-04   11.49       0.0  T
   2  -3478.8658175 -0.199358E-06  0.442E-04   11.49       4.0  T
   3  -3478.8658175 -0.471300E-08  0.125E-04   11.49      14.0  T
     SCC iter.                  ...        2 min, 52.830 sec
     gradient                   ...        3 min, 47.684 sec
 * total energy  : -3427.5533827 Eh     change    :  -0.2336936E-05 Eh
   gradient norm :     0.0050655 Eh/a0  converged?    E=T G=F D=F
   time step     :     0.3025000 fs     power     :  -0.4306263E-09
   step length   :     0.0065413 a0     speed     :   0.5230654E-03

........................................................................
.............................. CYCLE    8 ..............................
........................................................................
 * reset velocities

 iter      E             dE          RMSdq      gap      omega  full diag
   1  -3478.8656953 -0.347887E+04  0.137E-05   11.49       0.0  T
   2  -3478.8656953 -0.791260E-10  0.742E-06   11.49     236.2  T
   3  -3478.8656953 -0.227374E-11  0.326E-06   11.49     538.1  T
     SCC iter.                  ...        2 min, 51.953 sec
     gradient                   ...        3 min, 47.236 sec
 * total energy  : -3427.5533832 Eh     change    :  -0.5253255E-06 Eh
   gradient norm :     0.0050017 Eh/a0  converged?    E=T G=F D=T
   time step     :     0.1512500 fs     power     :   0.4767411E-10
   step length   :     0.0001086 a0     speed     :   0.1737564E-04

........................................................................
.............................. CYCLE    9 ..............................
........................................................................

 iter      E             dE          RMSdq      gap      omega  full diag
   1  -3478.8654534 -0.347887E+04  0.281E-05   11.49       0.0  T
   2  -3478.8654534 -0.155978E-09  0.164E-05   11.49     106.9  T
   3  -3478.8654534  0.000000E+00  0.395E-06   11.49     443.3  T
     SCC iter.                  ...        2 min, 47.796 sec
     gradient                   ...        3 min, 47.519 sec
 * total energy  : -3427.5533844 Eh     change    :  -0.1146701E-05 Eh
   gradient norm :     0.0048832 Eh/a0  converged?    E=T G=F D=T
   time step     :     0.1512500 fs     power     :   0.9248856E-10
   step length   :     0.0002159 a0     speed     :   0.3453213E-04

........................................................................
.............................. CYCLE   10 ..............................
........................................................................

 iter      E             dE          RMSdq      gap      omega  full diag
   1  -3478.8650970 -0.347887E+04  0.397E-05   11.49       0.0  T
   2  -3478.8650970 -0.432465E-09  0.231E-05   11.49      75.7  T
   3  -3478.8650970  0.727596E-11  0.591E-06   11.49     296.4  T
     SCC iter.                  ...        2 min, 48.731 sec
     gradient                   ...        3 min, 47.754 sec
 * total energy  : -3427.5533859 Eh     change    :  -0.1526122E-05 Eh
   gradient norm :     0.0047116 Eh/a0  converged?    E=T G=F D=T
   time step     :     0.1512500 fs     power     :   0.1324713E-09
   step length   :     0.0003206 a0     speed     :   0.5128024E-04

........................................................................
.............................. CYCLE   11 ..............................
........................................................................

 iter      E             dE          RMSdq      gap      omega  full diag
   1  -3478.8646340 -0.347886E+04  0.521E-05   11.49       0.0  T
   2  -3478.8646340 -0.689397E-09  0.304E-05   11.49      57.7  T
   3  -3478.8646340  0.909495E-11  0.771E-06   11.49     227.4  T
     SCC iter.                  ...        2 min, 46.890 sec
     gradient                   ...        3 min, 48.038 sec
 * total energy  : -3427.5533878 Eh     change    :  -0.1923626E-05 Eh
   gradient norm :     0.0044912 Eh/a0  converged?    E=T G=F D=T
   time step     :     0.1512500 fs     power     :   0.1659041E-09
   step length   :     0.0004217 a0     speed     :   0.6743407E-04

........................................................................
.............................. CYCLE   12 ..............................
........................................................................

 iter      E             dE          RMSdq      gap      omega  full diag
   1  -3478.8640754 -0.347886E+04  0.638E-05   11.49       0.0  T
   2  -3478.8640754 -0.101409E-08  0.372E-05   11.49      47.1  T
   3  -3478.8640754  0.372893E-10  0.933E-06   11.49     187.7  T
     SCC iter.                  ...        2 min, 50.502 sec
     gradient                   ...        3 min, 47.811 sec
 * total energy  : -3427.5533900 Eh     change    :  -0.2232707E-05 Eh
   gradient norm :     0.0042294 Eh/a0  converged?    E=T G=F D=T
   time step     :     0.1512500 fs     power     :   0.1915145E-09
   step length   :     0.0005178 a0     speed     :   0.8281648E-04

........................................................................
.............................. CYCLE   13 ..............................
........................................................................

 iter      E             dE          RMSdq      gap      omega  full diag
   1  -3478.8634350 -0.347886E+04  0.748E-05   11.49       0.0  T
   2  -3478.8634350 -0.140108E-08  0.436E-05   11.49      40.1  T
   3  -3478.8634350 -0.613909E-10  0.107E-05   11.49     163.0  T
     SCC iter.                  ...        2 min, 47.544 sec
     gradient                   ...        3 min, 48.105 sec
 * total energy  : -3427.5533926 Eh     change    :  -0.2550059E-05 Eh
   gradient norm :     0.0039360 Eh/a0  converged?    E=T G=F D=T
   time step     :     0.1512500 fs     power     :   0.2085694E-09
   step length   :     0.0006082 a0     speed     :   0.9726662E-04

........................................................................
.............................. CYCLE   14 ..............................
........................................................................

 iter      E             dE          RMSdq      gap      omega  full diag
   1  -3478.8626512 -0.347886E+04  0.936E-05   11.49       0.0  T
   2  -3478.8626512 -0.217960E-08  0.547E-05   11.49      32.0  T
   3  -3478.8626512 -0.227374E-10  0.133E-05   11.49     131.6  T
     SCC iter.                  ...        2 min, 48.586 sec
     gradient                   ...        3 min, 47.998 sec
 * total energy  : -3427.5533955 Eh     change    :  -0.2872956E-05 Eh
   gradient norm :     0.0035896 Eh/a0  converged?    E=T G=F D=T
   time step     :     0.1663750 fs     power     :   0.2172775E-09
   step length   :     0.0007703 a0     speed     :   0.1119855E-03

........................................................................
.............................. CYCLE   15 ..............................
........................................................................

 iter      E             dE          RMSdq      gap      omega  full diag
   1  -3478.8617238 -0.347886E+04  0.115E-04   11.49       0.0  T
   2  -3478.8617238 -0.316413E-08  0.674E-05   11.49      26.0  T
   3  -3478.8617238 -0.850378E-10  0.160E-05   11.49     109.8  T
     SCC iter.                  ...        2 min, 44.716 sec
     gradient                   ...        3 min, 47.338 sec
 * total energy  : -3427.5533986 Eh     change    :  -0.3167615E-05 Eh
   gradient norm :     0.0032058 Eh/a0  converged?    E=T G=F D=T
   time step     :     0.1830125 fs     power     :   0.2154544E-09
   step length   :     0.0009577 a0     speed     :   0.1265801E-03

........................................................................
.............................. CYCLE   16 ..............................
........................................................................

 iter      E             dE          RMSdq      gap      omega  full diag
   1  -3478.8606731 -0.347886E+04  0.139E-04   11.49       0.0  T
   2  -3478.8606732 -0.423825E-08  0.812E-05   11.49      21.6  T
   3  -3478.8606732 -0.100499E-09  0.185E-05   11.49      94.9  T
     SCC iter.                  ...        2 min, 43.130 sec
     gradient                   ...        3 min, 47.989 sec
 * total energy  : -3427.5534020 Eh     change    :  -0.3382918E-05 Eh
   gradient norm :     0.0028219 Eh/a0  converged?    E=T G=F D=F
   time step     :     0.2013138 fs     power     :   0.2021036E-09
   step length   :     0.0011694 a0     speed     :   0.1405122E-03

........................................................................
.............................. CYCLE   17 ..............................
........................................................................

 iter      E             dE          RMSdq      gap      omega  full diag
   1  -3478.8595545 -0.347886E+04  0.163E-04   11.49       0.0  T
   2  -3478.8595545 -0.539694E-08  0.954E-05   11.49      18.4  T
   3  -3478.8595545 -0.304681E-10  0.203E-05   11.49      86.2  T
     SCC iter.                  ...        2 min, 42.440 sec
     gradient                   ...        3 min, 48.196 sec
 * total energy  : -3427.5534054 Eh     change    :  -0.3377666E-05 Eh
   gradient norm :     0.0025086 Eh/a0  converged?    E=T G=F D=F
   time step     :     0.2214451 fs     power     :   0.1788491E-09
   step length   :     0.0014012 a0     speed     :   0.1530595E-03

........................................................................
.............................. CYCLE   18 ..............................
........................................................................

 iter      E             dE          RMSdq      gap      omega  full diag
   1  -3478.8584765 -0.347886E+04  0.185E-04   11.49       0.0  T
   2  -3478.8584765 -0.589944E-08  0.109E-04   11.49      16.1  T
   3  -3478.8584765 -0.111868E-09  0.208E-05   11.49      84.0  T
     SCC iter.                  ...        2 min, 50.538 sec
     gradient                   ...        3 min, 48.563 sec
 * total energy  : -3427.5534086 Eh     change    :  -0.3239737E-05 Eh
   gradient norm :     0.0023542 Eh/a0  converged?    E=T G=F D=F
   time step     :     0.2435896 fs     power     :   0.1513125E-09
   step length   :     0.0016445 a0     speed     :   0.1633062E-03

........................................................................
.............................. CYCLE   19 ..............................
........................................................................

 iter      E             dE          RMSdq      gap      omega  full diag
   1  -3478.8576085 -0.347886E+04  0.203E-04   11.49       0.0  T
   2  -3478.8576085 -0.549062E-08  0.120E-04   11.49      14.6  T
   3  -3478.8576085 -0.186901E-09  0.194E-05   11.49      90.4  T
     SCC iter.                  ...        2 min, 44.919 sec
     gradient                   ...        3 min, 48.338 sec
 * total energy  : -3427.5534117 Eh     change    :  -0.3062895E-05 Eh
   gradient norm :     0.0023883 Eh/a0  converged?    E=T G=F D=F
   time step     :     0.2679486 fs     power     :   0.1288499E-09
   step length   :     0.0018882 a0     speed     :   0.1704539E-03

........................................................................
.............................. CYCLE   20 ..............................
........................................................................

 iter      E             dE          RMSdq      gap      omega  full diag
   1  -3478.8571552 -0.347886E+04  0.217E-04   11.49       0.0  T
   2  -3478.8571552 -0.414457E-08  0.128E-04   11.49      13.7  T
   3  -3478.8571552 -0.582077E-10  0.163E-05   11.49     107.3  T
     SCC iter.                  ...        2 min, 48.917 sec
     gradient                   ...        3 min, 47.960 sec
 * total energy  : -3427.5534148 Eh     change    :  -0.3089836E-05 Eh
   gradient norm :     0.0025181 Eh/a0  converged?    E=T G=F D=F
   time step     :     0.2947435 fs     power     :   0.1200889E-09
   step length   :     0.0021305 a0     speed     :   0.1748420E-03
 * RMSD in coord.:     0.0005440 a0     energy gain  -0.2843414E-03 Eh

........................................................................
.............................. CYCLE   21 ..............................
........................................................................

 iter      E             dE          RMSdq      gap      omega  full diag
   1  -3478.8572415 -0.347886E+04  0.175E-04   11.49       0.0  T
   2  -3478.8572415 -0.160117E-08  0.103E-04   11.49      17.0  T
   3  -3478.8572415 -0.377440E-10  0.105E-05   11.49     167.4  T
     SCC iter.                  ...        2 min, 47.951 sec
     gradient                   ...        3 min, 47.581 sec
 * total energy  : -3427.5534174 Eh     change    :  -0.2640325E-05 Eh
   gradient norm :     0.0025740 Eh/a0  converged?    E=T G=F D=F
   time step     :     0.2500000 fs     power     :   0.1287225E-09
   step length   :     0.0018121 a0     speed     :   0.1753291E-03

........................................................................
.............................. CYCLE   22 ..............................
........................................................................

 iter      E             dE          RMSdq      gap      omega  full diag
   1  -3478.8577868 -0.347886E+04  0.170E-04   11.49       0.0  T
   2  -3478.8577868 -0.120372E-08  0.996E-05   11.49      17.6  T
   3  -3478.8577868 -0.532054E-10  0.101E-05   11.49     174.2  T
     SCC iter.                  ...        2 min, 50.145 sec
     gradient                   ...        3 min, 47.915 sec
 * total energy  : -3427.5534203 Eh     change    :  -0.2859865E-05 Eh
   gradient norm :     0.0025085 Eh/a0  converged?    E=T G=F D=F
   time step     :     0.2500000 fs     power     :   0.1423338E-09
   step length   :     0.0018257 a0     speed     :   0.1766450E-03

........................................................................
.............................. CYCLE   23 ..............................
........................................................................

 iter      E             dE          RMSdq      gap      omega  full diag
   1  -3478.8587466 -0.347886E+04  0.169E-04   11.49       0.0  T
   2  -3478.8587466 -0.154751E-08  0.985E-05   11.49      17.8  T
   3  -3478.8587466 -0.582077E-10  0.111E-05   11.49     157.1  T
     SCC iter.                  ...        2 min, 47.882 sec
     gradient                   ...        3 min, 48.018 sec
 * total energy  : -3427.5534233 Eh     change    :  -0.3042345E-05 Eh
   gradient norm :     0.0023093 Eh/a0  converged?    E=T G=F D=F
   time step     :     0.2500000 fs     power     :   0.1522230E-09
   step length   :     0.0018554 a0     speed     :   0.1795223E-03

........................................................................
.............................. CYCLE   24 ..............................
........................................................................

 iter      E             dE          RMSdq      gap      omega  full diag
   1  -3478.8600525 -0.347886E+04  0.172E-04   11.49       0.0  T
   2  -3478.8600525 -0.242744E-08  0.997E-05   11.49      17.6  T
   3  -3478.8600525 -0.813998E-10  0.132E-05   11.49     133.0  T
     SCC iter.                  ...        2 min, 48.675 sec
     gradient                   ...        3 min, 47.719 sec
 * total energy  : -3427.5534264 Eh     change    :  -0.3093561E-05 Eh
   gradient norm :     0.0019988 Eh/a0  converged?    E=T G=F D=F
   time step     :     0.2500000 fs     power     :   0.1518914E-09
   step length   :     0.0018997 a0     speed     :   0.1838029E-03

........................................................................
.............................. CYCLE   25 ..............................
........................................................................

 iter      E             dE          RMSdq      gap      omega  full diag
   1  -3478.8616122 -0.347886E+04  0.176E-04   11.49       0.0  T
   2  -3478.8616122 -0.355976E-08  0.102E-04   11.49      17.2  T
   3  -3478.8616122 -0.850378E-10  0.155E-05   11.49     112.9  T
     SCC iter.                  ...        2 min, 45.843 sec
     gradient                   ...        3 min, 47.713 sec
 * total energy  : -3427.5534293 Eh     change    :  -0.2903245E-05 Eh
   gradient norm :     0.0016357 Eh/a0  converged?    E=T G=F D=F
   time step     :     0.2500000 fs     power     :   0.1387144E-09
   step length   :     0.0019516 a0     speed     :   0.1888288E-03

........................................................................
.............................. CYCLE   26 ..............................
........................................................................

 iter      E             dE          RMSdq      gap      omega  full diag
   1  -3478.8634799 -0.347886E+04  0.197E-04   11.49       0.0  T
   2  -3478.8634799 -0.537557E-08  0.113E-04   11.49      15.5  T
   3  -3478.8634799 -0.124146E-09  0.192E-05   11.49      91.4  T
     SCC iter.                  ...        2 min, 44.574 sec
     gradient                   ...        3 min, 47.662 sec
 * total energy  : -3427.5534321 Eh     change    :  -0.2721706E-05 Eh
   gradient norm :     0.0013104 Eh/a0  converged?    E=T G=F D=F
   time step     :     0.2750000 fs     power     :   0.1118858E-09
   step length   :     0.0022110 a0     speed     :   0.1944750E-03

........................................................................
.............................. CYCLE   27 ..............................
........................................................................

 iter      E             dE          RMSdq      gap      omega  full diag
   1  -3478.8654552 -0.347887E+04  0.211E-04   11.49       0.0  T
   2  -3478.8654552 -0.631917E-08  0.121E-04   11.49      14.5  T
   3  -3478.8654552 -0.216460E-09  0.206E-05   11.49      85.1  T
     SCC iter.                  ...        2 min, 45.420 sec
     gradient                   ...        3 min, 47.825 sec
 * total energy  : -3427.5534344 Eh     change    :  -0.2302014E-05 Eh
   gradient norm :     0.0012574 Eh/a0  converged?    E=T G=F D=F
   time step     :     0.3025000 fs     power     :   0.7929644E-10
   step length   :     0.0024830 a0     speed     :   0.1985490E-03

........................................................................
.............................. CYCLE   28 ..............................
........................................................................

 iter      E             dE          RMSdq      gap      omega  full diag
   1  -3478.8671712 -0.347887E+04  0.210E-04   11.49       0.0  T
   2  -3478.8671712 -0.485670E-08  0.120E-04   11.49      14.6  T
   3  -3478.8671712 -0.259206E-09  0.176E-05   11.49      99.3  T
     SCC iter.                  ...        2 min, 51.993 sec
     gradient                   ...        3 min, 47.896 sec
 * total energy  : -3427.5534362 Eh     change    :  -0.1860101E-05 Eh
   gradient norm :     0.0014896 Eh/a0  converged?    E=T G=F D=F
   time step     :     0.3327500 fs     power     :   0.5792628E-10
   step length   :     0.0027137 a0     speed     :   0.1972674E-03

........................................................................
.............................. CYCLE   29 ..............................
........................................................................

 iter      E             dE          RMSdq      gap      omega  full diag
   1  -3478.8682945 -0.347887E+04  0.197E-04   11.49       0.0  T
   2  -3478.8682945 -0.237833E-08  0.113E-04   11.49      15.4  T
   3  -3478.8682945 -0.237378E-09  0.118E-05   11.49     148.5  T
     SCC iter.                  ...        2 min, 45.041 sec
     gradient                   ...        3 min, 47.911 sec
 * total energy  : -3427.5534381 Eh     change    :  -0.1862591E-05 Eh
   gradient norm :     0.0017133 Eh/a0  converged?    E=T G=F D=F
   time step     :     0.3660250 fs     power     :   0.5702453E-10
   step length   :     0.0029010 a0     speed     :   0.1917162E-03

........................................................................
.............................. CYCLE   30 ..............................
........................................................................

 iter      E             dE          RMSdq      gap      omega  full diag
   1  -3478.8686100 -0.347887E+04  0.185E-04   11.49       0.0  T
   2  -3478.8686100 -0.971795E-09  0.108E-04   11.49      16.3  T
   3  -3478.8686100 -0.112323E-09  0.834E-06   11.49     210.1  T
     SCC iter.                  ...        2 min, 47.181 sec
     gradient                   ...        3 min, 47.945 sec
 * total energy  : -3427.5534404 Eh     change    :  -0.2313310E-05 Eh
   gradient norm :     0.0017285 Eh/a0  converged?    E=T G=F D=F
   time step     :     0.4026275 fs     power     :   0.6949679E-10
   step length   :     0.0031109 a0     speed     :   0.1868932E-03

........................................................................
.............................. CYCLE   31 ..............................
........................................................................

 iter      E             dE          RMSdq      gap      omega  full diag
   1  -3478.8680217 -0.347887E+04  0.185E-04   11.49       0.0  T
   2  -3478.8680217 -0.235150E-08  0.109E-04   11.49      16.1  T
   3  -3478.8680217 -0.986802E-10  0.110E-05   11.49     158.7  T
     SCC iter.                  ...        2 min, 46.738 sec
     gradient                   ...        3 min, 47.544 sec
 * total energy  : -3427.5534433 Eh     change    :  -0.2931302E-05 Eh
   gradient norm :     0.0014958 Eh/a0  converged?    E=T G=F D=F
   time step     :     0.4428903 fs     power     :   0.7898197E-10
   step length   :     0.0034007 a0     speed     :   0.1857321E-03

........................................................................
.............................. CYCLE   32 ..............................
........................................................................

 iter      E             dE          RMSdq      gap      omega  full diag
   1  -3478.8666340 -0.347887E+04  0.198E-04   11.49       0.0  T
   2  -3478.8666340 -0.599948E-08  0.117E-04   11.49      15.0  T
   3  -3478.8666340 -0.213277E-09  0.189E-05   11.49      92.6  T
     SCC iter.                  ...        2 min, 45.103 sec
     gradient                   ...        3 min, 47.392 sec
 * total energy  : -3427.5534465 Eh     change    :  -0.3157080E-05 Eh
   gradient norm :     0.0012035 Eh/a0  converged?    E=T G=F D=F
   time step     :     0.4871793 fs     power     :   0.7226342E-10
   step length   :     0.0037892 a0     speed     :   0.1881352E-03

........................................................................
.............................. CYCLE   33 ..............................
........................................................................

 iter      E             dE          RMSdq      gap      omega  full diag
   1  -3478.8649627 -0.347886E+04  0.200E-04   11.49       0.0  T
   2  -3478.8649627 -0.786849E-08  0.118E-04   11.49      14.8  T
   3  -3478.8649627 -0.177351E-09  0.226E-05   11.49      77.4  T
     SCC iter.                  ...        2 min, 45.371 sec
     gradient                   ...        3 min, 47.356 sec
 * total energy  : -3427.5534494 Eh     change    :  -0.2910120E-05 Eh
   gradient norm :     0.0012720 Eh/a0  converged?    E=T G=F D=F
   time step     :     0.5358972 fs     power     :   0.5649585E-10
   step length   :     0.0042340 a0     speed     :   0.1911100E-03

........................................................................
.............................. CYCLE   34 ..............................
........................................................................

 iter      E             dE          RMSdq      gap      omega  full diag
   1  -3478.8639357 -0.347886E+04  0.180E-04   11.49       0.0  T
   2  -3478.8639357 -0.359250E-08  0.107E-04   11.49      16.4  T
   3  -3478.8639357 -0.169621E-09  0.131E-05   11.49     133.4  T
     SCC iter.                  ...        2 min, 45.080 sec
     gradient                   ...        3 min, 48.162 sec
 * total energy  : -3427.5534523 Eh     change    :  -0.2946382E-05 Eh
   gradient norm :     0.0015170 Eh/a0  converged?    E=T G=F D=F
   time step     :     0.5894869 fs     power     :   0.5700009E-10
   step length   :     0.0046486 a0     speed     :   0.1907491E-03

........................................................................
.............................. CYCLE   35 ..............................
........................................................................

 iter      E             dE          RMSdq      gap      omega  full diag
   1  -3478.8642465 -0.347886E+04  0.187E-04   11.49       0.0  T
   2  -3478.8642465 -0.847194E-09  0.110E-04   11.49      15.9  T
   3  -3478.8642465 -0.841283E-10  0.650E-06   11.49     269.5  T
     SCC iter.                  ...        2 min, 45.231 sec
     gradient                   ...        3 min, 47.714 sec
 * total energy  : -3427.5534562 Eh     change    :  -0.3850889E-05 Eh
   gradient norm :     0.0014431 Eh/a0  converged?    E=T G=F D=F
   time step     :     0.6484356 fs     power     :   0.7307501E-10
   step length   :     0.0051261 a0     speed     :   0.1912218E-03

........................................................................
.............................. CYCLE   36 ..............................
........................................................................

 iter      E             dE          RMSdq      gap      omega  full diag
   1  -3478.8660688 -0.347887E+04  0.246E-04   11.49       0.0  T
   2  -3478.8660688 -0.667933E-08  0.142E-04   11.49      12.3  T
   3  -3478.8660688 -0.253294E-09  0.208E-05   11.49      84.1  T
     SCC iter.                  ...        2 min, 46.213 sec
     gradient                   ...        3 min, 47.761 sec
 * total energy  : -3427.5534609 Eh     change    :  -0.4691070E-05 Eh
   gradient norm :     0.0010810 Eh/a0  converged?    E=T G=F D=F
   time step     :     0.7132792 fs     power     :   0.7549668E-10
   step length   :     0.0058029 a0     speed     :   0.1967898E-03

........................................................................
.............................. CYCLE   37 ..............................
........................................................................

 iter      E             dE          RMSdq      gap      omega  full diag
   1  -3478.8685569 -0.347887E+04  0.280E-04   11.49       0.0  T
   2  -3478.8685569 -0.126338E-07  0.162E-04   11.49      10.8  T
   3  -3478.8685569 -0.369710E-09  0.301E-05   11.49      58.2  T
     SCC iter.                  ...        2 min, 48.278 sec
     gradient                   ...        3 min, 47.728 sec
 * total energy  : -3427.5534654 Eh     change    :  -0.4480036E-05 Eh
   gradient norm :     0.0011771 Eh/a0  converged?    E=T G=F D=F
   time step     :     0.7846071 fs     power     :   0.5958730E-10
   step length   :     0.0066479 a0     speed     :   0.2049491E-03

........................................................................
.............................. CYCLE   38 ..............................
........................................................................

 iter      E             dE          RMSdq      gap      omega  full diag
   1  -3478.8697600 -0.347887E+04  0.241E-04   11.49       0.0  T
   2  -3478.8697601 -0.549062E-08  0.142E-04   11.49      12.4  T
   3  -3478.8697601 -0.241016E-09  0.204E-05   11.49      86.1  T
     SCC iter.                  ...        2 min, 46.027 sec
     gradient                   ...        3 min, 47.688 sec
 * total energy  : -3427.5534701 Eh     change    :  -0.4751072E-05 Eh
   gradient norm :     0.0013213 Eh/a0  converged?    E=T G=F D=F
   time step     :     0.8630678 fs     power     :   0.6483976E-10
   step length   :     0.0074432 a0     speed     :   0.2086063E-03

........................................................................
.............................. CYCLE   39 ..............................
........................................................................

 iter      E             dE          RMSdq      gap      omega  full diag
   1  -3478.8688153 -0.347887E+04  0.263E-04   11.49       0.0  T
   2  -3478.8688153 -0.818363E-08  0.153E-04   11.49      11.4  T
   3  -3478.8688153 -0.370619E-09  0.261E-05   11.49      67.2  T
     SCC iter.                  ...        2 min, 44.964 sec
     gradient                   ...        3 min, 47.689 sec
 * total energy  : -3427.5534760 Eh     change    :  -0.5882638E-05 Eh
   gradient norm :     0.0010124 Eh/a0  converged?    E=F G=F D=F
   time step     :     0.9493746 fs     power     :   0.7086650E-10
   step length   :     0.0084207 a0     speed     :   0.2145485E-03

........................................................................
.............................. CYCLE   40 ..............................
........................................................................

 iter      E             dE          RMSdq      gap      omega  full diag
   1  -3478.8672067 -0.347887E+04  0.297E-04   11.49       0.0  T
   2  -3478.8672067 -0.110781E-07  0.173E-04   11.49      10.1  T
   3  -3478.8672067 -0.352429E-09  0.273E-05   11.49      64.2  T
     SCC iter.                  ...        2 min, 46.128 sec
     gradient                   ...        3 min, 47.651 sec
 * total energy  : -3427.5534818 Eh     change    :  -0.5851176E-05 Eh
   gradient norm :     0.0012278 Eh/a0  converged?    E=F G=F D=F
   time step     :     1.0443120 fs     power     :   0.6009825E-10
   step length   :     0.0096662 a0     speed     :   0.2238920E-03

........................................................................
.............................. CYCLE   41 ..............................
........................................................................

 iter      E             dE          RMSdq      gap      omega  full diag
   1  -3478.8680661 -0.347887E+04  0.299E-04   11.49       0.0  T
   2  -3478.8680661 -0.382670E-08  0.174E-04   11.49      10.0  T
   3  -3478.8680661 -0.306045E-09  0.122E-05   11.49     143.1  T
     SCC iter.                  ...        2 min, 44.490 sec
     gradient                   ...        3 min, 47.662 sec
 * total energy  : -3427.5534890 Eh     change    :  -0.7139031E-05 Eh
   gradient norm :     0.0011124 Eh/a0  converged?    E=F G=F D=F
   time step     :     1.1487432 fs     power     :   0.7482497E-10
   step length   :     0.0109187 a0     speed     :   0.2299126E-03

........................................................................
.............................. CYCLE   42 ..............................
........................................................................

 iter      E             dE          RMSdq      gap      omega  full diag
   1  -3478.8706368 -0.347887E+04  0.381E-04   11.49       0.0  T
   2  -3478.8706369 -0.193818E-07  0.222E-04   11.49       7.9  T
   3  -3478.8706369 -0.528416E-09  0.341E-05   11.49      51.4  T
     SCC iter.                  ...        2 min, 49.076 sec
     gradient                   ...        3 min, 48.078 sec
 * total energy  : -3427.5534969 Eh     change    :  -0.7872919E-05 Eh
   gradient norm :     0.0011433 Eh/a0  converged?    E=F G=F D=F
   time step     :     1.2500000 fs     power     :   0.6743479E-10
   step length   :     0.0124798 a0     speed     :   0.2414968E-03
 * RMSD in coord.:     0.0016082 a0     energy gain  -0.8206278E-04 Eh

........................................................................
.............................. CYCLE   43 ..............................
........................................................................

 iter      E             dE          RMSdq      gap      omega  full diag
   1  -3478.8707174 -0.347887E+04  0.578E-05   11.49       0.0  T
   2  -3478.8707174 -0.146429E-09  0.340E-05   11.49      51.5  T
   3  -3478.8707174  0.145519E-10  0.220E-06   11.49     797.3  T
     SCC iter.                  ...        2 min, 45.823 sec
     gradient                   ...        3 min, 47.456 sec
 * total energy  : -3427.5534984 Eh     change    :  -0.1503483E-05 Eh
   gradient norm :     0.0011705 Eh/a0  converged?    E=T G=F D=F
   time step     :     0.2500000 fs     power     :   0.7735685E-10
   step length   :     0.0024041 a0     speed     :   0.2326080E-03

........................................................................
.............................. CYCLE   44 ..............................
........................................................................

 iter      E             dE          RMSdq      gap      omega  full diag
   1  -3478.8704026 -0.347887E+04  0.558E-05   11.49       0.0  T
   2  -3478.8704026 -0.285581E-09  0.326E-05   11.49      53.8  T
   3  -3478.8704026 -0.168257E-10  0.403E-06   11.49     435.0  T
     SCC iter.                  ...        2 min, 44.897 sec
     gradient                   ...        3 min, 47.837 sec
 * total energy  : -3427.5535000 Eh     change    :  -0.1650513E-05 Eh
   gradient norm :     0.0010917 Eh/a0  converged?    E=T G=F D=F
   time step     :     0.2500000 fs     power     :   0.8584375E-10
   step length   :     0.0023387 a0     speed     :   0.2262818E-03

........................................................................
.............................. CYCLE   45 ..............................
........................................................................

 iter      E             dE          RMSdq      gap      omega  full diag
   1  -3478.8697762 -0.347887E+04  0.651E-05   11.49       0.0  T
   2  -3478.8697762 -0.709861E-09  0.378E-05   11.49      46.3  T
   3  -3478.8697762 -0.172804E-10  0.745E-06   11.49     235.1  T
     SCC iter.                  ...        2 min, 48.444 sec
     gradient                   ...        3 min, 48.478 sec
 * total energy  : -3427.5535017 Eh     change    :  -0.1713566E-05 Eh
   gradient norm :     0.0009551 Eh/a0  converged?    E=T G=T D=F
   time step     :     0.2500000 fs     power     :   0.8857890E-10
   step length   :     0.0023050 a0     speed     :   0.2230259E-03

   *** GEOMETRY OPTIMIZATION CONVERGED AFTER 45 CYCLES ***

------------------------------------------------------------------------
 total energy gain   :        -0.0003713 Eh       -0.2330 kcal/mol
 total RMSD          :         0.0019501 a0        0.0010 Å
 total power (kW/mol):        -0.0216616 (step)   -0.0001 (real)
------------------------------------------------------------------------

 FIRE (total)                  0 d,  5 h, 10 min, 19.820 sec
 setup                          ...        0 min,  0.120 sec (  0.001%)
 velocities                     ...        0 min,  0.003 sec (  0.000%)
 propagation                    ...        0 min,  0.005 sec (  0.000%)
 singlepoint calculation        ...      310 min, 18.904 sec ( 99.995%)
 log and printout               ...        0 min,  0.730 sec (  0.004%)
 preconditioner                 ...        0 min,  0.000 sec (  0.000%)
 model hessian                  ...        0 min,  0.000 sec (  0.000%)
 hessian update                 ...        0 min,  0.000 sec (  0.000%)

================
 final structure:
================
3258
 xtb: 6.6.1 (8d0f1dd)
C          108.67961356779719       91.17963395300733      104.37875016926857
C          108.65872375127340       91.93377641435562      105.70277800872829
C          108.31230751311881       91.01684351412263      106.87402037299233
C          108.44530999334037       91.70025176929148      108.23531643551527
C          107.40290166765783       92.79005088266445      108.47547248933243
C          107.55575777842233       93.41650215196515      109.86039133364787
C          106.51091564983878       94.49308447218692      110.15891804631586
C          106.62591981735508       95.70467273517967      109.23539371385580
C          105.79222718712292       96.89198894838827      109.71177252209816
C          105.64834766790401       97.94876279537262      108.61942877473172
C          104.78833094316325       99.13054733587867      109.05859276228824
C          104.54071113181348      100.11245148199056      107.91603244898285
C          103.61719959647723      101.25857629695867      108.31929466671664
C          103.33023677237574      102.20651806962952      107.15625903586528
C          102.37217853890976      103.32242338670683      107.55983926565325
C          101.96817109936701      104.25261269285038      106.41559322425370
C          103.11187637157218      105.09611886060543      105.84936391653181
C          102.58560760972188      106.27435247408656      105.03146851801439
C          103.70106153298600      107.14592044252544      104.46217704416951
C          103.16876618999538      108.38098413318357      103.73767685782290
C          104.28072875330511      109.18652121641199      103.06707667173025
C          103.72676361526216      110.41372347361855      102.34732109044307
C          104.79681751262866      111.31178041080410      101.72512991685184
C          105.43468193879289      110.71733100537337      100.47144582532020
C          106.37212130039869      111.70412594875560       99.77840073802510
C          106.96126001957195      111.12698285205796       98.49302213012176
C          107.92779766269034      112.09461825738289       97.81390392462609
C          108.60994725518610      111.46767668120819       96.59991519352164
C          109.70320836583765      112.36034808412285       96.01591392330077
C          110.53584679209457      111.63744458166394       94.95873931702248
C          111.74955443409279      112.45167181473852       94.51466681944139
C          112.58069123289685      111.70646401582287       93.47216922787753
C          113.84675443551509      112.45613024759753       93.05180912871056
C          114.94226881529154      112.43047901024887       94.11605300010136
C          116.21600295257524      113.13616033519844       93.65370757487260
C          117.30229435779286      113.08686655483814       94.72570685118826
C          118.61603073476800      113.71788031404608       94.26921708716684
C          119.70589440834500      113.68376784164533       95.34527170760154
C          119.47070148105894      114.70387839897539       96.45620058003746
C          120.55429788609196      114.68516254979779       97.53361402327809
C          120.29594965846462      115.76720555261372       98.57979375306726
C          121.30390751733280      115.77522440429964       99.72727925830594
C          120.96689235418009      116.87428532869872      100.73302575493915
C          121.90214708085755      116.91393937647251      101.93926855886843
C          121.46372395732932      117.98708217450557      102.93396592951984
C          122.33434880699254      118.04543888733360      104.18666395700544
C          121.78806035178022      119.05249401808048      105.19639237639176
C          122.61002997225941      119.11470016830155      106.48139348564894
C          121.96904691742006      120.03752094622369      107.51530064575206
C          122.75779084960465      120.09422994806792      108.82103522123681
C          122.06972839791865      120.97101986961371      109.86474196690889
C          122.84527476771646      121.02137131652847      111.17851621437714
C          122.16070472557890      121.90108615308884      112.22217867580356
C          122.94182005572088      121.93741006529355      113.53321325486989
C          122.29389671240406      122.83998279073035      114.58077748708889
C          123.07358020403261      122.82018271185164      115.89308568397344
C          122.45875974382574      123.71920669119858      116.96342160406427
C          123.21633700716809      123.60406498531572      118.28555232482242
C          122.83341856456066      124.66789152537397      119.31455868043084
C          121.38302462067480      124.57141879219439      119.78097142828494
C          121.10284871516342      125.51860774007457      120.94659573849565
C          119.65407218860200      125.45868381552144      121.43455591750488
C          118.67152010396761      126.19581204461774      120.52545873676446
C          117.22870800642271      125.97499493374117      120.97508610540827
C          116.20109450571761      126.74553119335363      120.14599433773455
C          116.08278312919590      126.24887511980360      118.70608082399586
C          114.91192446673072      126.91151315673710      117.98348123890824
C          114.71402655173863      126.41237427188567      116.55201238563818
C          115.84078002477045      126.82050031999064      115.60521160195127
C          115.48808844185236      126.60464160867460      114.13296218540836
C          115.42485523885506      125.13289646964583      113.73076463947005
C          115.08688047780691      124.97113705669649      112.25016840481341
C          115.22204286130979      123.52663785652088      111.77664608391554
C          114.81402411151443      123.36387799632602      110.31426639126111
C          115.12480663664294      121.96858354149106      109.77959111448877
C          114.62056358391905      121.77247614180928      108.35206455148563
C          115.05576136450584      120.43149906559243      107.76714453432746
C          114.47842784670709      120.19665912543961      106.37390456837755
C          115.01556534780624      118.91756953416974      105.73726884204153
C          114.38309971585750      118.63903102359271      104.37652334491361
C          115.01790303378142      117.43466353930965      103.68756065247536
C          114.30954045172676      117.06564556542712      102.38665848621656
C          114.97235732825735      115.87647369025130      101.69684405509237
C          114.20356616707281      115.40740749328116      100.46476579483637
C          114.88998062782937      114.21406733523834       99.80516473681939
C          114.19370863352388      113.71870409216858       98.53760578220145
C          112.77457897382050      113.18604541357944       98.74366699630457
C          112.70694380009550      111.96847601373695       99.65985839714372
C          111.29475674934167      111.40017918347475       99.77404510257220
C          111.25999864119588      110.20120671188712      100.71605293181726
C          109.85915875144487      109.63098065008506      100.92169833671277
C          109.86896943727167      108.53062866528893      101.97912919606874
C          108.47629721926526      108.04364163450796      102.36500112201503
C          108.54889181585629      107.04692911644663      103.51916884534209
C          107.16769313877528      106.61587102676540      104.00160757870196
C          107.21397679582041      105.72994103008902      105.24744480886123
C          107.72665851319807      104.32310734689815      104.95672440614902
C          108.02166678210483      103.52801430568745      106.22657175150054
C          108.76608058901608      102.23624102884060      105.89917907296432
C          109.29683196766840      101.52760594014828      107.14061814389474
C          110.20996354274629      100.34570730791461      106.81369933171160
C          111.47639061327328      100.74907248567486      106.05723564911024
C          112.49823248546048       99.61586218551189      106.02570202556301
C          113.69025191720254       99.93413162632977      105.12442808222180
C          114.80810723659177       98.89146304430147      105.20165927687518
C          114.42258134168328       97.53203756340238      104.62029284120977
C          115.43383651335597       96.44205352767241      104.96708791673697
C          115.03319512591359       95.10313874218066      104.35120627021054
C          115.94861262434968       93.94111826442449      104.74125673456187
C          115.86614050634283       93.52667816255372      106.21173047397062
C          114.52123591759685       92.91739090889099      106.60126338793368
C          114.46793749371595       92.56276675061947      108.08635788059090
C          113.06616967483303       92.15385979075836      108.53373278819770
C          113.01622030296036       91.82888866207361      110.02462863885135
C          111.59700349125083       91.54244920523993      110.50744568537988
C          111.54461860284970       91.23353221019858      112.00140343756441
C          110.12279026845168       90.93502032447523      112.47041998738445
C          110.06254276519033       90.60686160908001      113.95986487562497
C          108.64363375512410       90.27640052026948      114.41719154245631
C          108.58365748913687       89.95000136745539      115.90420020505675
H          107.98957468133815       91.12523093161218      114.20625266965968
H          108.27272177525562       89.42264736500461      113.84536032365375
H          110.71511758680400       89.75556365459025      114.16908370117569
H          110.43944567642339       91.45926436126496      114.53062254147680
H          109.48738337430295       91.79963334265544      112.26591684883147
H          109.72661935807450       90.09146651103511      111.89979839153818
H          112.18443429315047       90.37417475560051      112.21556737864599
H          111.93929341514121       92.08499676980067      112.56147076995410
H          110.96409710599552       92.40907748197600      110.30179613996093
H          111.18808022292261       90.69694311592350      109.94950174887963
H          113.65117987351063       90.96376764945090      110.22892317693298
H          113.42130868460058       92.67179682196262      110.58802045900677
H          112.37174449119536       92.97148610841876      108.32396450365709
H          112.73588844852037       91.28583843657384      107.95837043805665
H          115.16988314678720       91.75214034542068      108.29435698358870
H          114.78656673701614       93.42757350690596      108.67423187303956
H          113.72133346439267       93.62662810130463      106.38059834686688
H          114.33814197350742       92.02170660034835      106.00325151742270
H          116.65359194491849       92.79564994875182      106.41055913280280
H          116.06409865650204       94.39114802693986      106.84734342687550
H          115.69632629324532       93.07687827508539      104.12161026903892
H          116.98032400318279       94.21963204311689      104.51364043912956
H          114.00531648580723       94.87284859417893      104.63704958487823
H          115.05052140282434       95.20260875468188      103.26340609116444
H          116.42543083771284       96.72724478853465      104.60681611873029
H          115.48761534430373       96.35071439130827      106.05323314979621
H          113.44884695538879       97.22861736644016      105.00683159434026
H          114.33451171982425       97.60929777636593      103.53492570037395
H          115.68337466628243       99.27117790854959      104.66853532033657
H          115.10197020392211       98.76535246358112      106.24604255192558
H          113.34277339014962      100.01976873920776      104.09192978031328
H          114.10169151361490      100.90432876008732      105.41608462293279
H          112.85081895662628       99.42596174533082      107.04227747401875
H          111.99952433458299       98.71297607438214      105.67105987063859
H          111.22169621659380      101.01906739726122      105.03131912721226
H          111.92155813995865      101.62486530313089      106.53470666638979
H          110.49815376772881       99.86290866419853      107.75169692413903
H          109.65848642782203       99.61171649472854      106.22148279230545
H          109.85500667967327      102.24752190553707      107.74484576825878
H          108.45785707008352      101.17588939032929      107.74480177511923
H          108.10987138846937      101.56333724445267      105.34347554179483
H          109.60608545923705      102.48926534055478      105.25214546259554
H          108.64559597633389      104.13622105834395      106.88660985051965
H          107.09482820798465      103.30951728073366      106.76180526727823
H          106.99651553734942      103.78516453924225      104.34734586707910
H          108.64900690477941      104.39446224510088      104.37846138603759
H          107.86600641656636      106.19892261345298      105.98742133023505
H          106.21382056461019      105.66399652048396      105.68185246347579
H          106.59244712179161      107.51454774813013      104.23098438150417
H          106.65179331720030      106.08803524221176      103.19610204563769
H          109.12376638464815      106.17698386681710      103.19743185480677
H          109.08410404306872      107.50988134757600      104.35219860661799
H          107.86615200665223      108.89905375413171      102.66500538361144
H          107.99414999625908      107.57638971697300      101.50325468093293
H          110.46111054177125      107.68456583630955      101.62123656237225
H          110.35903058557970      108.91407415804619      102.87758734433133
H          109.18647871819549      110.42927030300058      101.24112625695911
H          109.47720677669568      109.23563034315156       99.97775032938556
H          111.91225553415428      109.41876029688659      100.32138022301780
H          111.66424107647617      110.50804940178529      101.68438403558092
H          110.62346830804499      112.17602275829518      100.15185420732159
H          110.93714847583921      111.10002891984045       98.78706910457169
H          113.37062772523241      111.19273968352503       99.27212324980441
H          113.05461583875564      112.23738264014834      100.65895609385545
H          112.13423123602189      113.97628853294404       99.13879246805331
H          112.37537387273925      112.90624246541010       97.76522454483391
H          114.15242188493474      114.54105469401659       97.82009073067744
H          114.80500189125772      112.92515617504611       98.09714691538943
H          115.91169711958504      114.50056755591400       99.54346400254521
H          114.96325918101500      113.39844444326779      100.52692812943678
H          113.19064580761918      115.13371012157181      100.76562366994199
H          114.12856832515271      116.22768869362646       99.74735408514036
H          115.98992667260683      116.14767976798959      101.40904887339615
H          115.04586636335831      115.04528208352160      102.40320358134339
H          113.26521023381454      116.82547351214235      102.59914088141477
H          114.31676832438241      117.92409752640553      101.71258175495004
H          116.06800165438764      117.64870418677189      103.47984302634150
H          114.98638428944321      116.58122085731971      104.36916895107855
H          113.31361629682395      118.46034166730973      104.50771346596029
H          114.49277236187707      119.51928308079108      103.73918389594040
H          116.09861311452990      118.99964863357235      105.62320810274628
H          114.81698195515115      118.07263397083325      106.40192797577016
H          113.38959104905263      120.14214597162635      106.43851851022131
H          114.72540894731017      121.04748636627073      105.73381173895265
H          116.14636079003911      120.39630892415693      107.71818686929511
H          114.72975070309292      119.62624123356284      108.43054517376612
H          113.53001861669306      121.83550411354125      108.34080331355275
H          115.00140796877952      122.57951727927971      107.72096224199834
H          116.20442289166243      121.80461709500084      109.80765935051414
H          114.66162119932460      121.22292855813609      110.43039121191295
H          113.74446651487794      123.56175911431455      110.21303675940436
H          115.34207530473491      124.10479222533584      109.70836786436843
H          116.25832630124907      123.20383615569396      111.90149000879103
H          114.59823432862770      122.88156357581472      112.39991484757022
H          114.06628700835147      125.31877606580912      112.07262476493621
H          115.75384014098665      125.60298077996137      111.65746687686035
H          116.38947384817790      124.66196895815857      113.93619747049409
H          114.67023451234618      124.61760213625661      114.32725152647306
H          114.52739221428548      127.08003310305880      113.91958541940686
H          116.24148611304271      127.10077257384815      113.51488727058984
H          116.05784961305926      127.88084797187148      115.75816023748449
H          116.74396873774518      126.25488486106117      115.84133394395576
H          114.62343473036731      125.32437911977921      116.56347072790489
H          113.77483048266450      126.82190408840191      116.17222709360215
H          113.99640640760273      126.71619841308642      118.54892034017359
H          115.06215438894912      127.99384793533335      117.96869313402462
H          117.00809012707597      126.45743491483822      118.16938598778870
H          115.93390864747107      125.16704935941200      118.70990735122304
H          115.22522922073767      126.64790574368077      120.62953155643227
H          116.45973944978969      127.80704461210433      120.14322525687167
H          116.99655705474373      124.90861810320517      120.92709726677423
H          117.13798445010033      126.28392847039201      122.01984128974431
H          118.89628736372292      127.26500233138377      120.54229508413194
H          118.78954926088845      125.84894466482824      119.49867686800329
H          119.35349186742825      124.41119780000349      121.51713922956051
H          119.59501204037197      125.89460090410701      122.43493032885445
H          121.76538095228092      125.25415234517267      121.77464011385817
H          121.34487291900463      126.54260161217699      120.65198238032427
H          120.72125066562174      124.80665334723700      118.94798729519040
H          121.17306474407650      123.54659170780343      120.09679063066699
H          123.48951543208652      124.56007236631831      120.18250107342581
H          123.00965917473458      125.65980442235110      118.89204026827214
H          123.04581044977540      122.61245383503868      118.71183962206939
H          124.28675595320104      123.69402236257093      118.08235314338590
H          122.48239284081920      124.75565813383410      116.62077117095927
H          121.41406486632458      123.43903154237296      117.11058798333870
H          123.11447838801179      121.79546856899677      116.26767146063227
H          124.10093487391529      123.14087774554530      115.70284187564384
H          122.24772488185353      123.86227763247197      114.19967608447213
H          121.26788569879699      122.50975532412933      114.76259552182499
H          123.02285209042434      120.92324094832216      113.93272356170361
H          123.95674249602068      122.29117642658328      113.33591611683791
H          122.06397426688690      122.91606485026237      111.83068943118595
H          121.15254898068697      121.52302803501875      112.40996531307815
H          122.95284965198876      120.00824613124237      111.57493350136289
H          123.85070805817905      121.40508843434445      110.98898675216297
H          121.96257666215992      121.98404386044344      109.47057504539771
H          121.06602080441657      120.58316936304307      110.05346669230788
H          122.87217475540304      119.08271595789931      109.21971247285950
H          123.76008814554453      120.48207270398630      108.62417771881016
H          121.88730742034036      121.04454180079108      107.10005186542982
H          120.95683447451313      119.68509293909450      107.72521875510927
H          122.69740986963885      118.11029899212063      106.90388503183433
H          123.62044978214352      119.46266529441276      106.25450116718837
H          121.76041728673015      120.04434228735661      104.73919955918650
H          120.76124863494266      118.77723050475696      105.44643860075276
H          122.36639292592281      117.05598706959789      104.64980975685627
H          123.35733705704487      118.31422290504113      103.91322836914279
H          121.48007320912434      118.96218924884543      102.44101664732455
H          120.43225705448715      117.78756491403986      103.23240156231083
H          121.89769433305163      115.93936814475869      102.43355417007044
H          122.92414385628773      117.11235261051662      101.60800828647497
H          120.99766438846341      117.84251946375879      100.22698215212276
H          119.94478884054688      116.72291627832196      101.08757156715856
H          121.29187117224937      114.80582547585351      100.23048332943395
H          122.31034819804228      115.93212358162738       99.33243098125590
H          120.31057680482967      116.74374125964887       98.08922820816655
H          119.29424157196945      115.62528469386837       98.99274062016433
H          120.57114788681353      113.70593391279412       98.01665949145084
H          121.53240451191766      114.84586250525834       97.07414255911827
H          119.42833694430408      115.70098338700917       96.01163105809185
H          118.50544979130633      114.51482323897385       96.92890627809014
H          119.75847570076216      112.68085742449210       95.77333636052033
H          120.67096830633319      113.89420113622270       94.87768832958497
H          118.97182913926196      113.17812496537940       93.38818158968182
H          118.43853990090825      114.75372080427509       93.97056375742152
H          116.93639680534265      113.59921784211413       95.61709139565532
H          117.48732936362613      112.04358516792593       94.98919369469935
H          116.58343951579107      112.65884300201182       92.74194236617117
H          115.98746976808343      114.17696734278280       93.41369200223778
H          114.58442623747911      112.91073468423868       95.02858318302172
H          115.17925491671245      111.39176662894100       94.36089639026892
H          114.23872707574249      111.99845414582627       92.13998673128779
H          113.59222359394134      113.49234590851223       92.81786888300439
H          112.86178875583477      110.72818976105130       93.87114271283180
H          111.96006429063203      111.53281046999663       92.58993771524818
H          111.41923808392649      113.40689782000015       94.10038119322635
H          112.36937705711554      112.66712123484855       95.38726571128970
H          110.88238491032966      110.68594441103944       95.36998804410170
H          109.91049550803032      111.41011911496688       94.09255586508546
[...]
  3011   6 C     3012   6 C                                       1.5266891
  3012   6 C     3013   6 C                                       1.5268407
  3013   6 C     3014   6 C                                       1.5265775
  3014   6 C     3015   6 C                                       1.5264781
  3015   6 C     3016   6 C                                       1.5237404
  3015   6 C     3017   1 H                                       1.0924865
  3015   6 C     3018   1 H                                       1.0926387
  3014   6 C     3019   1 H                                       1.0931936
  3014   6 C     3020   1 H                                       1.0923143
  3013   6 C     3021   1 H                                       1.0924913
  3013   6 C     3022   1 H                                       1.0929120
  3012   6 C     3023   1 H                                       1.0933346
  3012   6 C     3024   1 H                                       1.0918779
  3011   6 C     3025   1 H                                       1.0923881
  3011   6 C     3026   1 H                                       1.0930051
  3010   6 C     3027   1 H                                       1.0926875
  3010   6 C     3028   1 H                                       1.0914360
  3009   6 C     3029   1 H                                       1.0921906
  3009   6 C     3030   1 H                                       1.0914166
  3008   6 C     3031   1 H                                       1.0930757
  3008   6 C     3032   1 H                                       1.0920946
  3007   6 C     3033   1 H                                       1.0932745
  3007   6 C     3034   1 H                                       1.0926870
  3006   6 C     3035   1 H                                       1.0919997
  3006   6 C     3036   1 H                                       1.0912641
  3005   6 C     3037   1 H                                       1.0921406
  3005   6 C     3038   1 H                                       1.0935031
  3004   6 C     3039   1 H                                       1.0936492
  3004   6 C     3040   1 H                                       1.0929307
  3003   6 C     3041   1 H                                       1.0905831
  3003   6 C     3042   1 H                                       1.0927479
  3002   6 C     3043   1 H                                       1.0931601
  3002   6 C     3044   1 H                                       1.0927261
  3001   6 C     3045   1 H                                       1.0932831
  3001   6 C     3046   1 H                                       1.0930236
  3000   6 C     3047   1 H                                       1.0928241
  3000   6 C     3048   1 H                                       1.0920123
  2999   6 C     3049   1 H                                       1.0924303
  2999   6 C     3050   1 H                                       1.0930651
  2998   6 C     3051   1 H                                       1.0924807
  2998   6 C     3052   1 H                                       1.0914369
  2997   6 C     3053   1 H                                       1.0923661
  2997   6 C     3054   1 H                                       1.0929106
  2996   6 C     3055   1 H                                       1.0929062
  2996   6 C     3056   1 H                                       1.0915507
  2995   6 C     3057   1 H                                       1.0924124
  2995   6 C     3058   1 H                                       1.0928462
  2994   6 C     3059   1 H                                       1.0933444
  2994   6 C     3060   1 H                                       1.0919650
  2993   6 C     3061   1 H                                       1.0928190
  2993   6 C     3062   1 H                                       1.0933757
  2992   6 C     3063   1 H                                       1.0925273
  2992   6 C     3064   1 H                                       1.0926098
  2991   6 C     3065   1 H                                       1.0932943
  2991   6 C     3066   1 H                                       1.0914930
  2990   6 C     3067   1 H                                       1.0930075
  2990   6 C     3068   1 H                                       1.0931221
  2989   6 C     3069   1 H                                       1.0925567
  2989   6 C     3070   1 H                                       1.0919876
  2988   6 C     3071   1 H                                       1.0912661
  2988   6 C     3072   1 H                                       1.0935473
  2987   6 C     3073   1 H                                       1.0923071
  2987   6 C     3074   1 H                                       1.0920986
  2986   6 C     3075   1 H                                       1.0928768
  2986   6 C     3076   1 H                                       1.0909920
  2985   6 C     3077   1 H                                       1.0926855
  2985   6 C     3078   1 H                                       1.0931172
  2984   6 C     3079   1 H                                       1.0929632
  2984   6 C     3080   1 H                                       1.0931953
  2983   6 C     3081   1 H                                       1.0915252
  2983   6 C     3082   1 H                                       1.0916671
  2982   6 C     3083   1 H                                       1.0923766
  2982   6 C     3084   1 H                                       1.0935241
  2981   6 C     3085   1 H                                       1.0914912
  2981   6 C     3086   1 H                                       1.0932185
  2980   6 C     3087   1 H                                       1.0917695
  2980   6 C     3088   1 H                                       1.0926328
  2979   6 C     3089   1 H                                       1.0925212
  2979   6 C     3090   1 H                                       1.0930684
  2978   6 C     3091   1 H                                       1.0928736
  2978   6 C     3092   1 H                                       1.0913326
  2977   6 C     3093   1 H                                       1.0928704
  2977   6 C     3094   1 H                                       1.0927470
  2976   6 C     3095   1 H                                       1.0927537
  2976   6 C     3096   1 H                                       1.0926959
  2975   6 C     3097   1 H                                       1.0902520
  2975   6 C     3098   1 H                                       1.0925162
  2974   6 C     3099   1 H                                       1.0928018
  2974   6 C     3100   1 H                                       1.0918453
  2973   6 C     3101   1 H                                       1.0925294
  2973   6 C     3102   1 H                                       1.0929147
  2972   6 C     3103   1 H                                       1.0934496
  2972   6 C     3104   1 H                                       1.0915537
  2971   6 C     3105   1 H                                       1.0927774
  2971   6 C     3106   1 H                                       1.0925960
  2970   6 C     3107   1 H                                       1.0921082
  2970   6 C     3108   1 H                                       1.0931356
  2969   6 C     3109   1 H                                       1.0926327
  2969   6 C     3110   1 H                                       1.0928416
  2968   6 C     3111   1 H                                       1.0908529
  2968   6 C     3112   1 H                                       1.0929547
  2967   6 C     3113   1 H                                       1.0925050
  2967   6 C     3114   1 H                                       1.0931508
  2966   6 C     3115   1 H                                       1.0927539
  2966   6 C     3116   1 H                                       1.0933264
  2965   6 C     3117   1 H                                       1.0912153
  2965   6 C     3118   1 H                                       1.0916541
  2964   6 C     3119   1 H                                       1.0923331
  2964   6 C     3120   1 H                                       1.0927317
  2963   6 C     3121   1 H                                       1.0928318
  2963   6 C     3122   1 H                                       1.0922358
  2962   6 C     3123   1 H                                       1.0918124
  2962   6 C     3124   1 H                                       1.0916643
  2961   6 C     3125   1 H                                       1.0927401
  2961   6 C     3126   1 H                                       1.0919912
  2960   6 C     3127   1 H                                       1.0929509
  2960   6 C     3128   1 H                                       1.0922671
  2959   6 C     3129   1 H                                       1.0926366
  2959   6 C     3130   1 H                                       1.0914423
  2958   6 C     3131   1 H                                       1.0928123
  2958   6 C     3132   1 H                                       1.0924461
  2957   6 C     3133   1 H                                       1.0931439
  2957   6 C     3134   1 H                                       1.0924402
  2956   6 C     3135   1 H                                       1.0899969
  2956   6 C     3136   1 H                                       1.0924812
  2955   6 C     3137   1 H                                       1.0932623
  2955   6 C     3138   1 H                                       1.0924852
  2954   6 C     3139   1 H                                       1.0925603
  2954   6 C     3140   1 H                                       1.0930798
  2953   6 C     3141   1 H                                       1.0925938
  2953   6 C     3142   1 H                                       1.0893116
  2952   6 C     3143   1 H                                       1.0930460
  2952   6 C     3144   1 H                                       1.0929609
  2951   6 C     3145   1 H                                       1.0933161
  2951   6 C     3146   1 H                                       1.0925096
  2950   6 C     3147   1 H                                       1.0913654
  2950   6 C     3148   1 H                                       1.0928609
  2949   6 C     3149   1 H                                       1.0915142
  2949   6 C     3150   1 H                                       1.0926545
  2948   6 C     3151   1 H                                       1.0935902
  2948   6 C     3152   1 H                                       1.0925720
  2947   6 C     3153   1 H                                       1.0925514
  2947   6 C     3154   1 H                                       1.0924583
  2946   6 C     3155   1 H                                       1.0925867
  2946   6 C     3156   1 H                                       1.0913009
  2945   6 C     3157   1 H                                       1.0926115
  2945   6 C     3158   1 H                                       1.0910576
  2944   6 C     3159   1 H                                       1.0924181
  2944   6 C     3160   1 H                                       1.0928586
  2943   6 C     3161   1 H                                       1.0931015
  2943   6 C     3162   1 H                                       1.0926118
  2942   6 C     3163   1 H                                       1.0899316
  2942   6 C     3164   1 H                                       1.0913307
  2941   6 C     3165   1 H                                       1.0928638
  2941   6 C     3166   1 H                                       1.0929161
  2940   6 C     3167   1 H                                       1.0933769
  2940   6 C     3168   1 H                                       1.0922956
  2939   6 C     3169   1 H                                       1.0917844
  2939   6 C     3170   1 H                                       1.0911018
  2938   6 C     3171   1 H                                       1.0933056
  2938   6 C     3172   1 H                                       1.0919663
  2937   6 C     3173   1 H                                       1.0912289
  2937   6 C     3174   1 H                                       1.0905545
  2936   6 C     3175   1 H                                       1.0930432
  2936   6 C     3176   1 H                                       1.0932632
  2935   6 C     3177   1 H                                       1.0936050
  2935   6 C     3178   1 H                                       1.0916808
  2934   6 C     3179   1 H                                       1.0906793
  2934   6 C     3180   1 H                                       1.0909710
  2933   6 C     3181   1 H                                       1.0919632
  2933   6 C     3182   1 H                                       1.0919764
  2932   6 C     3183   1 H                                       1.0928555
  2932   6 C     3184   1 H                                       1.0925609
  2931   6 C     3185   1 H                                       1.0920398
  2931   6 C     3186   1 H                                       1.0923683
  2930   6 C     3187   1 H                                       1.0924671
  2930   6 C     3188   1 H                                       1.0922064
  2929   6 C     3189   1 H                                       1.0925020
  2929   6 C     3190   1 H                                       1.0909759
  2928   6 C     3191   1 H                                       1.0925914
  2928   6 C     3192   1 H                                       1.0934368
  2927   6 C     3193   1 H                                       1.0929612
  2927   6 C     3194   1 H                                       1.0924970
  2926   6 C     3195   1 H                                       1.0914679
  2926   6 C     3196   1 H                                       1.0917195
  2925   6 C     3197   1 H                                       1.0925906
  2925   6 C     3198   1 H                                       1.0925146
  2924   6 C     3199   1 H                                       1.0933502
  2924   6 C     3200   1 H                                       1.0936367
  2923   6 C     3201   1 H                                       1.0921850
  2923   6 C     3202   1 H                                       1.0925626
  2922   6 C     3203   1 H                                       1.0928242
  2922   6 C     3204   1 H                                       1.0913173
  2921   6 C     3205   1 H                                       1.0923372
  2921   6 C     3206   1 H                                       1.0925394
  2920   6 C     3207   1 H                                       1.0924983
  2920   6 C     3208   1 H                                       1.0931274
  2919   6 C     3209   1 H                                       1.0910155
  2919   6 C     3210   1 H                                       1.0909613
  2918   6 C     3211   1 H                                       1.0929750
  2918   6 C     3212   1 H                                       1.0935268
  2917   6 C     3213   1 H                                       1.0930954
  2917   6 C     3214   1 H                                       1.0913137
  2916   6 C     3215   1 H                                       1.0916300
  2916   6 C     3216   1 H                                       1.0932957
  2915   6 C     3217   1 H                                       1.0935254
  2915   6 C     3218   1 H                                       1.0929288
  2914   6 C     3219   1 H                                       1.0901663
  2914   6 C     3220   1 H                                       1.0927911
  2913   6 C     3221   1 H                                       1.0932117
  2913   6 C     3222   1 H                                       1.0927106
  2912   6 C     3223   1 H                                       1.0923615
  2912   6 C     3224   1 H                                       1.0930806
  2911   6 C     3225   1 H                                       1.0931366
  2911   6 C     3226   1 H                                       1.0911446
  2910   6 C     3227   1 H                                       1.0923710
  2910   6 C     3228   1 H                                       1.0929419
  2909   6 C     3229   1 H                                       1.0929448
  2909   6 C     3230   1 H                                       1.0925543
  2908   6 C     3231   1 H                                       1.0924729
  2908   6 C     3232   1 H                                       1.0925949
  2907   6 C     3233   1 H                                       1.0928688
  2907   6 C     3234   1 H                                       1.0932111
  2906   6 C     3235   1 H                                       1.0924282
  2906   6 C     3236   1 H                                       1.0924031
  2905   6 C     3237   1 H                                       1.0926761
  2905   6 C     3238   1 H                                       1.0937570
  2904   6 C     3239   1 H                                       1.0924545
  2904   6 C     3240   1 H                                       1.0923046
  2903   6 C     3241   1 H                                       1.0925815
  2903   6 C     3242   1 H                                       1.0938457
  2902   6 C     3243   1 H                                       1.0926791
  2902   6 C     3244   1 H                                       1.0922482
  2901   6 C     3245   1 H                                       1.0923680
  2901   6 C     3246   1 H                                       1.0932736
  2900   6 C     3247   1 H                                       1.0933939
  2900   6 C     3248   1 H                                       1.0924156
  2899   6 C     3249   1 H                                       1.0923029
  2899   6 C     3250   1 H                                       1.0925485
  2898   6 C     3251   1 H                                       1.0915832
  2898   6 C     3252   1 H                                       1.0924925
  2897   6 C     3253   1 H                                       1.0877684
  2897   6 C     3254   1 H                                       1.0877121
  2897   6 C     3255   1 H                                       1.0875741
  3016   6 C     3256   1 H                                       1.0876663
  3016   6 C     3257   1 H                                       1.0883571
  3016   6 C     3258   1 H                                       1.0873056

 * 2 distinct bonds (by element types)

   Z      Z             #   av. dist./Å        max./Å        min./Å
   1 H    6 C        2178     1.0922804     1.0944235     1.0855136
   6 C    6 C        1071     1.5274022     1.5339464     1.5218699


optimized geometry written to: xtbopt.xyz


           -------------------------------------------------
          | TOTAL ENERGY            -3427.553501723358 Eh   |
          | GRADIENT NORM               0.000955724314 Eh/α |
          | HOMO-LUMO GAP              11.491372415667 eV   |
           -------------------------------------------------

------------------------------------------------------------------------
 * finished run on 2024/10/04 at 02:54:12.784     
------------------------------------------------------------------------
 total:
 * wall-time:     0 d,  5 h, 31 min, 22.129 sec
 *  cpu-time:     1 d,  5 h, 14 min, 30.028 sec
 * ratio c/w:     5.295 speedup
 SCF:
 * wall-time:     0 d,  0 h, 13 min, 24.119 sec
 *  cpu-time:     0 d,  1 h, 26 min, 20.556 sec
 * ratio c/w:     6.443 speedup
 ANC optimizer:
 * wall-time:     0 d,  5 h, 17 min, 12.591 sec
 *  cpu-time:     1 d,  3 h, 47 min,  8.696 sec
 * ratio c/w:     5.256 speedup

