3864
 energy: -5104.243894975578 gnorm: 0.000990741475 xtb: 6.6.1 (8d0f1dd)
C           49.46638068892548       45.28241391140981       67.35209936354718
C           48.35675516964730       44.50740480142172       67.04243200551666
C           47.50875926880265       44.12991007655457       68.07696828403432
C           47.77765768783626       44.49341736824594       69.38411431773841
C           48.90482939639577       45.24018798926029       69.68175362714661
C           49.74708403412587       45.63841356482947       68.65889162802213
C           48.09870846295696       44.09263791032112       65.61409026228078
C           47.78569072617655       42.59808656714328       65.52515698813529
C           46.98315496426208       44.96889649118848       65.02416634534582
C           46.57189545935714       44.61557069297069       63.58388884995735
C           45.44388342583418       45.53092896875629       63.18148488978649
C           44.15535905686527       45.02767347130600       63.06325724048216
C           43.09608258366842       45.84919107753704       62.72613185284606
C           43.31277279327248       47.19615760499860       62.49838005116378
C           44.59326235161561       47.70991343522132       62.61462287108861
C           45.65009247693060       46.88612567182687       62.95572003453493
C           47.74505868582064       44.67314630211791       62.59606206925277
C           47.30244497809092       44.42223741007361       61.14510279301488
C           46.42037683945768       43.20327757498276       61.02974156523835
C           45.12703321597586       43.32467098903356       60.53933170416818
C           44.31284986819073       42.21575932378918       60.39024777856434
C           44.78633026376604       40.96171454039528       60.72897257200681
C           46.07317567159686       40.82530918323006       61.22069907122536
C           46.88304451495407       41.93661059825517       61.37048259268716
C           48.50672803955569       44.24384379081503       60.20374827617851
C           49.24342416166337       45.54422324683269       59.83897368748188
C           50.61813489343090       45.18973527524016       59.32802496801841
C           50.77811414192431       44.51523127229674       58.12297359510455
C           52.03439173371051       44.16356545446802       57.66404831736961
C           53.15518765720245       44.47000795531676       58.41396841199524
C           53.00968315671199       45.12351302504980       59.62510080382326
C           51.75198688956799       45.48728510781218       60.07378029384873
C           48.45047410657305       46.35406669901593       58.80707002512356
C           49.09141600897645       47.71795198728982       58.51191038422768
C           49.13202427362527       48.56520946126845       59.75705078667179
C           47.96941899649532       48.90000064642035       60.44577349455524
C           48.02005365655648       49.71015288017797       61.56533045925066
C           49.23480441343933       50.19588157116286       62.02011643915732
C           50.40151304373251       49.84226413615934       61.36577882479579
C           50.34532976160997       49.03380457304709       60.24384213857985
C           48.34321763841152       48.40488830936473       57.35585804410265
C           48.85556013029341       49.81930675692797       57.01359111433465
C           48.80457389669824       50.08651524362808       55.52963101085876
C           47.61306115464991       49.96807942852650       54.82296767231528
C           47.54866070827699       50.29745450684278       53.48220461635097
C           48.67521583142128       50.75686352650131       52.82319276377516
C           49.87220114894367       50.86392927285087       53.51000797854785
C           49.93249246022969       50.52796801316439       54.85110540537680
C           48.01574878804141       50.88860920506336       57.72780808556841
C           48.42389948510704       52.32390921669356       57.38327834860495
C           49.84418081261545       52.64852528541319       57.77392507929775
C           50.71998977924783       53.22333538604853       56.86196039866145
C           51.98440435231669       53.63045256657617       57.25222359194068
C           52.38959708318583       53.48193771252777       58.56782729791709
C           51.53019676645379       52.89827519309009       59.48266273565851
C           50.27399665682807       52.48074332461000       59.08551695630560
C           47.52781889204243       53.33866020935358       58.11099306783147
C           46.03858928264527       53.26558958900715       57.75919020802628
C           45.79476714477539       53.45986304165463       56.28478653949069
C           44.95344953319852       52.58679958434418       55.60634909268808
C           44.71929068267298       52.72873880577406       54.25076861956276
C           45.33704550935030       53.74693446765094       53.54661804684658
C           46.16385382658783       54.63579663591315       54.21087522551740
C           46.38147619969131       54.49703616086430       55.57025400575009
C           45.25071536048278       54.29671457469505       58.58685721908233
C           45.07150784085471       53.82120441000537       60.03909409309648
C           43.93081763388646       52.83417629860137       60.10355400349902
C           44.18272555153440       51.49961793790746       60.39915717634408
C           43.16135920564904       50.56637679769735       60.40875747218288
C           41.86420308588763       50.95351249945210       60.12536637725295
C           41.60184283392735       52.27975682593419       59.83206327868394
C           42.62376201026745       53.21093205490548       59.82079332518415
C           44.87968411063840       54.97045167024840       61.04255504874769
C           46.11286352167738       55.87957257420346       61.21605905892856
C           45.74790713374473       57.06636337363069       62.07504095165798
C           45.39321236479774       56.91697876279606       63.41081917065629
C           45.06922413108386       58.01519215953586       64.18600486894731
C           45.08246942104614       59.28518361755051       63.63549809013507
C           45.42529885755502       59.44652669637763       62.30506518811308
C           45.75597841624091       58.34608325407540       61.53575878063525
C           47.32481144954458       55.13709100075970       61.79687598082770
C           48.62087192978099       55.96746421832690       61.76773396825893
C           49.64847472482627       55.36927190782740       62.69774543865652
C           50.27475856774802       56.15044913381018       63.65990451245339
C           51.19995997020406       55.60450632825762       64.53277607184593
C           51.52321447097329       54.26210606918442       64.45159021715722
C           50.92105501036415       53.47670466266170       63.48406046368731
C           49.99222420681767       54.02394545295023       62.61865461586169
C           49.18714792023484       56.05615640327815       60.34196109978760
C           50.27627840720790       57.12658981280104       60.18487068573529
C           49.75525348391569       58.49337024654396       60.55477720477888
C           50.32141253787795       59.19890212070389       61.60929851948492
C           49.87302941912614       60.46427688303427       61.94403495553954
C           48.85001799797376       61.05162395052396       61.22067347717060
C           48.28000258196712       60.36248117486954       60.16519659528331
C           48.72663098911193       59.09584452005466       59.83906004607380
C           50.79329509396774       57.12149819531989       58.73701349441904
C           51.76276766374350       58.27729037147241       58.45221093177319
C           53.08682106881653       58.09136192968443       59.14545169720796
C           53.91008366992626       57.01290376876457       58.84136910008338
C           55.14399935435797       56.86907243875739       59.44790930207438
C           55.57572986722789       57.79814313164552       60.37944877395692
C           54.76283265424856       58.87207397474430       60.69620934469018
C           53.53104476414387       59.01666121818231       60.08045393159581
C           51.97453838797068       58.46901222388197       56.94444853146101
C           52.48458049215812       59.88214375731990       56.61457400794326
C           51.42396037437568       60.89990909622334       56.94596359190147
C           51.62132191974616       61.80662741287949       57.97965191296955
C           50.63406744730744       62.70812891001618       58.33595795412085
C           49.42967636877434       62.72312345741627       57.65492391128378
C           49.22445368268756       61.83397557798767       56.61437609515837
C           50.21112879358298       60.92983897127236       56.26671595118208
C           52.90276296466660       59.91861855309845       55.14201320517805
C           53.35901902379339       61.28426459226708       54.60375517108874
C           54.37810227242809       61.91902359179130       55.50849931578611
C           54.14162026549015       63.17365885503299       56.05625290298528
C           55.06577693552598       63.76708828237184       56.89836197364781
C           56.24335856373753       63.10975329206404       57.20995563874544
C           56.48659058139475       61.85535959610811       56.67508599321779
C           55.56242499637240       61.26528554581261       55.83286382543238
C           53.88479790046703       61.04986982343758       53.17866555131064
C           54.11882282478251       62.30206956572163       52.31855480904277
C           53.91652644862861       61.93234952707699       50.86793180284585
C           54.64578493382674       60.89968617106042       50.28780108804385
C           54.42975225956330       60.52991317910400       48.97326435112008
C           53.49190364442646       61.20124390081288       48.20642619136219
C           52.76153976562951       62.23221478355696       48.76982489832320
C           52.97232679619321       62.58754559780737       50.09053148359245
C           55.51444887841259       62.90074005737252       52.52942082922654
C           55.69917786572869       64.22065300874847       51.77051117383476
C           54.74399209865114       65.27977952463665       52.25829867584550
C           53.89391530611188       65.91846190850369       51.36375489500352
C           53.03635964088532       66.91872965660528       51.78677948708177
C           53.00457788390738       67.28954600417096       53.11980244931740
C           53.84720361036704       66.65940466895208       54.02030799716471
C           54.71467205410295       65.67010794766622       53.59222613182668
C           57.15011392729383       64.72130131897697       51.89890876311050
C           58.07989939438731       64.15972054842645       50.80669365627402
C           59.48937626357043       64.05154153003997       51.32937603956680
C           60.17354838672074       65.16863196891417       51.79571699705230
C           61.46142008587599       65.05524765797080       52.28766551102128
C           62.08606352669566       63.81971003094803       52.32718071304841
C           61.41508168552439       62.69989698397158       51.86693881724229
C           60.12921307050897       62.81935571855963       51.37053838256477
C           58.01862512294239       65.02704747565340       49.53918792035637
C           59.02555898171705       64.58276959808978       48.47130738556673
H           49.01899279844679       44.28404295111562       65.05482689624813
H           46.09576839877505       44.88695423143481       65.65899851808413
H           47.30774363407448       46.01212826065802       65.06770121539020
H           46.18234905691954       43.59254474781525       63.58267447632135
H           48.23055003625845       45.64819705089688       62.66190308477999
H           48.48137479249961       43.91914399918639       62.87816437615116
H           46.71387294759287       45.28365011598402       60.81511567480111
H           49.21894463551489       43.55719364923832       60.66951174426376
H           48.15924390750017       43.77528846946179       59.27980644463968
H           49.35754279798774       46.15273829856684       60.74236214362764
H           47.43717559231565       46.50358093523433       59.18126898646499
H           50.12439834603814       47.54291967951204       58.18629530274805
H           48.44577993671268       47.76721859006737       56.47340907892401
H           47.27971288569037       48.45588132562671       57.59797228316084
H           49.89577591865312       49.91202585322852       57.34578500149550
H           46.97586027776602       50.75068644146140       57.42928426009616
H           48.08091111666648       50.73816125084281       58.80473235529861
H           48.31191700934113       52.46962549670619       56.30336806662780
H           47.64688731885217       53.18296492831348       59.18325441805584
H           47.90257976363130       54.34107565617422       57.89295883810982
H           45.65007150699787       52.28017514335436       58.03408777584563
H           45.97088713374040       53.27899177728127       60.33720458398537
H           44.04431930298093       55.59808154389766       60.72601492835596
H           44.61997019853276       54.53712184423892       62.01162284372791
H           46.38351237190167       56.26993327420723       60.23234064345829
H           47.10861634308695       54.85651360596449       62.82932510609634
H           47.49489299893056       54.22162651333502       61.23347574692327
H           48.38757079258333       56.98106554679796       62.11399782360693
H           49.60507533258181       55.08880157961561       60.05453914524720
H           48.37594372027920       56.28931504542849       59.65211548193237
H           51.10927984919353       56.88321099619962       60.85428250262220
H           51.27011033490171       56.16179512635036       58.53125582537397
H           49.94055345432175       57.21851325034153       58.06214626344769
H           51.30088173657231       59.19426392079637       58.83472200083573
H           52.68931682609615       57.73514149511909       56.56905912180221
H           51.02734978878727       58.30762161586412       56.42693484344741
H           53.36591157028095       60.08597591257774       57.23326287841774
H           53.71679701180831       59.20141550754017       55.01322752944279
H           52.06195920486169       59.58578718366744       54.53029951583916
H           52.48923224182990       61.94963503920869       54.55454884606996
H           54.80636829760700       60.46854689158658       53.23624848191739
H           53.13839669542675       60.44123988088854       52.66571490778879
H           53.37727499515753       63.06133880736263       52.59242241783948
H           55.67552116537317       63.06551639647770       53.59548707254598
H           56.26997138304748       62.19068302429682       52.18694424713443
H           55.48530379313394       64.03831185380410       50.71165244195078
H           57.16067440317269       65.81283723640253       51.85065880525391
H           57.53462441747572       64.43914903814724       52.88210798786172
H           50.12582129324193       45.60823794847573       66.56144408081262
H           50.63004590303672       46.22272737280052       68.88065717791291
H           49.11990555144343       45.51431174310601       70.70589568554225
H           47.10906295349532       44.18781469644422       70.17829276675616
H           46.62695296610725       43.54165736862389       67.86776442029922
H           43.98360919411211       43.97409417475877       63.23125660479504
H           42.10186175721168       45.43609320002800       62.63769570827719
H           42.48679991608977       47.84146367518768       62.23742029411188
H           44.76743188961663       48.76250176289326       62.44262313934899
H           46.64114212436425       47.30579030282739       63.04860178742788
H           44.74880447173348       44.29903595494567       60.27058721284089
H           43.31186778413606       42.33571486254804       60.00254129205837
H           44.16350287490680       40.08806157016107       60.61002762378313
H           46.44433172996386       39.84486619831758       61.47949627041413
H           47.88708626236638       41.81357919383451       61.75284226818667
H           49.91482683396323       44.25664659532122       57.52933218262108
H           52.13769142587257       43.64588225376946       56.72070013929517
H           54.13721739828516       44.20359962159676       58.05077181341761
H           53.88475695841680       45.34410183749612       60.22148357431600
H           51.64520095635313       46.01439990709699       61.01317610095367
H           48.37279708044831       45.78698281605723       57.87739401224413
H           47.01218260009897       48.53683611783523       60.10088628845449
H           47.10940863535119       49.97014750896304       62.08621100380615
H           49.26694497677891       50.85076827377491       62.87858585434373
H           51.35982372452992       50.19992721814133       61.71650663417694
H           51.26245536434532       48.76567739027330       59.73848367805744
H           46.71988885341837       49.62691279290955       55.32405755522547
H           46.61415569570426       50.20789213231127       52.94930067813777
H           48.60903927603464       51.04233939629323       51.78181300137665
H           50.75819407570191       51.22914091619803       53.01007463932464
H           50.86515330614010       50.63698916292913       55.38787463354488
H           50.41143061817583       53.36140786937923       55.83557368509423
H           52.64966707329094       54.07274556029616       56.52293956117313
H           53.36688628853680       53.82103784756505       58.88256194543243
H           51.83075399021446       52.78345220187349       60.51389033605716
H           49.62175469952266       52.01981784281531       59.81216830103273
H           44.47690789291277       51.78380381761767       56.15267901032567
H           44.06117516346999       52.04141954814087       53.73766907896885
H           45.18234423688639       53.84417097602294       52.48288356451860
H           46.64416809165798       55.43537111901574       53.66337213309107
H           47.02618914380498       55.20211729009814       56.07478828264393
H           45.77420933844797       55.25193348484777       58.55734019315305
H           44.26849229582275       54.43928245669541       58.12988921499105
H           45.19525833213714       51.18528945110776       60.61411414685973
H           43.37845121385074       49.53229067673814       60.63007017905088
H           41.06511668165339       50.22750316415812       60.12200758498984
H           40.59750612771702       52.59431384855484       59.59511007695554
H           42.39458085492263       54.23807575192671       59.57589303765468
H           45.36970100296656       55.93571365763199       63.85997834559380
H           44.80661566272753       57.88476741545851       65.22580673184312
H           44.82749344442306       60.14196473669797       64.24375093333538
H           45.44103732653156       60.43254118545660       61.86285159565215
H           46.02391671764557       58.49013798841932       60.50044697344595
H           50.02787787008183       57.19968261436929       63.73574837567130
H           51.66302841998485       56.23139335911694       65.28298333557525
H           52.24026628409320       53.83137738146677       65.13567234316272
H           51.18089119364353       52.43082315236396       63.40559720357887
H           49.53173891678054       53.39431025003637       61.87309976944536
H           51.13271247376996       58.75389780486785       62.16978184836994
H           50.32743163142404       60.99596444186339       62.76939270352636
H           48.50288493825661       62.04255402947859       61.47747292776072
H           47.48333800480136       60.81685900872831       59.59458667111828
H           48.27214309205962       58.57904967350620       59.00722052904850
H           53.58128180406900       56.28029544705011       58.11878064672019
H           55.78200883869511       56.03203305072979       59.19992011590126
H           56.53931064543223       57.68255238844519       60.85555896507550
H           55.09102061189982       59.60372901874698       61.42219156257986
H           52.90283001370502       59.86160246657469       60.32990606591984
H           52.56291918512552       61.80550054521807       58.51262785959282
H           50.80481727132555       63.39943591860310       59.14958498332435
H           48.65669486715969       63.42548931705750       57.93287520635647
H           48.28918484129488       61.84889478363061       56.07313765254503
H           50.02935167770365       60.23968101628168       55.45576069225353
H           53.22390146631790       63.69501246316322       55.82001002471166
H           54.86584152849187       64.74508252714962       57.31406372698059
H           56.96642409680502       63.57114128734547       57.86778881874628
H           57.40197836689120       61.33513428059678       56.91931608287571
H           55.76770083854430       60.28496930652273       55.42806212535379
H           55.38815008163738       60.37720857418088       50.87329165830996
H           54.99105333094051       59.71143116279859       48.54685554023915
H           53.32911916979590       60.92346972623520       47.17526566756974
H           52.02622743655593       62.75972401791356       48.18118894577429
H           52.39561580032389       63.38869946760519       50.52978699688364
H           53.90667929372788       65.62624684462911       50.32303733401265
H           52.39045388851208       67.41851381872657       51.07872175669038
H           52.32780843087000       68.06474837467071       53.45048150708571
H           53.83224228223190       66.94547657787334       55.06278432580441
H           55.37291023817455       65.19788512427344       54.30681280900549
H           59.61222937341393       61.94369887607409       51.00377468277986
H           61.89440544381576       61.73150961461412       51.89059771881737
H           63.09178874498146       63.73476264893685       52.71347814499185
H           61.98113773341758       65.93390743858096       52.64337274070755
H           59.69644747419807       66.13768942605370       51.77664200724575
H           46.80153189851578       42.37072135452809       65.92726692656404
H           47.81393735874625       42.25467568753207       64.49459321085732
H           48.52678650582680       42.03810910307602       66.09054180167352
H           57.74353463262308       63.15152015394359       50.54392502105848
H           57.00145954191728       65.00141542466113       49.14812805765605
H           58.24142112599046       66.06414814656884       49.80280339499575
C           59.01416560994863       65.51658426578753       47.24177062344762
C           58.86265325174872       63.14466530054546       48.04635823264598
C           59.99585874572539       62.36604268483318       47.83882897859483
C           59.89062367224315       61.05830897475146       47.40168334286319
C           58.64736373127440       60.50570764884908       47.15214568283373
C           57.51320818389154       61.26866793879770       47.35784699379847
C           57.61788024386933       62.57247450378689       47.80848683051615
H           60.97435712632623       62.78897570158298       48.02772569802504
H           60.77984984243993       60.46799551563175       47.24485951059804
H           58.56691498394205       59.48990733386205       46.79957349712688
H           56.53772054414875       60.85267592945076       47.15971655740429
H           56.71390603470640       63.14003947237335       47.97229471146939
C           57.79484400500955       65.35849073689633       46.32801479276494
H           59.06940314910889       66.55233774943513       47.58819668127083
H           59.91278747827355       65.32134507356500       46.65281834085648
C           57.84815853365200       66.32777137953195       45.18190609089437
C           58.75828188154979       66.14453883830885       44.14661907188507
C           58.84128532788375       67.05547766350311       43.11019043745998
C           58.00379023078835       68.15872792275871       43.08189730199449
C           57.08066723464207       68.34109567194861       44.09746483740764
C           57.00886701822743       67.43366559916669       45.14063557346029
H           59.41191269910028       65.28430959304322       44.15116838532539
H           59.56668684933048       66.90532469371091       42.32218491876532
H           58.06440656583173       68.86939760875570       42.26960826383833
H           56.41315625074315       69.19175655554595       44.07953029387176
H           56.28199077808792       67.58971488995911       45.92497840148281
H           60.02363418006908       64.68222913909263       48.91792062869114
H           57.77587176360045       64.33577098315057       45.94465768700707
H           56.88732005103213       65.53343034123435       46.90396444494763
C           49.02709918916436       29.48539361985673       65.15192986229428
C           48.63203635260211       30.70741572255218       65.67985935208944
C           49.59050561696806       31.49810760714020       66.30521168286913
C           50.90068726062490       31.07239236921620       66.41598298395814
C           51.27775760647825       29.84425277811566       65.89913618529613
C           50.33850029105445       29.05472592182258       65.25954360202506
C           47.19245205549685       31.15087597360557       65.60030214052446
C           46.61550718299487       31.32455284862293       67.00809956750506
C           47.05647599695262       32.44837329688057       64.79294575834841
C           47.16470722003218       32.21180350159104       63.28592221815469
C           46.02025843504638       31.40531763507816       62.71937644133285
C           44.70173390094487       31.57568300280581       63.12655419745872
C           43.67675938857787       30.86205662811738       62.52874940385363
C           43.94802098992727       29.96959107742039       61.50602657290502
C           45.25594001619319       29.79350580597207       61.08667488921661
C           46.27673598504254       30.50496653553090       61.68984964809047
C           47.24685687947012       33.55097692937940       62.52613963682609
C           48.67501547475263       34.11157221570647       62.42692028536578
C           48.64537462296614       35.58938631645770       62.13045586313402
C           49.23765246625595       36.49247707632883       63.00355593514154
C           49.28339563779006       37.84215841100447       62.70409250616127
C           48.73136611825503       38.30998646938454       61.52500295541894
C           48.09727368323288       37.42629676275720       60.66788642118416
C           48.05499789439899       36.07779546433578       60.97044222241273
C           49.46438053993738       33.36593650363891       61.34219915515706
C           50.88824340686048       33.89456990504355       61.12778699136400
C           51.74577253027932       33.76107920552872       62.35836985686613
C           52.05435788977096       32.51460467411840       62.88993757710809
C           52.90695015557173       32.39976058133534       63.97248441766933
C           53.45344589844152       33.53228077590947       64.55049974604368
C           53.13704650429660       34.78097568345780       64.04539579337266
C           52.29648836144975       34.88957891087262       62.95308388999233
C           51.53640670024961       33.15567150902070       59.93963470920177
C           51.36078232503743       33.90805445885362       58.60556795445640
C           51.11692991408249       32.93837028664756       57.47806538947860
C           49.94356924832852       33.00762925952019       56.73731248042687
C           49.66252763420905       32.07423618963952       55.75582413195579
C           50.56130821688755       31.05592187400911       55.49306634879822
C           51.74458739811492       30.98647389022548       56.20987937983349
C           52.01869433430154       31.91932797135518       57.19328862480793
C           52.58115631485444       34.80638758994572       58.36177294301486
C           52.47859265597716       35.63842894572089       57.08029195694272
C           51.22891662725608       36.47771759167557       57.03176335689486
C           50.97135455165307       37.45113089208957       57.98932781889538
C           49.87374800722527       38.28430375348608       57.87070461765536
C           49.00738876680370       38.15182697291843       56.79938479268267
C           49.23665099573440       37.16346442758273       55.85851434952331
C           50.34113609424423       36.33930518705615       55.97453611690415
C           53.69425796139777       36.57093549702724       56.93044739155233
C           54.94624930869792       35.89214620804062       56.33897371619464
C           56.15513783837680       36.15714023207486       57.20226726774695
C           56.85919487546440       35.11335245170342       57.78673656189674
C           57.96919710362049       35.35799401869539       58.57777111452250
C           58.39944818049698       36.65582353626804       58.78587947729675
C           57.71135977618983       37.70493716255493       58.20013205580003
C           56.59501537636378       37.45889035612309       57.42340013181139
C           55.23768144450402       36.40484255134233       54.91959794732575
C           54.23612111684071       35.92422067554043       53.86097924104362
C           54.37563712236351       34.44796336436652       53.58799446897311
C           53.28914744675676       33.59376178475278       53.72188892945128
C           53.40018190676015       32.24485904416211       53.43619649010326