3864
 energy: -5104.101159497894 gnorm: 0.000777753036 xtb: 6.6.1 (8d0f1dd)
C           49.55238088165252       45.35127569880437       67.30349246843589
C           48.43157964974809       44.58245307473729       67.02125544641287
C           47.59685704320184       44.22234814050696       68.07208649931700
C           47.89125023576137       44.59702421466600       69.37065088311707
C           49.02846009818377       45.33833916372585       69.64156216952105
C           49.85692981749790       45.72002829805710       68.60144752220475
C           48.14912120990930       44.15586169493447       65.60032912495268
C           47.82044817164495       42.66337932845810       65.52893267620750
C           47.03495727480706       45.03691663669981       65.01528523529336
C           46.60973805905932       44.67431274294411       63.58137066781294
C           45.47835474893684       45.58619535701086       63.18083791247417
C           44.18649002028148       45.08420729748802       63.09653888300819
C           43.12369084460909       45.90109011101265       62.75967827628007
C           43.33907504608779       47.24236133810712       62.49887472333675
C           44.62261777697248       47.75490855922067       62.58317691094236
C           45.68355869533884       46.93592648037855       62.92364201596239
C           47.77587326026097       44.72294730686279       62.58437952724877
C           47.32299864663906       44.45906952422045       61.13885592195196
C           46.44046793980432       43.23808378214235       61.04403438615993
C           45.13778839847112       43.35718498117112       60.57842591419197
C           44.31984836490263       42.24791466364103       60.45411232348960
C           44.79901697966357       40.99628927437394       60.79353755102527
C           46.09539523048512       40.86228207141286       61.26030790728655
C           46.90944333328915       41.97375784297355       61.38494113355180
C           48.52021257034090       44.27412074835028       60.18982074265029
C           49.26115577458628       45.57076812112882       59.81914326043450
C           50.62976638221996       45.20753186328600       59.29656775777686
C           50.77813666669628       44.54751541605139       58.08200164048010
C           52.02897207747277       44.18550596961654       57.61569787335623
C           53.15486969234564       44.46491652054935       58.36834313008198
C           53.02055688424666       45.10400196690203       59.58852057727760
C           51.76889763173375       45.47984841194672       60.04410512180831
C           48.46254710354371       46.38611807374166       58.79605419580015
C           49.10499046241587       47.74936539385644       58.50059097609846
C           49.13919696627450       48.60069052631771       59.74368947406988
C           47.97320932717292       48.93915974904353       60.42500551844324
C           48.01891608264593       49.75374014810270       61.54172543569645
C           49.23162456291735       50.23997910777187       62.00131622497337
C           50.40120460534649       49.88401923594944       61.35347848324150
C           50.35023454692340       49.07121418016765       60.23450881631995
C           48.36283724789148       48.43201069103544       57.33799088523260
C           48.87704332368963       49.84452636073888       56.99085415555994
C           48.82123263978596       50.10659186945913       55.50566284576183
C           47.62691274732709       49.98570240421466       54.80421602361735
C           47.55736620714299       50.31258134027830       53.46301248415123
C           48.68110885347019       50.77155872907965       52.79905878223529
C           49.88089474458366       50.88036194751682       53.48087665910882
C           49.94687905915795       50.54683626430803       54.82245104249042
C           48.04072918383411       50.91723419654157       57.70448156978185
C           48.44868492753577       52.35114013978620       57.35298472825549
C           49.86793362641157       52.67565115518311       57.74949127455880
C           50.75626696913201       53.22214106657623       56.83229859305575
C           52.02107923067278       53.62604120340151       57.22449882198621
C           52.41266033704768       53.50550853894506       58.54707429555560
C           51.54012046572634       52.95130008691508       59.46778003017906
C           50.28468400431244       52.53327724769784       59.06830004899128
C           47.54710355458725       53.36922654245306       58.06891197622075
C           46.06031112878258       53.29556703087346       57.70606406497924
C           45.82858168570186       53.50325193447072       56.23110827017874
C           45.00193148444628       52.62957350239408       55.53545672627831
C           44.78375104752278       52.78114234050904       54.17810812231328
C           45.40334557658341       53.80947811930200       53.49026210000843
C           46.21392052310781       54.69997987798496       54.17211740233422
C           46.41510053229801       54.55175653639940       55.53312471489425
C           45.26354243384595       54.31401250557495       58.54086344310605
C           45.08069602188665       53.82165472993324       59.98726123119546
C           43.95090521658376       52.82151918941389       60.03444088439331
C           44.21694495500475       51.48549919047766       60.31052926708035
C           43.20523548421528       50.54185831487371       60.30788401946812
C           41.90381341784502       50.91970648742273       60.03190337026006
C           41.62762603964423       52.24695835429978       59.75671112815068
C           42.63997227448346       53.18852420060567       59.75687377458358
C           44.87206742472800       54.95815425204469       61.00186132605441
C           46.09795345056307       55.87173298979655       61.19701936721240
C           45.71936807019659       57.05663395609319       62.05386822306323
C           45.33140308066166       56.90100663145250       63.37945405265826
C           44.99607820098912       57.99733144986869       64.15286479589687
C           45.03364979663058       59.26992062239102       63.60976422448843
C           45.41299076643570       59.43740790868569       62.29018394872252
C           45.75346193087277       58.33891888136212       61.52219314359689
C           47.30491898984070       55.13406826235639       61.79439607440761
C           48.59801641659679       55.96875247164287       61.77133317063726
C           49.62084988063130       55.38188546455019       62.71390944634486
C           50.22747595101005       56.17079357910682       63.68218647464948
C           51.15043288942031       55.63586017884793       64.56387426935878
C           51.49189627211786       54.29798185676972       64.48470643918560
C           50.90804524432280       53.50467493827831       63.51245733159130
C           49.97996905080249       54.04055363570794       62.63876397593374
C           49.17524594318645       56.05213989886045       60.34986653612560
C           50.26089344438117       57.12633783236377       60.19669097657906
C           49.72694517405001       58.49411611065533       60.54638536088542
C           50.26272414703726       59.20319185873548       61.61421503304026
C           49.80215785217512       60.46833345840822       61.93229028884361
C           48.79891760873313       61.05128107489258       61.17880335202126
C           48.25958495050558       60.35847584768963       60.10994587277411
C           48.71729632731603       59.09135774198000       59.80013934271162
C           50.79782287154195       57.10668389753420       58.75648921601786
C           51.76806506727979       58.26306991327535       58.47606548458763
C           53.08664235218297       58.07299188263078       59.17932217899030
C           53.92047906207389       57.00672189478485       58.86247434664410
C           55.14570974104441       56.85535377658422       59.48547984076198
C           55.55458922330789       57.76300427621069       60.44773121019021
C           54.72995220131430       58.82395127364320       60.77713013443092
C           53.50844649609307       58.97803048906236       60.14396015301218
C           51.98218152836781       58.45658977972000       56.96967562015368
C           52.51777960929191       59.86102385147637       56.64425269943595
C           51.48267196381072       60.89899331018771       56.99392766751048
C           51.70771906305210       61.78604482096699       58.03887706304388
C           50.74462583419591       62.70697042761469       58.41032566751328
C           49.53933051313380       62.76213618099190       57.73316840711539
C           49.30729796962613       61.89296847944373       56.68159093768854
C           50.26906060594800       60.96757219633451       56.31937217677633
C           52.91971067777786       59.89691038731382       55.16713923306867
C           53.36921232852214       61.26273955331438       54.62378958969668
C           54.39419064395748       61.90146057405160       55.51958403677694
C           54.15470060035691       63.15355565194324       56.07135986711337
C           55.08465397216330       63.75029124793499       56.90461130997662
C           56.26895353632429       63.09889589954709       57.20197443965014
C           56.51435008725758       61.84702328436589       56.66288686284945
C           55.58468849405369       61.25268785710114       55.82958606902240
C           53.88147771699214       61.02692231561568       53.19435875353548
C           54.11364199457644       62.27880706973086       52.33357580526167
C           53.90511804840602       61.90697439643123       50.88471935972991
C           54.64226276271568       60.88367300450664       50.29763398691496
C           54.42018347605233       60.51228475847237       48.98449785631480
C           53.46905288489194       61.17344433163938       48.22513885183118
C           52.72946697000840       62.19373355829961       48.79604543193572
C           52.94532672359951       62.54962742520465       50.11561974761381
C           55.50916469104285       62.87853185740069       52.53953447749564
C           55.68685689545361       64.19830023750282       51.77852455151656
C           54.72150860704669       65.24977690402876       52.26395158316483
C           53.86806499768030       65.87899592787458       51.36612835362637
C           52.99634239290072       66.86796927723199       51.78708454268441
C           52.95280838707208       67.23447515396617       53.12089185991871
C           53.79934353051190       66.61350511953506       54.02390325609237
C           54.68244134901227       65.63707530355310       53.59832874272126
C           57.13552274654295       64.70457421568487       51.90669268974182
C           58.06500771876140       64.14108959274380       50.81507266209083
C           59.47444851231487       64.02493877208842       51.33668823446836
C           60.16703287810283       65.13933549903898       51.79636404947413
C           61.45542664727918       65.01865724124264       52.28466001273258
C           62.07114856292384       63.77902115366391       52.32777144920617
C           61.39104743181378       62.66163209340116       51.87550378078291
C           60.10469940140809       62.78809599372789       51.38177820866111
C           58.00669443499951       65.01136847786231       49.54935404207875
C           59.01200305303085       64.56529244094047       48.48096543029225
H           49.06328549042983       44.33236644032294       65.02590156086286
H           46.15212228848425       44.96690271420198       65.65706442220419
H           47.36729685395170       46.07797103590332       65.04497080617325
H           46.21960227706175       43.65176784572495       63.58900714221318
H           48.26374512880238       45.69791806700479       62.63818861810540
H           48.51328270427972       43.96993230797889       62.86653074958617
H           46.73062598922989       45.31656957366428       60.80541331092602
H           49.23288885994894       43.58541889160568       60.65189062915371
H           48.16439707703493       43.80709395273825       59.26819986427510
H           49.38702272285155       46.17836880166276       60.72162353132151
H           47.45277152420837       46.53783340473856       59.17913342593140
H           50.13933924900269       47.57308308668630       58.18146528598708
H           48.46962170004637       47.79060476242426       56.45890024549657
H           47.29792501864839       48.48436301134632       57.57487355398672
H           49.91778447822642       49.93658672011381       57.32018511471486
H           46.99915890779398       50.77741752799147       57.41203082288955
H           48.11061749487856       50.77163276470412       58.78195914019584
H           48.34164575532647       52.48967716710151       56.27199118493807
H           47.65787778770115       53.21954115539958       59.14313431073037
H           47.92418724076246       54.37038469894772       57.84890093182491
H           45.67297351198174       52.30580102378111       57.96788090641934
H           45.98468294081731       53.28534532989702       60.28460530375477
H           44.03533129252816       55.58294257033892       60.68341486095304
H           44.60486020775960       54.51015676408647       61.96266597093214
H           46.38181363084332       56.26332670264630       60.21700757516987
H           47.07871103396075       54.86070349125589       62.82701482282215
H           47.48215091017995       54.21161889516088       61.24241003736473
H           48.35512482560558       56.98257158508216       62.10808922552819
H           49.59764934208339       55.08407972071220       60.06947627516238
H           48.36897560484339       56.27700211495625       59.65031996370296
H           51.08537378862015       56.89087253737382       60.87862055112981
H           51.28044078732163       56.14601914143666       58.56655516250466
H           49.95414700476559       57.19062240565465       58.06724545255909
H           51.30313819374465       59.17876990410069       58.85637001635298
H           52.68000340015093       57.70936822248525       56.58750305138916
H           51.03034914043315       58.31527834202419       56.45282403294284
H           53.41055937728693       60.04056275731502       57.25273179875744
H           53.73126618314751       59.17819459633076       55.02818087357568
H           52.07197722739797       59.56272272921873       54.56406891908616
H           52.49659866890661       61.92434778030036       54.57947965923464
H           54.80048091255615       60.44000087828446       53.24170652252843
H           53.12772210073822       60.42214478897444       52.68650778239348
H           53.37178523207998       63.03667073709000       52.60854053986163
H           55.67142691759637       63.04399814641096       53.60478826554576
H           56.26422698580467       62.16813350965675       52.19608632082591
H           55.47475098164248       64.01173433110571       50.71963743852628
H           57.14161760661887       65.79556230474502       51.85396612003814
H           57.52065019649194       64.42551392686430       52.89010939827276
H           50.19880098129127       45.66195988079895       66.49637168697359
H           50.74600096098738       46.30155519497767       68.80014680069253
H           49.26159099246814       45.62351960109379       70.65749598612479
H           47.23268363933884       44.30479357946194       70.17704812070630
H           46.70628082930060       43.64143737175974       67.88032397212861
H           44.01511698440653       44.03565181727262       63.29063183210796
H           42.12737131762295       45.48834282445108       62.69685136490594
H           42.51108587201216       47.88489855472261       62.23638842716231
H           44.79534277991812       48.80367284306819       62.38606097335904
H           46.67682284021396       47.35511049944958       62.99045383737226
H           44.75574457170301       44.32995591382362       60.31086709302871
H           43.31181598642122       42.36717802968070       60.08530066610111
H           44.17354873076824       40.12251633832152       60.69500368616419
H           46.47042900819444       39.88395871471843       61.51990538766620
H           47.92074485342364       41.85341630624215       61.74815069401360
H           49.91015395954594       44.30824988878844       57.48741720704961
H           52.12325785316717       43.68097428638599       56.66498009714434
H           54.13153113903837       44.18806432726311       58.00034518847360
H           53.89878763286045       45.30389134533711       60.18718726918687
H           51.67015269593242       45.99586179227492       60.99045086721168
H           48.37509133037472       45.82227910500350       57.86525293448200
H           47.01708496803634       48.57654371413658       60.07560060013887
H           47.10495249650094       50.01725003709394       62.05543819512828
H           49.25885310814962       50.89752403927307       62.85786664988058
H           51.35780566082118       50.24294096912595       61.70591608208702
H           51.26904826711741       48.80123689687972       59.73419317719950
H           46.73623091765740       49.64527040410231       55.30997989504203
H           46.62114452445950       50.22219558739206       52.93475293428515
H           48.60972401934226       51.05556149724111       51.75808355211966
H           50.76415327119696       51.24653287656441       52.97787677655344
H           50.88050737251080       50.65767601782624       55.35610248044615
H           50.45684013006086       53.33964664496400       55.80110354767104
H           52.69533502645646       54.04429375124153       56.48986031842059
H           53.38932162955383       53.84301033520894       58.86267470362600
H           51.82768026832195       52.86117705032549       60.50493764428362
H           49.62117775794115       52.09372592971056       59.79837630868536
H           44.52530323770758       51.81882665465339       56.07010593730642
H           44.13667596586409       52.09357888004726       53.65199603360774
H           45.26201485829355       53.91382153713296       52.42593521118948
H           46.69447169476367       55.50764652432076       53.63788333487988
H           47.04627851846852       55.25801426692603       56.05264853027624
H           45.78322636856574       55.27184356908003       58.52422322315654
H           44.28254656216187       54.45623328786522       58.08120153982905
H           45.23332588772664       51.17854074341635       60.52046988078872
H           43.43383739368320       49.50690867578109       60.51409966677846
H           41.11336743642609       50.18461317059342       60.02052081727554
H           40.62006315595810       52.55421744274334       59.52607528738934
H           42.40117283690568       54.21638611891148       59.52626484776566
H           45.29068076431732       55.91551642262218       63.81914444580001
H           44.70502446556637       57.86017356409949       65.18337311004201
H           44.76958307104621       60.12371086471416       64.21593890773198
H           45.44995573981165       60.42405027631900       61.85304680217982
H           46.05031961689257       58.48362166669681       60.49490375900815
H           49.96476889360244       57.21535853652545       63.75409873715851
H           51.59660380022128       56.26685767696085       65.31871914707588
H           52.20787093862849       53.87387141331132       65.17322694352842
H           51.17950057769743       52.46120083126357       63.43528351331350
H           49.53154400580274       53.40462257316207       61.88991209158596
H           51.05846735733818       58.75904114738007       62.19588136986174
H           50.23217834828161       61.00214114026268       62.76777278866119
H           48.44230812724849       62.04143560278581       61.42114901368166
H           47.47835527052898       60.80755067765243       59.51501454782859
H           48.28750789167917       58.56967243563399       58.95731074010816
H           53.60602592248123       56.28953983208039       58.11755448809682
H           55.79201855685749       56.02801016838674       59.22619441934338
H           56.51004906940655       57.63910099852193       60.93628903326000
H           55.04056191948484       59.53778113748401       61.52659496652158
H           52.86948553520794       59.81132561692602       60.40123294699305
H           52.65123048370128       61.75209945581643       58.56536969063171
H           50.93538436271403       63.38226231200240       59.23151396826812
H           48.78549393451699       63.48024442360416       58.02079259313657
H           48.37230726535370       61.93835578484313       56.14111438188988
H           50.06728608227181       60.29132819692470       55.50035647604125
H           53.23091954189482       63.66734505745499       55.84461599598050
H           54.88293496775986       64.72556718543976       57.32373955135824
H           56.99627810524648       63.56245394176982       57.85233887584362
H           57.43447910948655       61.33049353390991       56.89497930396830
H           55.78911217592876       60.27405155171003       55.42000486887428
H           55.39585379683524       60.36902490180134       50.87593820036797
H           54.98694772122575       59.70020379590257       48.55257429019420
H           53.30340585543247       60.89537379937849       47.19441173283678
H           51.98313749327637       62.71168895048444       48.21317126598159
H           52.36074413520779       63.34132338205976       50.56034125437633
H           53.89003135886938       65.58743713158184       50.32513304385472
H           52.34963538541772       67.36130792228033       51.07541986787885
H           52.26474031010082       67.99994599183162       53.44876249888276
H           53.77598545452623       66.89619319114233       55.06641792150224
H           55.34487446293795       65.17192298353291       54.31312808232393
H           59.57892213676014       61.91465015337805       51.02118946202825
H           61.86184957661131       61.68933010429308       51.90369790118707
H           63.07682382014355       63.68807610455480       52.71171466669536
H           61.98186090102740       65.89484165930907       52.63491216727108
H           59.69507699128118       66.11056501622731       51.77449182164667
H           46.83886472009439       42.45018809054132       65.94489503685031
H           47.83270259748882       42.30858810188593       64.50119197371163
H           48.56337185305086       42.10180990005725       66.08994895039552
H           57.72394417860391       63.13476806778918       50.54956170240875
H           56.98910758684519       64.99029423971129       49.15836938126199
H           58.23377830487908       66.04676446481075       49.81471163638295
C           59.00242194531579       65.49807042201128       47.25071381640286
C           58.84498879642420       63.12785617829621       48.05582704341304
C           59.97573894082635       62.34430360094439       47.85279761528762
C           59.86670414693723       61.03829781887854       47.41176682958903
C           58.62237392908040       60.49269097203275       47.15188233697523
C           57.49051718497316       61.26021760562181       47.35369683686421
C           57.59875120725858       62.56159028117407       47.81065823124806
H           60.95459971475476       62.76137553838392       48.04818344292476
H           60.75282167341076       60.44299406210995       47.25840776715562
H           58.53854285083598       59.47915419527347       46.79361364100986
H           56.51423148527439       60.84981484470384       47.14600592754982
H           56.69567754690261       63.13113947528185       47.97303097527229
C           57.77836288470807       65.34954963739428       46.34201593390370
H           59.06616653221689       66.53318423700942       47.59622039141756
H           59.89617393792516       65.29395418866766       46.65803977042543
C           57.83935510653575       66.30750280258322       45.18601447034459
C           58.75159344492965       66.10828272132278       44.15573094210720
C           58.83978232764768       67.00630887483457       43.10852389239748
C           58.00455470094662       68.11057284465575       43.06436419898310
C           57.07986278472298       68.30885876804317       44.07535963431300
C           57.00358608484502       67.41511851786407       45.13008291688470
H           59.40168100201963       65.24541581487175       44.17336466163345
H           59.56767097072277       66.84390582271101       42.32599368362791
H           58.06899531258018       68.80988244524413       42.24346574904594
H           56.41494077086170       69.16048116075125       44.04664157812119
H           56.27650497730976       67.58183627631983       45.91214172816598
H           60.00991679651783       64.66095130464437       48.92718464619576
H           57.74339802184998       64.32362237421692       45.96715481781450
H           56.87401781110652       65.54039244379473       46.91882093978804
C           49.01567774909581       29.55534007563942       65.05865924888856
C           48.62369815581314       30.76011527270553       65.62642546276953
C           49.58187316940036       31.52688914354145       66.28079930332640
C           50.88918049907961       31.09083909190285       66.38585724263572
C           51.26271704245916       29.87814453749954       65.83169047706907
C           50.32437114046285       29.11561855813299       65.15932379402500
C           47.18701998349515       31.21357949424462       65.54937901178867
C           46.60685965587627       31.39523720695995       66.95415647192384
C           47.06579674574080       32.50943763117490       64.73684389917750
C           47.18082213008113       32.26258728789740       63.23209904350220
C           46.04176442610174       31.44550280823111       62.66823122361804
C           44.72303143133050       31.60239963123241       63.07970318283112
C           43.70405351950457       30.87790544765334       62.48426044517358
C           43.98238092273880       29.98911974611767       61.46034339191282
C           45.29092495806553       29.82512782006671       61.03848440105997
C           46.30600845945950       30.54614240828798       61.63996091773367
C           47.26022121080563       33.59578012032406       62.46205124201166
C           48.68401295233843       34.17076323891185       62.37952312345677
C           48.64561943221743       35.64636964721284       62.07360223939881
C           49.23369726940219       36.55885078687318       62.94015359693876
C           49.27660607002419       37.90603606229430       62.62930701569186
C           48.72556488349534       38.36274338101317       61.44518117078626
C           48.09206340822465       37.47062969993937       60.59615442711114
C           48.05352375672757       36.12451454460128       60.90988375063871
C           49.49673931324925       33.42834236438774       61.30980274237505
C           50.92538568267837       33.95662866404633       61.12949322184861
C           51.76043036990754       33.80430320123636       62.37376055654663
C           52.05938123477745       32.54982371366998       62.89137693575021
C           52.89561855947521       32.41908950924812       63.98463089178748
C           53.43150342481150       33.54267474833314       64.58886464738565
C           53.12211754970655       34.79902339344455       64.09885244445591
C           52.30073309948626       34.92408352197672       62.99363421052895
C           51.59330673996698       33.23154942422197       59.94445740227323
C           51.39497758402641       33.97602212535636       58.60857644526288
C           51.12669890048816       33.00463723572664       57.48764027190714
C           49.93524068730746       33.07067911426348       56.77611098351830
C           49.63486743792824       32.13847402096959       55.79892161962898
C           50.53219823648125       31.12570180916614       55.51139721793133
C           51.73254884207491       31.05973149144561       56.19933896544863
C           52.02592441474832       31.99048218872675       57.17903897744254
C           52.61376020449241       34.86935063422337       58.33930155457477
C           52.49518539292610       35.68482176332896       57.04893237247270
C           51.24393510175054       36.52131881991622       57.00684907940738
C           50.99827054310478       37.50754030019575       57.95449986578372
C           49.89720481190572       38.33665959988576       57.84099057685809
C           49.01498610567874       38.18799143781026       56.78474428636267
C           49.23163587225728       37.18589746276542       55.85536489664839
C           50.33926810292845       36.36548357580657       55.96642440673161
C           53.70726870957630       36.61670212905333       56.87148197504300
C           54.95961893914038       35.92432206149332       56.29570479812418
C           56.16319226524291       36.19709498911335       57.16514571794024
C           56.84649996468853       35.16019008099894       57.78483669027512
C           57.94539989221474       35.41285720704980       58.58842661999370
C           58.38613362575614       36.71065500322914       58.77251764281558
C           57.71961339768892       37.75253701366744       58.15028889643172
C           56.61276791770561       37.49928873998829       57.36197405195929
C           55.25801627130470       36.41658038436874       54.87119413454300
C           54.24881483831653       35.94145923087815       53.81725227310001
C           54.37583938131840       34.46345983252446       53.54562913367870
C           53.28484722738915       33.61788167758298       53.69440753165613
C           53.38300191989259       32.26778051640721       53.40913190917843