3258
 energy: -3427.530454205254 gnorm: 0.000678241651 xtb: 6.6.1 (8d0f1dd)
C          127.34758492620369      127.11394324242562      103.58434658443197
C          127.40448789991419      126.39841657906821      104.92870318446205
C          126.01071899767767      126.12019607653016      105.48603229488970
C          126.05961640743313      125.40297971415954      106.83297114944391
C          124.65970497297388      125.12165615447162      107.37163275555112
C          124.65201222921523      124.30829495068977      108.66535826044630
C          125.23130499833046      125.06402850615348      109.85931843410806
C          124.97722511552568      124.36370391825557      111.19523146750058
C          125.65161609251497      122.99748222127671      111.30337074300175
C          125.53771538692897      122.41400010784355      112.71032304378510
C          126.12929586513843      121.00945215651761      112.79843504810502
C          125.98939751035417      120.40472526512939      114.19309020440608
C          126.53233120703054      118.97863080036355      114.26089624086622
C          126.33264482368759      118.36040004168740      115.64196194420491
C          126.90118202090174      116.94679247636589      115.77217367123650
C          126.20902612806513      115.91673366031343      114.87984352654306
C          126.61079291400324      114.49166860913951      115.25458743302393
C          125.97578723057094      113.43811592974724      114.34867044559702
C          126.30917012934330      112.02290897767435      114.82044004433170
C          125.93971938519604      110.93167500047016      113.81515897820609
C          124.44403255940293      110.85186697158763      113.52275255208016
C          124.06385784519759      109.62879027443184      112.68679805858440
C          124.78209373789737      109.56691443095139      111.33594448319887
C          124.01722381817923      108.72228091221777      110.31960728225899
C          124.71894218631503      108.60790009293643      108.96660697254491
C          123.79699329647285      107.95488500644272      107.94116645706458
C          124.39750838268100      107.84407436585153      106.54187615223383
C          123.40217797442409      107.26882749042176      105.52907817397815
C          122.32065948323907      108.26430055083304      105.10774580056282
C          121.15161132175933      107.58307441946177      104.40052137714224
C          120.00267543905346      108.54370987926700      104.10193418895071
C          118.77259598210952      107.81549760464627      103.56469710786483
C          117.58616586166345      108.75201967396308      103.34853546720286
C          116.33074804014554      108.00339425805576      102.90769563348123
C          115.10635014625515      108.91216976448405      102.82932937625718
C          113.83398871558792      108.13809382422436      102.49343649535585
C          112.58526742677726      109.01703471422618      102.52732588745324
C          111.33616435970298      108.24499570673889      102.11037184425621
C          110.06434846485303      109.08993666243914      102.18584208405206
C          108.87080696873178      108.42539492608114      101.49711736621697
C          108.36912885214176      107.17331043410502      102.21903001556014
C          107.61110316027712      106.21157166505861      101.30156314799953
C          108.51246376325079      105.45364598192525      100.32477065931015
C          109.36857535520579      104.39218681943738      101.01092565086498
C          110.37613219439714      103.72182532893372      100.07826373519191
C          111.45326267374011      104.67381809919311       99.56126178341259
C          112.59886284972357      103.92474045321656       98.88484095335430
C          113.58048908028896      104.87781121279873       98.20998390224376
C          114.75567289253520      104.14913459923559       97.56441981803087
C          115.64597261620109      105.10673878289552       96.77661609793567
C          116.88094770973066      104.41288462820391       96.20727435783860
C          117.66975438978120      105.28656240307758       95.23082538848647
C          118.19653890079371      106.57096316004453       95.86644209137995
C          119.17702783906772      107.30988662607740       94.95954549570857
C          119.68105910253581      108.60479590821349       95.59423898067404
C          120.72052043629759      109.30048104896190       94.71996113215398
C          121.39107018622896      110.49244277707236       95.40199510427827
C          120.46680328650876      111.68917588130631       95.61384935522561
C          121.24148742970144      112.90776592773776       96.11106407596725
C          120.36216821768100      114.14766663729857       96.24929027383607
C          121.17149347116691      115.37514762780155       96.66045350227849
C          120.30857189906284      116.62881725469612       96.77519368176223
C          121.12393464874937      117.85937088963335       97.16468010678325
C          120.25374837784710      119.10907996592762       97.27103505078389
C          121.06076491819624      120.34861217152532       97.64936131037530
C          120.19600469150126      121.60618765880150       97.69159416045629
C          120.99238106862477      122.84443778872321       98.09793453923717
C          120.14414371638156      124.11277823377633       98.02602187555031
C          120.91733534696813      125.38645561759299       98.37494526557501
C          121.29100175467516      125.46694066985791       99.85276161866487
C          121.93306694407674      126.80109827340098      100.22609691542364
C          122.40182810349779      126.84640247992435      101.68221096910655
C          121.25519731445901      126.82024250826031      102.69099188890061
C          121.76094870109273      126.83130744562001      104.13143619037420
C          120.62171699831465      126.71245042945226      105.14211054400126
C          121.14087935579818      126.50302901483333      106.56203790213419
C          120.01875617932966      126.24689259454263      107.56494164491727
C          120.55881876442628      125.82787207706653      108.93060050010061
C          119.43616020072137      125.52622164595726      109.92046382744057
C          119.93688629839960      125.09168452392316      111.29903506271586
C          120.56710151766453      123.70054780122406      111.30364653134623
C          120.90478721576132      123.23063585756039      112.71602115760973
C          121.39143173560539      121.78371704381628      112.74899391385304
C          121.60010291928380      121.29001897679292      114.17834021685906
C          121.86888438181452      119.78840324594337      114.26247785556347
C          122.06126091198803      119.34608616514488      115.71078431997573
C          122.29150670877647      117.84425851801309      115.86543141376049
C          122.59000177694311      117.48976559686960      117.32152063403936
C          122.91613790635965      116.01629869993886      117.56292563336444
C          121.77345497710098      115.04795280730589      117.25667800408382
C          120.48562544483342      115.29685810622280      118.04193871517319
C          120.63917130479230      115.14949043465442      119.55541160610240
C          119.28243212157589      115.01818286072624      120.24713530807131
C          119.41300932502811      114.89933419084301      121.76540590215886
C          118.13724676433299      114.40651799339452      122.45142272370819
C          116.97478327331962      115.39539437852379      122.40181509901583
C          115.73639010227002      114.84430367742780      123.10859610907389
C          114.55644264126069      115.81186495772103      123.05183690644729
C          113.26238830663907      115.19745105777397      123.58403662756209
C          112.06556877240132      116.12200118875590      123.36544517816515
C          110.72041648928405      115.43090642768547      123.58112437630687
C          109.55553637244479      116.32753489357640      123.16462119976296
C          108.19880345067948      115.64140283905658      123.30259827534815
C          107.05069191570718      116.53220432649373      122.83014584877311
C          105.68454427991873      115.88569498987005      123.04950824251753
C          104.52981442413459      116.78915150549062      122.61801841665870
C          103.17601823697441      116.20532594075260      123.02023211472866
C          101.98838553104629      117.09776173781948      122.64719911472378
C          101.59803922882131      116.98055967620039      121.17621490863154
C          100.48900318343222      117.95268099644274      120.77833919585838
C          100.03469011120637      117.71971205820704      119.33796854814861
C           99.21002063976368      118.87419085097733      118.77306583953509
C           98.90870265412057      118.67146160743719      117.28977975444036
C           98.33350005553358      119.91584127155923      116.61920339493412
C           98.09025030257406      119.67768681751949      115.13114870644937
C           97.68345245713348      120.94229796817636      114.37956618564453
C           97.54265328440427      120.67728337128359      112.88276772739906
C           97.11345947874014      121.91086865261560      112.09458280857798
C           97.00825621208722      121.61643768670757      110.59967868663315
C           96.54448743693069      122.83135360655987      109.80597585883429
H           97.98328470053758      121.29206860572035      110.22808134365880
H           96.30846518190801      120.79175559645627      110.44376031726634
H           96.14521227744468      122.25995846095162      112.46302756010564
H           97.83505192119176      122.71630332413309      112.25453615868426
H           98.49794188053360      120.31888732269852      112.49191558130977
H           96.80882457262913      119.88355397785193      112.72735996830411
H           96.73620134487442      121.31711817992445      114.77615714168003
H           98.43499199152021      121.71994720274793      114.54098374373932
H           99.00472037752991      119.28056374713984      114.68537779345908
H           97.31032320430671      118.92325281913291      115.00832817195726
H           97.39913116069010      120.20091246125016      117.10760387121725
H           99.03393935712529      120.74685505201064      116.74179687389288
H           99.83292269229824      118.39408520632642      116.77891206375759
H           98.20992010798975      117.84164903808050      117.16718051722228
H           98.27787883841796      118.98000494258493      119.33353484794733
H           99.77010137111712      119.80556417972112      118.89655550713191
H          100.91852515680324      117.59030368884687      118.71107742356936
H           99.45608165122674      116.79583253501346      119.28364500561231
H           99.63894892502982      117.84386761804207      121.45706067817355
H          100.85882866245581      118.97628999117939      120.88293965484718
H          102.47293921861892      117.17710986835532      120.55461042084470
H          101.26849892907975      115.95925806768308      120.97512973975424
H          101.12649538093017      116.82089302195959      123.26073759784022
H          102.23100684123939      118.13776163236888      122.88100874759783
H          103.05103145738875      115.22726230572850      122.55024211991174
H          103.17754735514910      116.05424925521072      124.10347638483991
H          104.64659053021413      117.77015167988633      123.08723668786556
H          104.56777560898742      116.93250798534994      121.53683514731809
H          105.63302627946587      114.94704529234508      122.49374588212484
H          105.57269756226104      115.64583189732025      124.11017173263902
H          107.08740184650942      117.48122053406638      123.37259889439859
H          107.17975902836903      116.75477349757850      121.76887814625306
H          108.20198641174365      114.71940398326842      122.71748592117582
H          108.03753549756803      115.36720170464635      124.34767647541474
H          109.56461348317379      117.23751731584224      123.77093246185267
H          109.69589670588337      116.62543424444992      122.12351251191721
H          110.69162927222622      114.51516853747025      122.98673695132939
H          110.61210060071124      115.14492171080285      124.62980347278672
H          112.14465447149102      116.98806869752329      124.02755380131097
H          112.09802459977681      116.49401694589929      122.33960735960629
H          113.08126004096933      114.25541491496074      123.06264432250643
H          113.36796585820558      114.96558771648469      124.64622168988087
H          114.79654890587175      116.71395531442339      123.61992147424002
H          114.39838599597380      116.11081498004975      122.01331212671764
H          115.44667685111368      113.90308120703698      122.63329443061704
H          115.97824960162657      114.61885317422232      124.15003335824471
H          117.27545196273620      116.33552012202276      122.87081964050030
H          116.72153231488100      115.61159445128486      121.36185402902420
H          117.82623226332167      113.46889852299088      121.98419599115108
H          118.36424799982221      114.18855208838207      123.49832577106119
H          120.21429354876159      114.18931733387369      121.98989523205582
H          119.70633689159973      115.86465784837594      122.18616400170929
H          118.66662819999458      115.88398998039968      119.99340676327684
H          118.77647473936453      114.12933471663891      119.86325260159643
H          121.23662609156823      114.26023743950830      119.77433513613308
H          121.17372903119231      116.00977933333135      119.96536119837073
H          120.09812525909710      116.29001074869545      117.81052445736202
H          119.74275887339128      114.57410662156596      117.70012214576272
H          121.54321161128708      115.09341049599041      116.19010600022389
H          122.12453154245235      114.03411487680714      117.47101853501992
H          123.77660113392722      115.73845689248391      116.94860854938341
H          123.21407100247465      115.89642925547476      118.60742808378838
H          123.44611460924854      118.08405840420284      117.65613466439430
H          121.73864672075575      117.77772560088992      117.93980530236530
H          121.40447686214441      117.30824297442560      115.52432668177758
H          123.12821962371353      117.53581542234721      115.23320398527859
H          122.91597817516872      119.88325059066747      116.13368806465336
H          121.17945949149426      119.63107957719990      116.28982627324768
H          121.02968510062649      119.24315529842377      113.82284452931751
H          122.76197707267653      119.54074199778370      113.68400401534882
H          122.43587347142942      121.83220164602288      114.63002597529874
H          120.70917292458000      121.52403237181575      114.76697527577051
H          120.65393043217502      121.14802461886980      112.25313527998976
H          122.32677834316992      121.69999586185529      112.19033021817586
H          121.66771496685168      123.88407473451794      113.14783897669597
H          120.01107699653971      123.31489030076845      113.33854313596143
H          119.86312147528820      122.99408307308011      110.85632701141792
H          121.47374584815782      123.69930913186606      110.69506557512227
H          120.65980040358563      125.82269661437684      111.67003409361894
H          119.08944034731843      125.08734267893607      111.99025589170236
H          118.82075408518510      126.42285228872359      110.03562781300518
H          118.79553540967702      124.74122061873746      109.51014039020461
H          121.18292862715414      124.94224832942824      108.80078270382303
H          121.19186120641281      126.62324587075203      109.33170526768328
H          119.40622093130688      127.14614945967234      107.66909916293702
H          119.37211274238295      125.45355199672960      107.18086495946926
H          121.81581096272410      125.64500830101672      106.56230352157213
H          121.71860596111323      127.37658895816510      106.87324959119664
H          119.99594407043510      127.60726585169088      105.10203121127242
H          119.99131062174904      125.86221515091243      104.86814197756792
H          122.44669313211946      125.99212643680949      104.27060212728978
H          122.32371440443872      127.74870356224606      104.31882793432386
H          120.60327499315461      127.68117867998902      102.52346099726637
H          120.65934588014798      125.91846624219389      102.54283841803753
H          123.06172575816468      125.99581280637582      101.87037046065595
H          122.98708982492226      127.75628333927861      101.83735074958423
H          122.79388895386110      126.97249435520114       99.57441659099052
H          121.22046529539307      127.61057505185839      100.04890768350874
H          120.38475063540746      125.32570191164874      100.44355900900472
H          121.98537710569045      124.66182193473054      100.09958691216653
H          121.82154525737128      125.44139392549583       97.76371138753802
H          120.29792882990122      126.25160550251002       98.12343311800814
H          119.74923058743629      124.21002508505769       97.01115285682724
H          119.29055580886113      124.01442534109718       98.70124005169075
H          121.36854791495610      122.70620059927599       99.11276865671324
H          121.85446008703195      122.95187876132536       97.43472787249239
H          119.75303401788265      121.76870924368987       96.70549790851912
H          119.37506265658436      121.45762639639156       98.39792003961662
H          121.52311268608547      120.19436803850594       98.62772303444642
H          121.86558067825861      120.49092052692012       96.92395162820131
H          119.75704732074682      119.28403259051781       96.31298205374368
H          119.47532248096364      118.94178878504377       98.01951498441422
H          121.61447764003620      117.68029329003259       98.12392304753457
H          121.90581041563260      118.02502599721618       96.41938807607613
H          119.81220844297418      116.81322494206735       95.81865944319092
H          119.52649086535136      116.46552005878418       97.52131939020099
H          121.65550771344532      115.17971093825523       97.61963964932161
H          121.96090674654234      115.54884769597932       95.92475595518060
H          119.86791294553576      114.34622491539356       95.29432426477661
H          119.58190991931204      113.96126502844535       96.99065901932805
H          121.69851095452411      112.67736350435331       97.07645749143040
H          122.05242358960865      113.12411248711263       95.41054319271804
H          119.97652212639116      111.93714396082723       94.66853486842865
H          119.68701752318228      111.43615193903159       96.33487417173576
H          121.79627418265780      110.17399706109848       96.36460346131172
H          122.23151640065899      110.81457899331171       94.78088919822257
H          121.49474058966281      108.57383222868035       94.45655354481275
H          120.25356575138134      109.62886198169997       93.78770524236704
H          118.83569496413213      109.27302861696600       95.76845879527110
H          120.13023061941627      108.37869996902336       96.56444924187362
H          120.02863451118736      106.65806199336107       94.74519117588527
H          118.69231030737636      107.53758308932447       94.00636169323661
H          117.36144380090387      107.23393237790938       96.10046991978621
H          118.69869874402764      106.31958272789467       96.80281873468621
H          118.51593315831596      104.70721637536927       94.85093914257772
H          117.03679509217736      105.53773141416887       94.37551779795010
H          117.53418059781956      104.11560056295679       97.03087172289850
H          116.56985911160720      103.50266014594789       95.68628740373109
H          115.06693442050721      105.54221644399247       95.95747500905431
H          115.95495170351505      105.92051675159722       97.43481755766175
H          115.34749512610721      103.65878750335489       98.34078221463547
H          114.37862370755947      103.37108276504286       96.89417015433366
H          113.05208060409460      105.45413762924272       97.44532834183671
H          113.96234128075621      105.58979346726771       98.94639503025141
H          113.12905112133018      103.31943949147569       99.62418155334552
H          112.19012826858480      103.24356303786622       98.13452339956218
H          111.01841376196934      105.36968878522188       98.84092236851187
H          111.84756384965723      105.26209515668596      100.39430816339997
H          110.86448349066414      102.91087016303926      100.62407932693893
H          109.84968087392105      103.27407529727898       99.23026155601401
H          109.91845283539259      104.84467034027220      101.83610562835108
H          108.71148986901630      103.62585429648783      101.43245051037664
H          107.88960181498523      104.97232512996787       99.56537836023692
H          109.16035363725824      106.16575161118175       99.81382216170924
H          107.07372600257602      105.48317473444436      101.91431428470457
H          106.86653364362385      106.77490506458916      100.73236554134139
H          109.21164298072233      106.64357374527283      102.66041071747748
H          107.70917269321968      107.47267713618807      103.03591731440477
H          108.05155954230545      109.14580244998321      101.42217198174299
H          109.16722474384723      108.16844822568470      100.47902716703391
H          109.81974143338520      109.29596688933019      103.22975269496187
H          110.25175572823422      110.05096716099585      101.69907224009194
H          111.46651042131074      107.88783268483219      101.08568680816057
H          111.23731009544800      107.36937672416352      102.75509623463201
H          112.44797487516151      109.41560604140538      103.53611540640738
H          112.72502124159487      109.87034696675057      101.85883860265454
H          113.93386375986648      107.69170574402717      101.50069540982574
H          113.71295706737308      107.31762681227590      103.20704517814850
H          114.97606854736880      109.42015586442400      103.78714799364423
H          115.27182905165910      109.68142909601799      102.07159481914962
H          116.50348763827569      107.53998154340742      101.93298341226846
H          116.13064031924155      107.20041460461222      103.62201221111404
H          117.37575639465150      109.27932268063883      104.28217396445962
H          117.84585510936989      109.50242795724716      102.59895492164075
H          119.02368185222080      107.32146868657011      102.62183264113575
H          118.48512810829027      107.03485197139727      104.27518956897325
H          119.72916432608524      109.06932762234977      105.02004765951563
H          120.32870659459128      109.29442431917424      103.37918400980961
H          121.50159773756863      107.12838718905708      103.47075359301212
H          120.77637690777453      106.77625323226664      105.03593504949419
H          121.93659936134169      108.77824523241877      105.98991561227527
H          122.75857640911569      109.02226545271874      104.45476356330580
H          123.93923328909976      106.93745705106718      104.63648235532776
H          122.93069551148525      106.38508682469877      105.96928936452591
H          124.73105151819588      108.82817232353433      106.20414585736772
H          125.27526018893565      107.19361070751526      106.58818226614164
H          123.52726167837655      106.95494531005235      108.29134508673278
H          122.88092744820419      108.54462614923531      107.89427510877974
H          125.00150748121656      109.60153741863034      108.61361268154565
H          125.63187912847410      108.01993806914012      109.07244900410326
H          123.86244410833191      107.71999178511660      110.72227277235265
H          123.03136772496973      109.17118158468777      110.16772363453386
H          124.88903663446152      110.57951256304889      110.94445293265770
H          125.78529533202962      109.15569829157133      111.46954705947442
H          124.27642114416054      108.72049118321674      113.25697821621704
H          122.98466496804330      109.65972493177327      112.51324691051026
H          123.89439990179909      110.81605507890146      114.46737132396547
H          124.13008625748286      111.75260483406078      112.99196113025378
H          126.47964693545764      111.11233144667280      112.88471196008902
H          126.27428480550361      109.96925476055695      114.21187918771400
H          127.38481047702402      111.96387979466790      115.01353876408706
H          125.79930634197140      111.83266624156437      115.76868432291427
H          124.89340606257556      113.57768263022962      114.34251464560808
H          126.33463179782321      113.57740081631238      113.32629377520816
H          127.69968004406410      114.40164943930722      115.20459351760724
H          126.31552219399440      114.29780473333946      116.28975359538283
H          125.12587301344237      116.02160782586644      114.97821391908829
H          126.46482487585526      116.09882070475039      113.83480612253794
H          127.96984214379653      116.96225943576363      115.54260315288232
H          126.79530766605008      116.63152286076676      116.81414784385660
H          126.81489506345302      118.99938834657135      116.38723569069502
H          125.26589674699653      118.33764668643710      115.87178838449006
H          126.01966523407803      118.36954583452751      113.51449844528395
H          127.59804694987609      118.98356548144065      114.01717283363959
H          126.51909517642547      121.03098363690161      114.91600498494715
H          124.93418612241607      120.39830201820784      114.47477773474948
H          125.61581524908104      120.36579242061751      112.08065370336531
H          127.18606325725455      121.04068885514950      112.51973578091562
H          126.04923169799267      123.07025880934629      113.41951373156290
H          124.48492201134907      122.37706917864989      112.99921248780829
H          125.18897186622014      122.30727820187899      110.59623108484460
H          126.70733090071845      123.09151962957216      111.03565642710373
H          125.34864858742932      125.00481154204600      111.99962978303599
H          123.90094265908263      124.24537052481703      111.34253284717909
H          126.30739668490938      125.19368642933750      109.72679954247052
H          124.77991247283485      126.05919395927747      109.89772588390422
H          123.61941785826534      124.03381931446319      108.89556136523755
H          125.21671811493772      123.38770761761836      108.50730543152766
H          124.13961172033473      126.06814530074040      107.53636188262828
H          124.10327028120794      124.57057340948795      106.60801750421564
H          126.59803720088586      124.45882437527897      106.71962605595425
H          126.61419052395640      126.01817224463454      107.54406985052468
H          125.47229515084813      127.06438578870065      105.59929558748617
H          125.45292162235197      125.51029915726492      104.77074933325997
H          127.94261166980976      125.45400477221608      104.81378461321772
H          127.96254751226886      127.01009362894467      105.64191531448027
H          126.82783070660436      128.06477891820290      103.68098686045603
H          128.35009508801386      127.30719920474750      103.20947864772954
H          126.81773804555507      126.50810009531060      102.85259604749344
H           97.23989681671443      123.65852060260141      109.93298189663746
H           96.48102441288289      122.59570864507027      108.74599928537096
H           95.56285846888754      123.15631811515556      110.14441967435982
C          111.03730811026121      105.53538474473483      109.87609919284499
C          109.65403945621739      106.11642105194800      110.13118192461901
C          108.58427591714565      105.03905649315294      110.27968291008048
C          107.20100512452456      105.63693331529147      110.52112669182203
C          106.13287410935267      104.56754863135197      110.73762696313133
C          104.73990745817839      105.17362321614979      110.88050516838150
C          103.66566511700448      104.13417399263315      111.19290700598253
C          102.27611975143125      104.76459614876386      111.23200821611564
C          101.19055811468967      103.80554218387057      111.71420349187564
C           99.80991682181046      104.45321107973581      111.63960493253241
C           98.70940296009115      103.62332400752189      112.29635849576376
C           97.36007882099743      104.32814489624232      112.18948883706086
C           96.22274719495242      103.63528836575706      112.93582081942142
C           95.00749849879026      104.55555522807644      113.02581860645535
C           93.79562533545568      103.91552584878528      113.69884944675013
C           92.69231236869028      104.95072787112056      113.90911021653037
C           91.38861355291229      104.38601704937945      114.47148392703546
C           90.66080444376281      103.48573227328299      113.47628875258594
C           89.23672708913563      103.15786689496490      113.92199483564060
C           88.57172901904035      102.06864679713098      113.07671805293953
C           88.51478999751031      102.40904742827600      111.58915332029711