3864
 energy: -5104.208987913574 gnorm: 0.000782065647 xtb: 6.6.1 (8d0f1dd)
C           54.57882801614596       58.29048135378392       55.82081848670069
C           54.27775132613198       59.61748267954786       56.10580635046770
C           53.68271548997876       59.90865709757286       57.32716487386491
C           53.38141469230709       58.90885008479387       58.23514652199516
C           53.69197563578546       57.59253773459646       57.94063851184540
C           54.30234073668501       57.28978457614316       56.73483631862992
C           54.54233232654180       60.72005020001291       55.11180467501195
C           55.95348277530144       60.65560307165938       54.53404183546071
C           53.48987105195632       60.68197188452045       53.99065145968081
C           52.18050328013688       61.35291450914053       54.41959409067683
C           52.41312726153605       62.80601811050125       54.75502264063303
C           52.04342369192427       63.31886302631344       55.99231395251918
C           52.26133990776973       64.64794853988563       56.31093318194355
C           52.85795738266150       65.49145610436013       55.39071960866985
C           53.22065484128770       64.99675149417691       54.14898160215180
C           52.99601309159890       63.66966588894144       53.83349622518511
C           51.10928188485196       61.24634780420412       53.32285906698354
C           50.44030621878407       59.86204448782357       53.24186389115990
C           49.85548907722006       59.68979595471341       51.86448795457466
C           48.82556087589453       60.49964986877691       51.40360128932338
C           48.35581812058455       60.38260846369577       50.10818383981287
C           48.92443944652698       59.46173409283630       49.24405329366888
C           49.94974837807786       58.64792474507372       49.69348579878278
C           50.40058063752819       58.75348110102365       50.99592445424546
C           49.40705861482368       59.69690728571940       54.36094452448569
C           48.69273612584199       58.33665157486860       54.36276355519221
C           49.65240045324986       57.18621048875888       54.21287739312113
C           49.49703675653267       56.28951333512594       53.16256415208271
C           50.33948656278648       55.20145225115781       53.02325788765472
C           51.36015346785010       54.99727677332655       53.93473426905266
C           51.53850772120327       55.89543433839319       54.97337777957495
C           50.69169519692487       56.97969089670271       55.11248837743071
C           47.86489985699205       58.22178121457218       55.65707027030719
C           47.36118907847916       56.80830698601618       55.96860331848914
C           46.60546025165365       56.16894765709753       54.83013549325855
C           45.52809834921900       56.81355156829683       54.23637091565391
C           44.76453425333899       56.18434699667287       53.27006013754415
C           45.07569102420521       54.89638858562292       52.87148383898941
C           46.15693625055995       54.24822966782239       53.44133905459136
C           46.90973583119933       54.87851624137566       54.41591991265594
C           46.41244384782460       56.79092355947784       57.18176784583735
C           46.93640402729707       57.38386525532675       58.49635480960620
C           45.83789935131742       57.30416311291089       59.53071806256140
C           45.31680987791621       58.45769859210134       60.10318813655697
C           44.30352873486856       58.39259238943946       61.04498138072557
C           43.78707073092037       57.16614339253812       61.42529707503195
C           44.29353050171471       56.00884509774074       60.85943041530468
C           45.31001873380769       56.07871067319436       59.92500334850460
C           48.19821211062430       56.67125789785497       58.99039637347462
C           48.78247210031866       57.34858782555801       60.23681214017434
C           49.13538355069157       58.78232446242288       59.93811378159145
C           50.01571897784608       59.10352695118448       58.91227092971383
C           50.31548376991346       60.42171201375117       58.62394407125321
C           49.75005783536329       61.44398894610939       59.36454188846353
C           48.88343935444173       61.13736098173847       60.39904891191914
C           48.58016630728143       59.81704093341921       60.68202972240748
C           50.01917505577354       56.59131389020417       60.74432727895737
C           49.63232636354400       55.31456751675798       61.50362554988673
C           48.93960613519015       55.70148719064299       62.78740109228357
C           49.62343097741261       56.34276579305549       63.81405885738074
C           48.95974199305542       56.76007613411180       64.95341176568441
C           47.59689258169559       56.55293127218184       65.08221260524739
C           46.90487215302136       55.91694016570167       64.06671386271886
C           47.57401520332250       55.48986508717194       62.93451758321049
C           50.83601688532467       54.40011725833516       61.76766169151134
C           51.55302128927472       53.91260054818434       60.49258823920548
C           50.57561772921939       53.48210329565988       59.42827262474174
C           50.61658272849962       54.05687854920804       58.16304657139083
C           49.73253683994771       53.66740514435604       57.17263895272610
C           48.77821023933976       52.70131598988190       57.43804096667071
C           48.72281412285629       52.12179143654369       58.69484871332054
C           49.61477058169407       52.50785891644082       59.67905590203859
C           52.54218726011176       52.79211282880236       60.85966743683617
C           53.61334053609152       52.52014513148865       59.78378462119232
C           54.85854381360089       51.98176953576282       60.44593101290154
C           56.02149328038703       52.74176040720874       60.49364341617494
C           57.15346600719605       52.27356764617183       61.13913701148228
C           57.14791189433242       51.02519223687712       61.73689177820796
C           55.99617056048237       50.25842437964207       61.69471192601650
C           54.86094450543564       50.73901641486863       61.06797368408989
C           53.06114601831950       51.56185702109629       58.72554901514425
C           53.94334545317742       51.32545523232988       57.48797624907332
C           53.26285337095413       50.21955760090285       56.71884883261479
C           51.99714015081440       50.39238874683758       56.16782685971142
C           51.31532856676009       49.32482101861459       55.61246196456642
C           51.89323533742173       48.06701667924654       55.58969473283675
C           53.16909084870506       47.89212185005886       56.09566154271256
C           53.84379434866363       48.96064504504046       56.65901157659606
C           54.14341566008166       52.60531252227459       56.66656323981078
C           54.75020265040322       52.35244641290048       55.27570715693928
C           55.99236727619023       51.50299654381360       55.32873271380309
C           56.07185578598838       50.33189416754976       54.58608088224259
C           57.23890455390526       49.58794699003293       54.55456456106702
C           58.34491562950954       50.00220157214326       55.27544098525707
C           58.27012893024214       51.15230218615702       56.04196210011350
C           57.10371063608810       51.89342293344549       56.06865975417733
C           55.04752268757445       53.69689785833592       54.58688087994511
C           55.34083642046159       53.58109309672712       53.07697071835302
C           54.78656131601126       54.79148782315272       52.36512586119608
C           53.70494156706811       54.66449669810935       51.50353514579140
C           53.18151946369846       55.76751963438814       50.85383964902154
C           53.74450740536459       57.01623023359537       51.04470022964530
C           54.81576708421661       57.15912077985060       51.90974464152643
C           55.32589966412668       56.05691869589695       52.57064118204218
C           56.83710839859906       53.41869418857528       52.77820766077426
C           57.10801853466529       53.26652144429337       51.27397092016680
C           56.47592466306602       52.02210788596367       50.70951563373167
C           56.81047331691003       50.76599502051678       51.20334696216588
C           56.27401789016162       49.61992870218145       50.64713660177221
C           55.39496980304454       49.71149809172650       49.58125857256556
C           55.04088997493002       50.95553423008369       49.08897149452776
C           55.57942256887069       52.10010649768312       49.65158944084625
C           58.61909911046670       53.26164095435443       51.00201930197543
C           58.96991628040765       53.21213047546047       49.49689121487878
C           59.98507339626418       54.27799745696365       49.16376645652364
C           61.35355242810073       54.08335878207189       49.30297089535986
C           62.25381622667653       55.08238004831551       48.97049473463559
C           61.79689710870028       56.30662721614096       48.51586640637163
C           60.43528605352896       56.52515237287800       48.40722191667113
C           59.54126682442934       55.51913104820051       48.72029029173587
C           59.41244429740114       51.80451392487942       49.07976608939687
C           59.88219412775512       51.71313455639891       47.62024275441681
C           58.91100041349907       52.38587317681790       46.68685305584715
C           59.29538219294336       53.50131695456832       45.95341703356210
C           58.41291762492851       54.11452366616689       45.08234920362928
C           57.13428668196170       53.61273592027250       44.91916374727771
C           56.73732896431716       52.51337388359630       45.65914215159369
C           57.61378916769782       51.91010264050148       46.54030957956013
C           60.07009812072668       50.24158824585584       47.23118832963477
C           60.75949872123600       50.08382636453180       45.86835567705210
C           62.22582926768114       50.41513500473066       45.97428815252179
C           62.77402458773509       51.46011315736639       45.24376304376393
C           64.12467376165080       51.75379300793738       45.31735272407352
C           64.95243169716487       51.00591442047356       46.13544671134764
C           64.41551025882360       49.97266442059118       46.88564896943323
C           63.06706755041636       49.68021796474407       46.80353026015779
C           60.56480088883459       48.66089786188864       45.33149355944349
C           60.95001630320247       48.51243234127708       43.85281454971683
C           59.94749229649901       49.20171722355902       42.96191529030659
C           60.34483992467106       50.24352466647417       42.13490205454374
C           59.43850146464402       50.88434611378580       41.30790978228723
C           58.11407871228094       50.48532265989980       41.29175838238065
C           57.70416867575013       49.44303709869266       42.10591982325221
C           58.61237300346275       48.81118585820526       42.93585541687472
C           61.05898806102173       47.02044076741493       43.50482171273842
C           61.38538169268779       46.75042225604997       42.02994790107178
H           54.44957896161223       61.68253337452310       55.62966005067652
H           53.88379474550093       61.19440529738781       53.11189912473476
H           53.29849225941304       59.64502982414396       53.70823501029448
H           51.81588274209320       60.84812808581061       55.32003923471805
H           50.33695543783449       61.99829606161599       53.50598054524274
H           51.57410870183784       61.47616700046915       52.36062011887359
H           51.20910976028949       59.09412125259753       53.37522973280708
H           49.91678406957766       59.82657516063934       55.31772575221776
H           48.65450262418464       60.48552362534947       54.29102822259933
H           48.01473604538470       58.30568241767278       53.50386128696896
H           47.02284876658794       58.91447747122351       55.59385889771417
H           48.22665387598018       56.17702988188354       56.19076639390082
H           45.50181291413482       57.33124477103817       56.91784348381192
H           46.13387396226309       55.75289078795083       57.36802778762300
H           47.17565907233050       58.44089827867384       58.34131322211076
H           47.96118483861721       55.63060731878273       59.21280875612368
H           48.94743481883706       56.67330474921742       58.19911864282994
H           48.02372206022957       57.34275247675257       61.02776147537411
H           50.64644871579649       56.34116087431315       59.89023510660627
H           50.59071158179245       57.23930117473417       61.41199272463208
H           48.91743886890360       54.75269236207595       60.89632462125452
H           52.14088142816885       54.74789780264309       60.09853408005306
H           53.05458455632470       53.08326166993366       61.77711089903985
H           51.99556857686158       51.87107670646684       61.06710313745022
H           53.86501289248492       53.47198645866958       59.30784428358960
H           52.88326037713342       50.59119576926365       59.19450087316959
H           52.09661064310357       51.93925657796184       58.38843212198254
H           54.92605979997691       50.96566272054543       57.81504342671423
H           53.18092521883860       53.10518752717770       56.53546120050626
H           54.79674956349867       53.27699102799687       57.22592709430725
H           54.00150882864224       51.81895670317348       54.67871308944413
H           54.17393266724886       54.34064905543107       54.71362600635901
H           55.89025357480178       54.18320918882102       55.08166832733676
H           54.82494772660054       52.69447580395494       52.69080333520096
H           57.37826008451891       54.29702569155127       53.13763941213379
H           57.22188041782787       52.55034172530586       53.31314799010283
H           56.67789827396219       54.13700561015924       50.76462645255702
H           59.04194573825593       54.16860498971729       51.43926289266930
H           59.06900689886205       52.40709888415169       51.50939352751735
H           58.06275538994962       53.44987680125922       48.93060469927227
H           60.22384383494510       51.45574103853199       49.72185377245955
H           58.56792392232887       51.12850603961338       49.22673247691830
H           60.85036989089235       52.21890761117719       47.52929528759297
H           60.65545899318034       49.73567362812499       48.00121522645781
H           59.09130428814393       49.76112535971661       47.19242112179082
H           60.28661519912436       50.77785211741458       45.16293176542621
H           61.16235661389173       47.97138752270003       45.93056271548235
H           59.51721844248694       48.38404234983561       45.44438605715125
H           55.03000672474637       58.02887539253527       54.87604775027274
H           54.56598736182031       56.26768322644426       56.50097758289636
H           53.46400734796400       56.80906883502782       58.65017284939353
H           52.90260145181558       59.16627009323569       59.16911164364416
H           53.44935638455276       60.93655096264722       57.57197568999921
H           51.58122404751968       62.67169461140835       56.72502221663991
H           51.96875762276537       65.02468518475807       57.28240686701813
H           53.03802611163936       66.52860591445969       55.63888838502379
H           53.68478887932135       65.64783134347680       53.42231113044365
H           53.28446529631511       63.30729408248632       52.85746964165848
H           48.38219120310838       61.23030681440576       52.06357287783538
H           47.54422461063954       61.01409507689780       49.77457220927865
H           48.57568846620611       59.37975793774094       48.22312013731953
H           50.40742989882085       57.93060741644599       49.02737679291603
H           51.18771490821347       58.10193389917509       51.34697904534203
H           48.70483698680780       56.43961635715431       52.44150847474460
H           50.19110799849214       54.51363695861173       52.20303211043486
H           52.01669238156332       54.14524657328584       53.83341312380394
H           52.34059472852124       55.75299448618711       55.68224759050636
H           50.84692050904528       57.67156579359996       55.92828993270557
H           48.48642126938562       58.54637308365040       56.49401683772422
H           45.28098277412654       57.82057768289975       54.53925375391343
H           43.91849515081336       56.69853736932118       52.83664550388510
H           44.47791564017156       54.39891355709344       52.12241021271923
H           46.41013784795227       53.24587002623624       53.12731191498384
H           47.74653268319761       54.36187904647876       54.86416544307587
H           45.70780303409827       59.42547818243850       59.81818147125784
H           43.91717620507040       59.30426744774329       61.47989792516830
H           42.98838185168349       57.10963835453374       62.15179481211568
H           43.88536342083356       55.04892423154502       61.14347288194104
H           45.68715416636123       55.16078684362517       59.49808367851301
H           50.47617219781897       58.31770676864691       58.33211808114876
H           50.99908148870366       60.64611834576161       57.81792745634564
H           49.97373581366190       62.47650453920061       59.14377012808274
H           48.44455343903832       61.93634677464416       60.98157331119684
H           47.89856985038751       59.58086816858018       61.48957518816511
H           50.68363683758457       56.53568064580391       63.73256060529671
H           49.50908566512705       57.26101847949057       65.73905046996312
H           47.07693476759167       56.89003793444462       65.96851126836468
H           45.83915583550156       55.75929875441177       64.15097238475018
H           47.01767436906741       54.99734505856093       62.14953606459760
H           51.56193398117333       54.92800820465986       62.38931435154666
H           50.47826342476682       53.53948157482302       62.33819235718677
H           51.35693617059927       54.81277285840478       57.94083396353830
H           49.79639851776680       54.12025234966210       56.19271826137265
H           48.07985582821548       52.40275736721554       56.66899485761606
H           47.98196673289905       51.36422453802170       58.91227599509787
H           49.55523658050968       52.04674232842184       60.65383463551795
H           56.04408403788605       53.71654128702102       60.02528043693994
H           58.04702238607381       52.88076046597442       61.17358803219547
H           58.03579338563151       50.65286863041645       62.22885290913511
H           55.97788112600958       49.27834510178660       62.15151722900399
H           53.96946918047942       50.13258270514812       61.07232855720182
H           51.52358267599531       51.36354138641051       56.18950419528742
H           50.32570853830502       49.47021274442830       55.20469473262457
H           51.34524876153373       47.22353785183404       55.19153792611264
H           53.63001176798416       46.91521371297868       56.07507143307111
H           54.83159938305072       48.81852404979589       57.07675104327141
H           55.21770191598296       50.00345047619660       54.00945660958801
H           57.28557239301645       48.69123608609287       53.95307496087382
H           59.26748476142038       49.43992123078831       55.23916357417799
H           59.13341351797082       51.47414564002295       56.60427853775470
H           57.06653527001265       52.79481939936802       56.66318841488477
H           53.27172331277065       53.68832874309938       51.33285452577339
H           52.33133984034103       55.65270635528240       50.19746841493411
H           53.34950533824914       57.87168296253954       50.51583954163047
H           55.25861685536531       58.13312453116386       52.06707118056663
H           56.16330986925720       56.18517359828822       53.24182197870240
H           57.50053229270265       50.67895979801435       52.02999159216918
H           56.54476153739375       48.65028839685060       51.03895910709767
H           54.99134699278153       48.81369046933194       49.13591376421448
H           54.34856049018227       51.03185467318541       48.26317040411475
H           55.30199452264016       53.06918729963631       49.25890575185841
H           61.73251089625243       53.13696266245893       49.66047788732523
H           63.31589206023894       54.90120256659502       49.06261285640454
H           62.49284501642829       57.08615192001687       48.23890722950348
H           60.07945575657597       57.48703363997814       48.06784533919360
H           58.47898444502371       55.69099793883182       48.61231633234625
H           60.29539245537668       53.89699320533499       46.07484350105678
H           58.71864198339401       54.99376456807875       44.53308111799863
H           56.44996534728199       54.08463600267537       44.22963336338967
H           55.73827486513387       52.11973163049439       45.55732444603935
H           57.27512770827953       51.06531321855513       47.12241212373736
H           62.13225734933093       52.05238472302411       44.60854230784486
H           64.53154777225477       52.56884186237252       44.73292789069231
H           66.00846262711120       51.22868624664210       46.19688408763864
H           65.05403213864540       49.39572607802072       47.54012065987395
H           62.67073907486011       48.87013957263579       47.39986288716928
H           58.27403753461299       48.00415133648679       43.57148235691131
H           56.67184220758836       49.12303961278727       42.08882785706103
H           57.40362777944119       50.98483070460729       40.64837190692933
H           59.77243293197792       51.69772700098363       40.67882564550831
H           61.38049438072736       50.55466264895765       42.13332727793320
H           56.68285026038686       60.70979799371209       55.33795068265848
H           56.11990722387441       59.74002446719042       53.97336585408698
H           56.11578001934917       61.50108676358175       53.86884186382847
H           61.92996168560544       48.97888128863762       43.69872667538415
H           61.83291001500044       46.57493531970429       44.13393885038487
H           60.11245307786333       46.53905946135032       43.75117219347445
C           61.67452996027310       45.25909690115383       41.78825371796127
C           62.56510908770263       47.56767890590217       41.56664458960045
C           62.45699309903730       48.37165515558541       40.43909398328249
C           63.52597775065842       49.13501462002627       40.00364038711942
C           64.72632395971726       49.10470526959073       40.69202322614765
C           64.84933489951042       48.30221932209458       41.81368630302942
C           63.77904206571817       47.53932972398020       42.24395538090283
H           61.51982030620005       48.40753607856983       39.90077926876915
H           63.41989517553428       49.76006027179634       39.12830255693385
H           65.56121555534745       49.70360611207182       40.35742755262042
H           65.78298139475291       48.27415371440994       42.35757703830134
H           63.89317728660907       46.92289752325188       43.12331612984170
C           60.46411375688334       44.33569205012365       42.00080592130324
H           62.03300068849819       45.13474408155375       40.76255017289613
H           62.47789545152249       44.94303174433531       42.45750739591634
C           59.44646794524905       44.48156480587546       40.90715669706778
C           59.50663682011881       43.66500853714953       39.78378831014965
C           58.58888730115901       43.79992183744688       38.75685603778283
C           57.60520896504086       44.77100515193347       38.83225732161437
C           57.54150734467270       45.59613338671148       39.94188123413034
C           58.44517442739033       45.44258728524265       40.97783151507843
H           60.27860867699561       42.91032637008677       39.71530781288457
H           58.64336527254525       43.14708083532869       37.89678919767562
H           56.88859054696258       44.88373795302322       38.03167512229541
H           56.78457944414623       46.36420157192445       39.99584432922944
H           58.36791069007577       46.07553475157220       41.84948051531848
H           60.52181617778139       47.03799590357536       41.42143494815618
H           60.82427339436526       43.30402237125363       42.01901276113892
H           60.00584528582834       44.55229029279509       42.96538317053383
C           41.02774745025533       37.67449529854300       35.21113710900022
C           41.53144527302080       37.58775229919026       36.50290215318916
C           40.71924347385989       37.05222370053546       37.49572266808456
C           39.43531261046642       36.62585432740224       37.20978815093412
C           38.93630354284835       36.73724501423551       35.92320467479134
C           39.73857532044889       37.26030806605529       34.92358703530073
C           42.93853203067636       38.01359590298312       36.83934417145299
C           43.88937909961032       36.85035707683074       36.53924433272716
C           43.37048099345228       39.28256822515907       36.09001135692842
C           44.44580560813031       40.07289551809221       36.85993035855224
C           45.28206306322284       40.86530293375248       35.88538724323774
C           46.63538436961407       40.59698154856046       35.71914839847707
C           47.40587210298991       41.32997734378067       34.83402210493913
C           46.82651135218728       42.33335509494714       34.07803093676947
C           45.47207471459824       42.58667380090991       34.20793507108725
C           44.70865564053999       41.86278469853486       35.10499487598169
C           43.78259578261455       40.97143657994150       37.91840339631040
C           44.60871545132712       41.19458484498706       39.19789839212735
C           43.78859923184253       42.07495800894797       40.11186678193832
C           42.82080545074238       41.48593051459577       40.92033535718907
C           41.99461098311063       42.25068581361791       41.72284892272619
C           42.12214772405040       43.62980442237182       41.73475109100037
C           43.08094790681465       44.22901149853361       40.93739227520300
C           43.90130788448008       43.45947265947801       40.12868216283682
C           45.99424410262904       41.74315389551037       38.86430651876923
C           46.87970291308650       42.03633185551627       40.08354695064956
C           47.01943024015369       40.79708757743902       40.92933974312859
C           47.77548077416288       39.70955894316174       40.50767301787915
C           47.86037985845701       38.56215883142451       41.27701802254473
C           47.18666888773466       38.47804169730355       42.48371767890217
C           46.43247246765959       39.55601690633485       42.91215680176492
C           46.35077937911892       40.70338128299293       42.14440343013906
C           48.23464885787661       42.56554761355422       39.59085940179369
C           48.15355688360447       44.04386003154014       39.15797469492994
C           48.87591665914224       44.27842611983277       37.85743969043153
C           48.21608783179658       44.80607751838380       36.75576771539451
C           48.88972204651299       45.05202043344674       35.57265306677644
C           50.24021368267903       44.76920417600695       35.47316420663844
C           50.90809428566052       44.22934581634146       36.56041189344545
C           50.23061034822427       43.98701099790090       37.74087145084724
C           48.73443160036806       44.94685902055815       40.25015552810255
C           48.49745092188477       46.44001498449643       39.98779893760574
C           47.08595586211317       46.84597545395393       40.32209990711922
C           46.60812870524623       46.80139793726857       41.62696433308469
C           45.31837668030229       47.20323675405202       41.92255348970767
C           44.48901385038162       47.67869852117507       40.92005306101989
C           44.95065718015446       47.72032103495089       39.61596300743081
C           46.23470162772309       47.29704499180367       39.32161150103173
C           49.53309338489595       47.26245513524682       40.77485115520935
C           50.79499386834654       47.51477657702774       39.92433659479336
C           52.01259485092369       47.56881019355560       40.80674763025034
C           53.09118210870196       46.72047117619538       40.59879144265284
C           54.18620121629537       46.74599089764907       41.44434588973157
C           54.21679316390251       47.61497592250205       42.51965278287476
C           53.15089871237952       48.47203288952213       42.73066268530389
C           52.06062049316867       48.44679740784527       41.88271271403010
C           50.61202733321941       48.80749107217391       39.10875124435737
C           51.29281786097579       48.79139765735214       37.73489497016428
C           52.75322255342161       48.42589062348153       37.81474565299425
C           53.64832743663650       49.18078036153064       38.56516653365351
C           54.99535980126804       48.87130233964496       38.57949555323498