      -----------------------------------------------------------      
     |                   =====================                   |     
     |                           x T B                           |     
     |                   =====================                   |     
     |                         S. Grimme                         |     
     |          Mulliken Center for Theoretical Chemistry        |     
     |                    University of Bonn                     |     
      -----------------------------------------------------------      

   * xtb version 6.6.1 (8d0f1dd) compiled by 'stahn@M-Bot' on 2023-08-01

   xtb is free software: you can redistribute it and/or modify it under
   the terms of the GNU Lesser General Public License as published by
   the Free Software Foundation, either version 3 of the License, or
   (at your option) any later version.
   
   xtb is distributed in the hope that it will be useful,
   but WITHOUT ANY WARRANTY; without even the implied warranty of
   MERCHANTABILITY or FITNESS FOR A PARTICULAR PURPOSE.  See the
   GNU Lesser General Public License for more details.
   
   Cite this work as:
   * C. Bannwarth, E. Caldeweyher, S. Ehlert, A. Hansen, P. Pracht,
     J. Seibert, S. Spicher, S. Grimme, WIREs Comput. Mol. Sci., 2020, 11,
     e01493. DOI: 10.1002/wcms.1493
   
   for GFN2-xTB:
   * C. Bannwarth, S. Ehlert and S. Grimme., J. Chem. Theory Comput., 2019,
     15, 1652-1671. DOI: 10.1021/acs.jctc.8b01176
   for GFN1-xTB:
   * S. Grimme, C. Bannwarth, P. Shushkov, J. Chem. Theory Comput., 2017,
     13, 1989-2009. DOI: 10.1021/acs.jctc.7b00118
   for GFN0-xTB:
   * P. Pracht, E. Caldeweyher, S. Ehlert, S. Grimme, ChemRxiv, 2019, preprint.
     DOI: 10.26434/chemrxiv.8326202.v1
   for GFN-FF:
   * S. Spicher and S. Grimme, Angew. Chem. Int. Ed., 2020, 59, 15665-15673.
     DOI: 10.1002/anie.202004239
   
   for ALPB and GBSA implicit solvation:
   * S. Ehlert, M. Stahn, S. Spicher, S. Grimme, J. Chem. Theory Comput.,
     2021, 17, 4250-4261. DOI: 10.1021/acs.jctc.1c00471
   
   for DFT-D4:
   * E. Caldeweyher, C. Bannwarth and S. Grimme, J. Chem. Phys., 2017,
     147, 034112. DOI: 10.1063/1.4993215
   * E. Caldeweyher, S. Ehlert, A. Hansen, H. Neugebauer, S. Spicher,
     C. Bannwarth and S. Grimme, J. Chem. Phys., 2019, 150, 154122.
     DOI: 10.1063/1.5090222
   * E. Caldeweyher, J.-M. Mewes, S. Ehlert and S. Grimme, Phys. Chem. Chem. Phys.
     2020, 22, 8499-8512. DOI: 10.1039/D0CP00502A
   
   for sTDA-xTB:
   * S. Grimme and C. Bannwarth, J. Chem. Phys., 2016, 145, 054103.
     DOI: 10.1063/1.4959605
   
   in the mass-spec context:
   * V. Asgeirsson, C. Bauer and S. Grimme, Chem. Sci., 2017, 8, 4879.
     DOI: 10.1039/c7sc00601b
   * J. Koopman and S. Grimme, ACS Omega 2019, 4, 12, 15120-15133.
     DOI: 10.1021/acsomega.9b02011
   
   for metadynamics refer to:
   * S. Grimme, J. Chem. Theory Comput., 2019, 155, 2847-2862
     DOI: 10.1021/acs.jctc.9b00143
   
   for SPH calculations refer to:
   * S. Spicher and S. Grimme, J. Chem. Theory Comput., 2021, 17, 1701-1714
     DOI: 10.1021/acs.jctc.0c01306
   
   with help from (in alphabetical order)
   P. Atkinson, C. Bannwarth, F. Bohle, G. Brandenburg, E. Caldeweyher
   M. Checinski, S. Dohm, S. Ehlert, S. Ehrlich, I. Gerasimov, C. Hölzer
   A. Katbashev, J. Koopman, C. Lavigne, S. Lehtola, F. März, M. Müller,
   F. Musil, H. Neugebauer, J. Pisarek, C. Plett, P. Pracht, F. Pultar,
   J. Seibert, P. Shushkov, S. Spicher, M. Stahn, M. Steiner, T. Strunk,
   J. Stückrath, T. Rose, and J. Unsleber
   
 * started run on 2024/06/17 at 15:17:37.508     

           -------------------------------------------------
          |                Calculation Setup                |
           -------------------------------------------------

          program call               : /home/abt-grimme/AK-bin/xtb input.xyz --input input.inp --opt --gbsa water
          hostname                   : boar051.thch.uni-bonn.de
          coordinate file            : input.xyz
          omp threads                :                     8

   ID    Z sym.   atoms
    1    6 C      1-120, 363-482, 725-844, 1087-1206, 1449-1568, 1811-1930,
                  2173-2292, 2535-2654, 2897-3016
    2    1 H      121-362, 483-724, 845-1086, 1207-1448, 1569-1810,
                  1931-2172, 2293-2534, 2655-2896, 3017-3258

molecular fragmentation (1/2 indicates fragments):
111111111111111111111111111111111111111111111111111111111111111111111111
111111111111111111111111111111111111111111111111111111111111111111111111
111111111111111111111111111111111111111111111111111111111111111111111111
111111111111111111111111111111111111111111111111111111111111111111111111
111111111111111111111111111111111111111111111111111111111111111111111111
112222222222222222222222222222222222222222222222222222222222222222222222
222222222222222222222222222222222222222222222222222222222222222222222222
222222222222222222222222222222222222222222222222222222222222222222222222
222222222222222222222222222222222222222222222222222222222222222222222222
222222222222222222222222222222222222222222222222222222222222222222222222
222222222222222222222222222222222222222222222222222222222222222222222222
222222222222222222222222222222222222222222222222222222222222222222222222
222222222222222222222222222222222222222222222222222222222222222222222222
222222222222222222222222222222222222222222222222222222222222222222222222
222222222222222222222222222222222222222222222222222222222222222222222222
222222222222222222222222222222222222222222222222222222222222222222222222
222222222222222222222222222222222222222222222222222222222222222222222222
222222222222222222222222222222222222222222222222222222222222222222222222
222222222222222222222222222222222222222222222222222222222222222222222222
222222222222222222222222222222222222222222222222222222222222222222222222
222222222222222222222222222222222222222222222222222222222222222222222222
222222222222222222222222222222222222222222222222222222222222222222222222
222222222222222222222222222222222222222222222222222222222222222222222222
222222222222222222222222222222222222222222222222222222222222222222222222
222222222222222222222222222222222222222222222222222222222222222222222222
222222222222222222222222222222222222222222222222222222222222222222222222
222222222222222222222222222222222222222222222222222222222222222222222222
222222222222222222222222222222222222222222222222222222222222222222222222
222222222222222222222222222222222222222222222222222222222222222222222222
222222222222222222222222222222222222222222222222222222222222222222222222
222222222222222222222222222222222222222222222222222222222222222222222222
222222222222222222222222222222222222222222222222222222222222222222222222
222222222222222222222222222222222222222222222222222222222222222222222222
222222222222222222222222222222222222222222222222222222222222222222222222
222222222222222222222222222222222222222222222222222222222222222222222222
222222222222222222222222222222222222222222222222222222222222222222222222
222222222222222222222222222222222222222222222222222222222222222222222222
222222222222222222222222222222222222222222222222222222222222222222222222
222222222222222222222222222222222222222222222222222222222222222222222222
222222222222222222222222222222222222222222222222222222222222222222222222
222222222222222222222222222222222222222222222222222222222222222222222222
222222222222222222222222222222222222222222222222222222222222222222222222
222222222222222222222222222222222222222222222222222222222222222222222222
222222222222222222222222222222222222222222222222222222222222222222222222
222222222222222222222222222222222222222222222222222222222222222222222222
222222222222222222
# atoms in fragment 1/2:   362  2896
 fragment masses (1/2) :     1685.21    13481.68
CMA distance (Bohr)    :   2.685
constraining FC (au)   :  0.0500

           -------------------------------------------------
          |                 G F N 2 - x T B                 |
           -------------------------------------------------

        Reference                      10.1021/acs.jctc.8b01176
      * Hamiltonian:
        H0-scaling (s, p, d)           1.850000    2.230000    2.230000
        zeta-weighting                 0.500000
      * Dispersion:
        s8                             2.700000
        a1                             0.520000
        a2                             5.000000
        s9                             5.000000
      * Repulsion:
        kExp                           1.500000    1.000000
        rExp                           1.000000
      * Coulomb:
        alpha                          2.000000
        third order                    shell-resolved
        anisotropic                    true
        a3                             3.000000
        a5                             4.000000
        cn-shift                       1.200000
        cn-exp                         4.000000
        max-rad                        5.000000

      * Solvation model:               GBSA
        Solvent                        water
        Parameter file                 internal GFN2-xTB/GBSA
        Dielectric constant                8.0200E+01
        Reference state                gsolv [1 M gas/solution]
        Free energy shift                  1.8574E-03 Eh       1.1656E+00 kcal/mol
        Temperature                        2.9815E+02 K
        Density                            1.0000E+00 kg/L
        Solvent mass                       1.8000E+01 g/mol
        Interaction kernel             Still
        Born radius scaling (c1)           1.5524E+00
        Born radii integrator          GBOBC
        Born offset                        2.4628E-02 a0       4.6540E-02 AA
        H-bond correction              true
        Ion screening                  false
        Surface tension                    1.0000E-05 Eh       1.5569E+01 dyn/cm
        Grid points                               230 per atom
q/qsh data taken from xtbrestart
CAMM data taken from xtbrestart

          ...................................................
          :                      SETUP                      :
          :.................................................:
          :  # basis functions                6498          :
          :  # atomic orbitals                6498          :
          :  # shells                         4338          :
          :  # electrons                      6498          :
          :  max. iterations                   250          :
          :  Hamiltonian                  GFN2-xTB          :
          :  restarted?                       true          :
          :  GBSA solvation                   true          :
          :  PC potential                    false          :
          :  electronic temp.          300.0000000     K    :
          :  accuracy                    1.0000000          :
          :  -> integral cutoff          0.2500000E+02      :
          :  -> integral neglect         0.1000000E-07      :
          :  -> SCF convergence          0.1000000E-05 Eh   :
          :  -> wf. convergence          0.1000000E-03 e    :
          :  Broyden damping             0.4000000          :
          ...................................................

 iter      E             dE          RMSdq      gap      omega  full diag
   1  -3472.2634434 -0.347226E+04  0.817E-05   10.83       0.0  T
   2  -3472.2634434 -0.472937E-08  0.636E-05   10.83      27.5  T
   3  -3472.2634434 -0.665705E-08  0.329E-05   10.83      53.3  T

   *** convergence criteria satisfied after 3 iterations ***

         #    Occupation            Energy/Eh            Energy/eV
      -------------------------------------------------------------
         1        2.0000           -0.6161167             -16.7654
       ...           ...                  ...                  ...
      3243        2.0000           -0.3852795             -10.4840
      3244        2.0000           -0.3851111             -10.4794
      3245        2.0000           -0.3847222             -10.4688
      3246        2.0000           -0.3843550             -10.4588
      3247        2.0000           -0.3842317             -10.4555
      3248        2.0000           -0.3836233             -10.4389
      3249        2.0000           -0.3824662             -10.4074 (HOMO)
      3250                          0.0155776               0.4239 (LUMO)
      3251                          0.0162321               0.4417
      3252                          0.0182131               0.4956
      3253                          0.0186672               0.5080
      3254                          0.0191810               0.5219
       ...                                ...                  ...
      6498                          0.3750183              10.2048
      -------------------------------------------------------------
                  HL-Gap            0.3980438 Eh           10.8313 eV
             Fermi-level           -0.1834443 Eh           -4.9918 eV

 SCC (total)                   0 d,  0 h,  6 min, 53.725 sec
 SCC setup                      ...        0 min,  1.783 sec (  0.431%)
 Dispersion                     ...        0 min,  3.610 sec (  0.873%)
 classical contributions        ...        0 min,  0.129 sec (  0.031%)
 integral evaluation            ...        0 min,  5.945 sec (  1.437%)
 iterations                     ...        3 min,  1.955 sec ( 43.980%)
 molecular gradient             ...        3 min, 31.862 sec ( 51.208%)
 printout                       ...        0 min,  8.442 sec (  2.041%)

         :::::::::::::::::::::::::::::::::::::::::::::::::::::
         ::                     SUMMARY                     ::
         :::::::::::::::::::::::::::::::::::::::::::::::::::::
         :: total energy           -3426.761260698761 Eh    ::
         :: total w/o Gsasa/hb     -3426.676284639233 Eh    ::
         :: gradient norm              0.630537083340 Eh/a0 ::
         :: HOMO-LUMO gap             10.831322330913 eV    ::
         ::.................................................::
         :: SCC energy             -3472.263443414345 Eh    ::
         :: -> isotropic ES            0.279020197593 Eh    ::
         :: -> anisotropic ES          1.287537558995 Eh    ::
         :: -> anisotropic XC          2.128695229344 Eh    ::
         :: -> dispersion             -4.318265299169 Eh    ::
         :: -> Gsolv                  -0.020794382941 Eh    ::
         ::    -> Gelec                0.064181676588 Eh    ::
         ::    -> Gsasa               -0.083314960069 Eh    ::
         ::    -> Ghb                 -0.003518542587 Eh    ::
         ::    -> Gshift               0.001857443127 Eh    ::
         :: repulsion energy          44.774840565034 Eh    ::
         :: add. restraining           0.000000000000 Eh    ::
         :: total charge              -0.000000000009 e     ::
         :::::::::::::::::::::::::::::::::::::::::::::::::::::

      ----------------------------------------------------------- 
     |              Fast Inertial Relaxation Engine              |
      ----------------------------------------------------------- 

          ...................................................
          :                      SETUP                      :
          :.................................................:
          :   energy convergence        0.5000000E-05 Eh    :
          :   grad. convergence         0.1000000E-02 Eh/a0 :
          :   optimization log               true           :
          :   writing optlog all                1     steps :
          :   Hessian reset                    20     steps :
          :   time step scaling                 5     steps :
          :   maximium step len.        1.0000000     a0    :
          :   initial time step         0.2500000     fs    :
          :   maximum time step         1.2500000     fs    :
          :   power reset thr           0.0000000     au    :
          :   alpha parameter           0.1000000           :
          :   BFGS update                   false           :
          :   preconditioning               false           :
          ...................................................

........................................................................
.............................. CYCLE    1 ..............................
........................................................................

 iter      E             dE          RMSdq      gap      omega  full diag
   1  -3472.4965085 -0.347250E+04  0.738E-03   10.86       0.0  T
   2  -3472.4965518 -0.433424E-04  0.388E-03   10.86       1.0  T
   3  -3472.4965523 -0.440795E-06  0.180E-03   10.86       1.0  T
   4  -3472.4965524 -0.166504E-06  0.229E-04   10.86       7.6  T
   5  -3472.4965525 -0.405621E-07  0.149E-04   10.86      11.8  T
     SCC iter.                  ...        4 min, 56.991 sec
     gradient                   ...        3 min, 30.924 sec
 * total energy  : -3426.8063823 Eh     change    :  -0.4512162E-01 Eh
   gradient norm :     0.5965045 Eh/a0  converged?    E=F G=F D=F
   time step     :     0.2500000 fs     power     :   0.2328771E-05
   step length   :     0.0738976 a0     speed     :   0.7149990E-02

........................................................................
.............................. CYCLE    2 ..............................
........................................................................

 iter      E             dE          RMSdq      gap      omega  full diag
   1  -3472.8400176 -0.347284E+04  0.108E-02   10.90       0.0  T
   2  -3472.8401105 -0.928415E-04  0.567E-03   10.90       1.0  T
   3  -3472.8401115 -0.102809E-05  0.264E-03   10.90       1.0  T
   4  -3472.8401119 -0.418088E-06  0.358E-04   10.89       4.9  T
   5  -3472.8401120 -0.990253E-07  0.241E-04   10.89       7.3  T
     SCC iter.                  ...        4 min, 58.502 sec
     gradient                   ...        3 min, 29.676 sec
 * total energy  : -3426.8684713 Eh     change    :  -0.6208897E-01 Eh
   gradient norm :     0.5483605 Eh/a0  converged?    E=F G=F D=F
   time step     :     0.2500000 fs     power     :   0.3152250E-05
   step length   :     0.1087313 a0     speed     :   0.1052034E-01

........................................................................
.............................. CYCLE    3 ..............................
........................................................................

 iter      E             dE          RMSdq      gap      omega  full diag
   1  -3473.2849005 -0.347328E+04  0.138E-02   10.91       0.0  T
   2  -3473.2850516 -0.151076E-03  0.727E-03   10.90       1.0  T
   3  -3473.2850533 -0.176886E-05  0.336E-03   10.90       1.0  T
   4  -3473.2850541 -0.715842E-06  0.471E-04   10.90       3.7  T
   5  -3473.2850542 -0.166408E-06  0.318E-04   10.90       5.5  T
     SCC iter.                  ...        4 min, 58.199 sec
     gradient                   ...        3 min, 28.489 sec
 * total energy  : -3426.9411065 Eh     change    :  -0.7263520E-01 Eh
   gradient norm :     0.4882616 Eh/a0  converged?    E=F G=F D=F
   time step     :     0.2500000 fs     power     :   0.3617374E-05
   step length   :     0.1407468 a0     speed     :   0.1361801E-01

........................................................................
.............................. CYCLE    4 ..............................
........................................................................

 iter      E             dE          RMSdq      gap      omega  full diag
   1  -3473.8196464 -0.347382E+04  0.164E-02   10.91       0.0  T
   2  -3473.8198546 -0.208222E-03  0.860E-03   10.90       1.0  T
   3  -3473.8198572 -0.260611E-05  0.394E-03   10.90       1.0  T
   4  -3473.8198582 -0.102198E-05  0.568E-04   10.90       3.1  T
   5  -3473.8198585 -0.231444E-06  0.382E-04   10.90       4.6  T
   6  -3473.8198586 -0.156202E-06  0.181E-04   10.90       9.7  T
     SCC iter.                  ...        5 min, 49.858 sec
     gradient                   ...        3 min, 27.760 sec
 * total energy  : -3427.0170665 Eh     change    :  -0.7595997E-01 Eh
   gradient norm :     0.4207576 Eh/a0  converged?    E=F G=F D=F
   time step     :     0.2500000 fs     power     :   0.3696164E-05
   step length   :     0.1690937 a0     speed     :   0.1636073E-01

........................................................................
.............................. CYCLE    5 ..............................
........................................................................

 iter      E             dE          RMSdq      gap      omega  full diag
   1  -3474.4304310 -0.347443E+04  0.184E-02   10.90       0.0  T
   2  -3474.4306845 -0.253510E-03  0.963E-03   10.90       1.0  T
   3  -3474.4306879 -0.339876E-05  0.434E-03   10.90       1.0  T
   4  -3474.4306892 -0.122429E-05  0.636E-04   10.90       2.8  T
   5  -3474.4306894 -0.269718E-06  0.419E-04   10.90       4.2  T
   6  -3474.4306896 -0.166264E-06  0.189E-04   10.89       9.3  T
     SCC iter.                  ...        5 min, 51.744 sec
     gradient                   ...        3 min, 28.695 sec
 * total energy  : -3427.0893560 Eh     change    :  -0.7228956E-01 Eh
   gradient norm :     0.3520447 Eh/a0  converged?    E=F G=F D=F
   time step     :     0.2500000 fs     power     :   0.3413495E-05
   step length   :     0.1930550 a0     speed     :   0.1867911E-01

........................................................................
.............................. CYCLE    6 ..............................
........................................................................

 iter      E             dE          RMSdq      gap      omega  full diag
   1  -3475.1742232 -0.347517E+04  0.218E-02   10.90       0.0  T
   2  -3475.1745628 -0.339616E-03  0.114E-02   10.89       1.0  T
   3  -3475.1745680 -0.518724E-05  0.501E-03   10.89       1.0  T
   4  -3475.1745697 -0.170954E-05  0.769E-04   10.89       2.3  T
   5  -3475.1745701 -0.351212E-06  0.499E-04   10.89       3.5  T
   6  -3475.1745703 -0.209891E-06  0.212E-04   10.89       8.3  T
     SCC iter.                  ...        5 min, 51.885 sec
     gradient                   ...        3 min, 30.454 sec
 * total energy  : -3427.1582062 Eh     change    :  -0.6885017E-01 Eh
   gradient norm :     0.2859766 Eh/a0  converged?    E=F G=F D=F
   time step     :     0.2750000 fs     power     :   0.2780146E-05
   step length   :     0.2353139 a0     speed     :   0.2069807E-01

........................................................................
.............................. CYCLE    7 ..............................
........................................................................

 iter      E             dE          RMSdq      gap      omega  full diag
   1  -3476.0455197 -0.347605E+04  0.249E-02   10.89       0.0  T
   2  -3476.0459187 -0.398977E-03  0.131E-02   10.89       1.0  T
   3  -3476.0459262 -0.754018E-05  0.545E-03   10.89       1.0  T
   4  -3476.0459284 -0.219532E-05  0.901E-04   10.88       1.9  T
   5  -3476.0459288 -0.401698E-06  0.572E-04   10.88       3.1  T
   6  -3476.0459290 -0.237364E-06  0.223E-04   10.88       7.9  T
     SCC iter.                  ...        5 min, 58.097 sec
     gradient                   ...        3 min, 29.467 sec
 * total energy  : -3427.2155795 Eh     change    :  -0.5737331E-01 Eh
   gradient norm :     0.2422835 Eh/a0  converged?    E=F G=F D=F
   time step     :     0.3025000 fs     power     :   0.1890540E-05
   step length   :     0.2773800 a0     speed     :   0.2218017E-01

........................................................................
.............................. CYCLE    8 ..............................
........................................................................

 iter      E             dE          RMSdq      gap      omega  full diag
   1  -3477.0081662 -0.347701E+04  0.273E-02   10.88       0.0  T
   2  -3477.0085486 -0.382351E-03  0.145E-02   10.88       1.0  T
   3  -3477.0085587 -0.101581E-04  0.537E-03   10.88       1.0  T
   4  -3477.0085611 -0.242302E-05  0.100E-03   10.87       1.7  T
   5  -3477.0085615 -0.366423E-06  0.615E-04   10.87       2.8  T
   6  -3477.0085617 -0.217419E-06  0.208E-04   10.87       8.4  T
     SCC iter.                  ...        5 min, 50.121 sec
     gradient                   ...        3 min, 30.326 sec
 * total energy  : -3427.2560567 Eh     change    :  -0.4047715E-01 Eh
   gradient norm :     0.2363500 Eh/a0  converged?    E=F G=F D=F
   time step     :     0.3327500 fs     power     :   0.9826249E-06
   step length   :     0.3133812 a0     speed     :   0.2278085E-01

........................................................................
.............................. CYCLE    9 ..............................
........................................................................

 iter      E             dE          RMSdq      gap      omega  full diag
   1  -3477.9863068 -0.347799E+04  0.291E-02   10.88       0.0  T
   2  -3477.9865795 -0.272642E-03  0.158E-02   10.87       1.0  T
   3  -3477.9865918 -0.123369E-04  0.453E-03   10.87       1.0  T
   4  -3477.9865940 -0.213017E-05  0.105E-03   10.87       1.7  T
   5  -3477.9865942 -0.234967E-06  0.604E-04   10.87       2.9  T
   6  -3477.9865943 -0.148878E-06  0.160E-04   10.87      10.9  T
     SCC iter.                  ...        6 min,  1.194 sec
     gradient                   ...        3 min, 29.196 sec
 * total energy  : -3427.2801770 Eh     change    :  -0.2412033E-01 Eh
   gradient norm :     0.2499127 Eh/a0  converged?    E=F G=F D=F
   time step     :     0.3660250 fs     power     :   0.3145769E-06
   step length   :     0.3375676 a0     speed     :   0.2230823E-01

........................................................................
.............................. CYCLE   10 ..............................
........................................................................

 iter      E             dE          RMSdq      gap      omega  full diag
   1  -3478.8863130 -0.347889E+04  0.311E-02   10.87       0.0  T
   2  -3478.8864424 -0.129456E-03  0.176E-02   10.87       1.0  T
   3  -3478.8864558 -0.133793E-04  0.294E-03   10.87       1.0  T
   4  -3478.8864573 -0.151883E-05  0.105E-03   10.87       1.7  T
   5  -3478.8864574 -0.800283E-07  0.522E-04   10.87       3.4  T
   6  -3478.8864575 -0.773425E-07  0.904E-05   10.87      19.4  T
     SCC iter.                  ...        5 min, 54.974 sec
     gradient                   ...        3 min, 28.972 sec
 * total energy  : -3427.2925331 Eh     change    :  -0.1235615E-01 Eh
   gradient norm :     0.2495067 Eh/a0  converged?    E=F G=F D=F
   time step     :     0.4026275 fs     power     :  -0.7975501E-07
   step length   :     0.3509628 a0     speed     :   0.2108496E-01

........................................................................
.............................. CYCLE   11 ..............................
........................................................................
 * reset velocities

 iter      E             dE          RMSdq      gap      omega  full diag
   1  -3478.8694952 -0.347887E+04  0.115E-03   10.87       0.0  T
   2  -3478.8694960 -0.774583E-06  0.661E-04   10.87       2.7  T
   3  -3478.8694960 -0.450882E-08  0.264E-04   10.87       6.6  T
     SCC iter.                  ...        2 min, 55.825 sec
     gradient                   ...        3 min, 30.067 sec
 * total energy  : -3427.2948653 Eh     change    :  -0.2332168E-02 Eh
   gradient norm :     0.2425018 Eh/a0  converged?    E=F G=F D=F
   time step     :     0.2013138 fs     power     :   0.1515402E-06
   step length   :     0.0094807 a0     speed     :   0.1139149E-02

........................................................................
.............................. CYCLE   12 ..............................
........................................................................

 iter      E             dE          RMSdq      gap      omega  full diag
   1  -3478.8360084 -0.347884E+04  0.226E-03   10.87       0.0  T
   2  -3478.8360114 -0.299412E-05  0.130E-03   10.87       1.3  T
   3  -3478.8360114 -0.192481E-07  0.519E-04   10.87       3.4  T
   4  -3478.8360114 -0.973796E-08  0.473E-05   10.87      37.1  T
     SCC iter.                  ...        4 min,  7.939 sec
     gradient                   ...        3 min, 28.460 sec
 * total energy  : -3427.2992705 Eh     change    :  -0.4405169E-02 Eh
   gradient norm :     0.2287788 Eh/a0  converged?    E=F G=F D=F
   time step     :     0.2013138 fs     power     :   0.2818864E-06
   step length   :     0.0186951 a0     speed     :   0.2246306E-02

........................................................................
.............................. CYCLE   13 ..............................
........................................................................

 iter      E             dE          RMSdq      gap      omega  full diag
   1  -3478.7868668 -0.347879E+04  0.330E-03   10.87       0.0  T
   2  -3478.7868733 -0.648667E-05  0.190E-03   10.87       1.0  T
   3  -3478.7868734 -0.500945E-07  0.765E-04   10.87       2.3  T
   4  -3478.7868734 -0.278364E-07  0.808E-05   10.87      21.7  T
     SCC iter.                  ...        3 min, 58.969 sec
     gradient                   ...        3 min, 28.527 sec
 * total energy  : -3427.3052613 Eh     change    :  -0.5990825E-02 Eh
   gradient norm :     0.2087904 Eh/a0  converged?    E=F G=F D=F
   time step     :     0.2013138 fs     power     :   0.3767384E-06
   step length   :     0.0273874 a0     speed     :   0.3290729E-02

........................................................................
.............................. CYCLE   14 ..............................
........................................................................

 iter      E             dE          RMSdq      gap      omega  full diag
   1  -3478.7233743 -0.347872E+04  0.424E-03   10.87       0.0  T
   2  -3478.7233851 -0.107954E-04  0.245E-03   10.87       1.0  T
   3  -3478.7233852 -0.889199E-07  0.989E-04   10.87       1.8  T
   4  -3478.7233853 -0.502005E-07  0.109E-04   10.87      16.0  T
     SCC iter.                  ...        3 min, 57.632 sec
     gradient                   ...        3 min, 28.728 sec
 * total energy  : -3427.3121795 Eh     change    :  -0.6918164E-02 Eh
   gradient norm :     0.1832660 Eh/a0  converged?    E=F G=F D=F
   time step     :     0.2013138 fs     power     :   0.4259862E-06
   step length   :     0.0353174 a0     speed     :   0.4243566E-02

........................................................................
.............................. CYCLE   15 ..............................
........................................................................

 iter      E             dE          RMSdq      gap      omega  full diag
   1  -3478.6472687 -0.347865E+04  0.506E-03   10.87       0.0  T
   2  -3478.6472841 -0.154507E-04  0.292E-03   10.87       1.0  T
   3  -3478.6472843 -0.130738E-06  0.118E-03   10.87       1.5  T
   4  -3478.6472844 -0.747054E-07  0.133E-04   10.87      13.1  T
   5  -3478.6472844 -0.200803E-07  0.954E-05   10.87      18.4  T
     SCC iter.                  ...        4 min, 57.271 sec
     gradient                   ...        3 min, 29.060 sec
 * total energy  : -3427.3192739 Eh     change    :  -0.7094489E-02 Eh
   gradient norm :     0.1531962 Eh/a0  converged?    E=F G=F D=F
   time step     :     0.2013138 fs     power     :   0.4248819E-06
   step length   :     0.0422692 a0     speed     :   0.5078852E-02

........................................................................
.............................. CYCLE   16 ..............................
........................................................................

 iter      E             dE          RMSdq      gap      omega  full diag
   1  -3478.5607465 -0.347856E+04  0.571E-03   10.87       0.0  T
   2  -3478.5607664 -0.198805E-04  0.329E-03   10.87       1.0  T
   3  -3478.5607665 -0.151785E-06  0.134E-03   10.87       1.3  T
   4  -3478.5607666 -0.835485E-07  0.141E-04   10.88      12.5  T
   5  -3478.5607666 -0.229606E-07  0.981E-05   10.88      17.9  T
     SCC iter.                  ...        4 min, 56.900 sec
     gradient                   ...        3 min, 27.768 sec
 * total energy  : -3427.3257907 Eh     change    :  -0.6516769E-02 Eh
   gradient norm :     0.1200573 Eh/a0  converged?    E=F G=F D=F
   time step     :     0.2013138 fs     power     :   0.3749349E-06
   step length   :     0.0480540 a0     speed     :   0.5773928E-02

........................................................................
.............................. CYCLE   17 ..............................
........................................................................

 iter      E             dE          RMSdq      gap      omega  full diag
   1  -3478.4562029 -0.347846E+04  0.685E-03   10.88       0.0  T
   2  -3478.4562318 -0.289266E-04  0.395E-03   10.88       1.0  T
   3  -3478.4562320 -0.214221E-06  0.162E-03   10.88       1.1  T
   4  -3478.4562321 -0.116886E-06  0.166E-04   10.88      10.5  T
   5  -3478.4562322 -0.324053E-07  0.114E-04   10.88      15.3  T
     SCC iter.                  ...        4 min, 55.919 sec
     gradient                   ...        3 min, 27.230 sec
 * total energy  : -3427.3315292 Eh     change    :  -0.5738462E-02 Eh
   gradient norm :     0.0827126 Eh/a0  converged?    E=F G=F D=F
   time step     :     0.2214451 fs     power     :   0.2722008E-06
   step length   :     0.0582555 a0     speed     :   0.6363349E-02

........................................................................
.............................. CYCLE   18 ..............................
........................................................................

 iter      E             dE          RMSdq      gap      omega  full diag
   1  -3478.3354340 -0.347834E+04  0.785E-03   10.88       0.0  T
   2  -3478.3354726 -0.386029E-04  0.453E-03   10.88       1.0  T
   3  -3478.3354729 -0.283300E-06  0.187E-03   10.88       1.0  T
   4  -3478.3354730 -0.152703E-06  0.191E-04   10.88       9.2  T
   5  -3478.3354731 -0.429750E-07  0.130E-04   10.88      13.5  T
     SCC iter.                  ...        4 min, 54.889 sec
     gradient                   ...        3 min, 28.142 sec
 * total energy  : -3427.3353619 Eh     change    :  -0.3832729E-02 Eh
   gradient norm :     0.0505555 Eh/a0  converged?    E=F G=F D=F
   time step     :     0.2435896 fs     power     :   0.1226069E-06
   step length   :     0.0681536 a0     speed     :   0.6767765E-02

........................................................................
.............................. CYCLE   19 ..............................
........................................................................

 iter      E             dE          RMSdq      gap      omega  full diag
   1  -3478.2081764 -0.347821E+04  0.823E-03   10.88       0.0  T
   2  -3478.2082197 -0.433523E-04  0.478E-03   10.88       1.0  T
   3  -3478.2082201 -0.320290E-06  0.199E-03   10.88       1.0  T
   4  -3478.2082202 -0.167715E-06  0.201E-04   10.88       8.7  T
   5  -3478.2082203 -0.480995E-07  0.133E-04   10.88      13.1  T
     SCC iter.                  ...        4 min, 56.475 sec
     gradient                   ...        3 min, 28.352 sec
 * total energy  : -3427.3363796 Eh     change    :  -0.1017681E-02 Eh
   gradient norm :     0.0553266 Eh/a0  converged?    E=F G=F D=F
   time step     :     0.2679486 fs     power     :  -0.3709394E-07
   step length   :     0.0750865 a0     speed     :   0.6778376E-02

........................................................................
.............................. CYCLE   20 ..............................
........................................................................
 * reset velocities

 iter      E             dE          RMSdq      gap      omega  full diag
   1  -3478.2093925 -0.347821E+04  0.126E-04   10.88       0.0  T
   2  -3478.2093925 -0.702948E-08  0.843E-05   10.88      20.8  T
   3  -3478.2093925 -0.534556E-08  0.394E-05   10.88      44.4  T
     SCC iter.                  ...        3 min,  1.953 sec
     gradient                   ...        3 min, 28.565 sec
 * total energy  : -3427.3364310 Eh     change    :  -0.5136117E-04 Eh
   gradient norm :     0.0549730 Eh/a0  converged?    E=F G=F D=T
   time step     :     0.1339743 fs     power     :   0.5069433E-08
   step length   :     0.0009311 a0     speed     :   0.1681050E-03
 * RMSD in coord.:     0.0348248 a0     energy gain  -0.5751703E+00 Eh

........................................................................
.............................. CYCLE   21 ..............................
........................................................................

 iter      E             dE          RMSdq      gap      omega  full diag
   1  -3478.2155911 -0.347822E+04  0.543E-04   10.88       0.0  T
   2  -3478.2155912 -0.794857E-07  0.309E-04   10.89       5.7  T
   3  -3478.2155912 -0.713953E-09  0.813E-05   10.89      21.5  T
     SCC iter.                  ...        3 min,  0.905 sec
     gradient                   ...        3 min, 30.446 sec
 * total energy  : -3427.3366993 Eh     change    :  -0.2683742E-03 Eh
   gradient norm :     0.0533119 Eh/a0  converged?    E=F G=F D=F
   time step     :     0.2500000 fs     power     :   0.1402299E-07
   step length   :     0.0049588 a0     speed     :   0.4797862E-03

........................................................................
.............................. CYCLE   22 ..............................
........................................................................

 iter      E             dE          RMSdq      gap      omega  full diag
   1  -3478.2255085 -0.347823E+04  0.887E-04   10.89       0.0  T
   2  -3478.2255087 -0.203678E-06  0.506E-04   10.89       3.5  T
   3  -3478.2255087 -0.388172E-08  0.131E-04   10.89      13.4  T
     SCC iter.                  ...        2 min, 57.816 sec
     gradient                   ...        3 min, 30.065 sec
 * total energy  : -3427.3371194 Eh     change    :  -0.4200969E-03 Eh
   gradient norm :     0.0507977 Eh/a0  converged?    E=F G=F D=F
   time step     :     0.2500000 fs     power     :   0.2172602E-07
   step length   :     0.0080815 a0     speed     :   0.7819314E-03

........................................................................
.............................. CYCLE   23 ..............................
........................................................................

 iter      E             dE          RMSdq      gap      omega  full diag
   1  -3478.2386630 -0.347824E+04  0.119E-03   10.89       0.0  T
   2  -3478.2386634 -0.356270E-06  0.682E-04   10.88       2.6  T
   3  -3478.2386634 -0.923274E-08  0.174E-04   10.88      10.1  T
     SCC iter.                  ...        2 min, 58.302 sec
     gradient                   ...        3 min, 29.904 sec
 * total energy  : -3427.3376613 Eh     change    :  -0.5419082E-03 Eh
   gradient norm :     0.0477415 Eh/a0  converged?    E=F G=F D=F
   time step     :     0.2500000 fs     power     :   0.2775181E-07
   step length   :     0.0110509 a0     speed     :   0.1069237E-02

........................................................................
.............................. CYCLE   24 ..............................
........................................................................

 iter      E             dE          RMSdq      gap      omega  full diag
   1  -3478.2543789 -0.347825E+04  0.146E-03   10.88       0.0  T
   2  -3478.2543794 -0.501359E-06  0.832E-04   10.88       2.1  T
   3  -3478.2543795 -0.158948E-07  0.206E-04   10.88       8.5  T
     SCC iter.                  ...        2 min, 54.963 sec
     gradient                   ...        3 min, 29.883 sec
 * total energy  : -3427.3382914 Eh     change    :  -0.6300954E-03 Eh
   gradient norm :     0.0445731 Eh/a0  converged?    E=F G=F D=F
   time step     :     0.2500000 fs     power     :   0.3199040E-07
   step length   :     0.0138233 a0     speed     :   0.1337482E-02

........................................................................
.............................. CYCLE   25 ..............................
........................................................................

 iter      E             dE          RMSdq      gap      omega  full diag
   1  -3478.2717915 -0.347827E+04  0.166E-03   10.88       0.0  T
   2  -3478.2717921 -0.601141E-06  0.951E-04   10.88       1.8  T
   3  -3478.2717921 -0.223645E-07  0.224E-04   10.88       7.8  T
     SCC iter.                  ...        2 min, 56.678 sec
     gradient                   ...        3 min, 30.004 sec
 * total energy  : -3427.3389788 Eh     change    :  -0.6873515E-03 Eh
   gradient norm :     0.0417814 Eh/a0  converged?    E=F G=F D=F
   time step     :     0.2500000 fs     power     :   0.3468701E-07
   step length   :     0.0163692 a0     speed     :   0.1583805E-02

........................................................................
.............................. CYCLE   26 ..............................
........................................................................

 iter      E             dE          RMSdq      gap      omega  full diag
   1  -3478.2918345 -0.347829E+04  0.201E-03   10.88       0.0  T
   2  -3478.2918352 -0.765976E-06  0.115E-03   10.88       1.5  T
   3  -3478.2918353 -0.331579E-07  0.250E-04   10.88       7.0  T
   4  -3478.2918353 -0.127125E-07  0.662E-05   10.88      26.5  T
     SCC iter.                  ...        3 min, 53.662 sec
     gradient                   ...        3 min, 29.544 sec
 * total energy  : -3427.3397803 Eh     change    :  -0.8015298E-03 Eh
   gradient norm :     0.0396287 Eh/a0  converged?    E=F G=F D=F
   time step     :     0.2750000 fs     power     :   0.3649064E-07
   step length   :     0.0208042 a0     speed     :   0.1829927E-02

........................................................................
.............................. CYCLE   27 ..............................
........................................................................

 iter      E             dE          RMSdq      gap      omega  full diag
   1  -3478.3133351 -0.347831E+04  0.232E-03   10.88       0.0  T
   2  -3478.3133359 -0.837493E-06  0.133E-03   10.88       1.3  T
   3  -3478.3133360 -0.411542E-07  0.258E-04   10.88       6.8  T
   4  -3478.3133360 -0.164041E-07  0.732E-05   10.88      23.9  T
     SCC iter.                  ...        3 min, 54.974 sec
     gradient                   ...        3 min, 33.495 sec
 * total energy  : -3427.3407012 Eh     change    :  -0.9208634E-03 Eh
   gradient norm :     0.0386117 Eh/a0  converged?    E=F G=F D=F
   time step     :     0.3025000 fs     power     :   0.3803885E-07
   step length   :     0.0259143 a0     speed     :   0.2072188E-02

........................................................................
.............................. CYCLE   28 ..............................
........................................................................

 iter      E             dE          RMSdq      gap      omega  full diag
   1  -3478.3343040 -0.347833E+04  0.258E-03   10.88       0.0  T
   2  -3478.3343048 -0.720084E-06  0.148E-03   10.88       1.2  T
   3  -3478.3343048 -0.512246E-07  0.233E-04   10.88       7.5  T
   4  -3478.3343048 -0.191753E-07  0.802E-05   10.88      21.8  T
     SCC iter.                  ...        3 min, 53.465 sec
     gradient                   ...        3 min, 34.912 sec
 * total energy  : -3427.3417691 Eh     change    :  -0.1067892E-02 Eh
   gradient norm :     0.0386751 Eh/a0  converged?    E=F G=F D=F
   time step     :     0.3327500 fs     power     :   0.4035834E-07
   step length   :     0.0317886 a0     speed     :   0.2310834E-02

........................................................................
.............................. CYCLE   29 ..............................
........................................................................

 iter      E             dE          RMSdq      gap      omega  full diag
   1  -3478.3521284 -0.347835E+04  0.278E-03   10.88       0.0  T
   2  -3478.3521289 -0.458414E-06  0.161E-03   10.88       1.1  T
   3  -3478.3521289 -0.585978E-07  0.186E-04   10.88       9.4  T
   4  -3478.3521289 -0.216128E-07  0.841E-05   10.88      20.8  T
     SCC iter.                  ...        4 min,  2.158 sec
     gradient                   ...        3 min, 29.302 sec
 * total energy  : -3427.3430414 Eh     change    :  -0.1272336E-02 Eh
   gradient norm :     0.0389055 Eh/a0  converged?    E=F G=F D=F
   time step     :     0.3660250 fs     power     :   0.4421167E-07
   step length   :     0.0386515 a0     speed     :   0.2554296E-02

........................................................................
.............................. CYCLE   30 ..............................
........................................................................

 iter      E             dE          RMSdq      gap      omega  full diag
   1  -3478.3641141 -0.347836E+04  0.297E-03   10.88       0.0  T
   2  -3478.3641144 -0.281450E-06  0.174E-03   10.88       1.0  T
   3  -3478.3641144 -0.603850E-07  0.154E-04   10.88      11.3  T
   4  -3478.3641145 -0.253976E-07  0.840E-05   10.88      20.9  T
     SCC iter.                  ...        3 min, 54.821 sec
     gradient                   ...        3 min, 30.420 sec
 * total energy  : -3427.3445890 Eh     change    :  -0.1547649E-02 Eh
   gradient norm :     0.0379331 Eh/a0  converged?    E=F G=F D=F
   time step     :     0.4026275 fs     power     :   0.4920606E-07
   step length   :     0.0469065 a0     speed     :   0.2818021E-02

........................................................................
.............................. CYCLE   31 ..............................
........................................................................

 iter      E             dE          RMSdq      gap      omega  full diag
   1  -3478.3683742 -0.347837E+04  0.328E-03   10.88       0.0  T
   2  -3478.3683747 -0.552470E-06  0.194E-03   10.88       1.0  T
   3  -3478.3683748 -0.578661E-07  0.171E-04   10.88      10.2  T
   4  -3478.3683748 -0.306741E-07  0.781E-05   10.88      22.4  T
     SCC iter.                  ...        3 min, 55.856 sec
     gradient                   ...        3 min, 29.116 sec
 * total energy  : -3427.3464481 Eh     change    :  -0.1859076E-02 Eh
   gradient norm :     0.0348112 Eh/a0  converged?    E=F G=F D=F
   time step     :     0.4428903 fs     power     :   0.5335455E-07
   step length   :     0.0570289 a0     speed     :   0.3114685E-02

........................................................................
.............................. CYCLE   32 ..............................
........................................................................

 iter      E             dE          RMSdq      gap      omega  full diag
   1  -3478.3653471 -0.347837E+04  0.376E-03   10.88       0.0  T
   2  -3478.3653485 -0.144983E-05  0.225E-03   10.88       1.0  T
   3  -3478.3653486 -0.648042E-07  0.257E-04   10.88       6.8  T
   4  -3478.3653486 -0.354121E-07  0.789E-05   10.88      22.2  T
     SCC iter.                  ...        4 min,  1.325 sec
     gradient                   ...        3 min, 28.695 sec
 * total energy  : -3427.3485642 Eh     change    :  -0.2116060E-02 Eh
   gradient norm :     0.0302284 Eh/a0  converged?    E=F G=F D=F
   time step     :     0.4871793 fs     power     :   0.5397904E-07
   step length   :     0.0693354 a0     speed     :   0.3442557E-02

........................................................................
.............................. CYCLE   33 ..............................
........................................................................

 iter      E             dE          RMSdq      gap      omega  full diag
   1  -3478.3600683 -0.347836E+04  0.433E-03   10.88       0.0  T
   2  -3478.3600707 -0.233004E-05  0.261E-03   10.88       1.0  T
   3  -3478.3600707 -0.777591E-07  0.325E-04   10.88       5.4  T
   4  -3478.3600708 -0.394016E-07  0.822E-05   10.88      21.3  T
     SCC iter.                  ...        4 min,  5.033 sec
     gradient                   ...        3 min, 29.193 sec
 * total energy  : -3427.3508029 Eh     change    :  -0.2238668E-02 Eh
   gradient norm :     0.0273031 Eh/a0  converged?    E=F G=F D=F
   time step     :     0.5358972 fs     power     :   0.5049382E-07
   step length   :     0.0837253 a0     speed     :   0.3779117E-02

........................................................................
.............................. CYCLE   34 ..............................
........................................................................

 iter      E             dE          RMSdq      gap      omega  full diag
   1  -3478.3640462 -0.347836E+04  0.488E-03   10.88       0.0  T
   2  -3478.3640480 -0.182457E-05  0.293E-03   10.88       1.0  T
   3  -3478.3640481 -0.972086E-07  0.246E-04   10.88       7.1  T
   4  -3478.3640481 -0.388150E-07  0.859E-05   10.88      20.4  T
     SCC iter.                  ...        4 min,  1.875 sec
     gradient                   ...        3 min, 28.643 sec
 * total energy  : -3427.3530968 Eh     change    :  -0.2293956E-02 Eh
   gradient norm :     0.0277811 Eh/a0  converged?    E=F G=F D=F
   time step     :     0.5894869 fs     power     :   0.4673898E-07
   step length   :     0.0994271 a0     speed     :   0.4079864E-02

........................................................................
.............................. CYCLE   35 ..............................
........................................................................

 iter      E             dE          RMSdq      gap      omega  full diag
   1  -3478.3906459 -0.347839E+04  0.558E-03   10.89       0.0  T
   2  -3478.3906464 -0.501265E-06  0.330E-03   10.89       1.0  T
   3  -3478.3906465 -0.135914E-06  0.168E-04   10.89      10.4  T
   4  -3478.3906465 -0.261775E-07  0.943E-05   10.89      18.6  T
     SCC iter.                  ...        3 min, 58.339 sec
     gradient                   ...        3 min, 29.906 sec
 * total energy  : -3427.3555492 Eh     change    :  -0.2452442E-02 Eh
   gradient norm :     0.0271728 Eh/a0  converged?    E=F G=F D=F
   time step     :     0.6484356 fs     power     :   0.4598162E-07
   step length   :     0.1159472 a0     speed     :   0.4325224E-02

........................................................................
.............................. CYCLE   36 ..............................
........................................................................

 iter      E             dE          RMSdq      gap      omega  full diag
   1  -3478.4456821 -0.347845E+04  0.666E-03   10.89       0.0  T
   2  -3478.4456834 -0.123063E-05  0.386E-03   10.89       1.0  T
   3  -3478.4456835 -0.184404E-06  0.237E-04   10.89       7.4  T
   4  -3478.4456836 -0.223977E-07  0.107E-04   10.89      16.3  T
     SCC iter.                  ...        3 min, 54.805 sec
     gradient                   ...        3 min, 28.662 sec
 * total energy  : -3427.3581914 Eh     change    :  -0.2642148E-02 Eh
   gradient norm :     0.0230816 Eh/a0  converged?    E=F G=F D=F
   time step     :     0.7132792 fs     power     :   0.4407037E-07
   step length   :     0.1345777 a0     speed     :   0.4563822E-02

........................................................................
.............................. CYCLE   37 ..............................
........................................................................

 iter      E             dE          RMSdq      gap      omega  full diag
   1  -3478.5171532 -0.347852E+04  0.750E-03   10.89       0.0  T
   2  -3478.5171561 -0.292765E-05  0.431E-03   10.89       1.0  T
   3  -3478.5171563 -0.203235E-06  0.380E-04   10.89       4.6  T
   4  -3478.5171564 -0.325667E-07  0.113E-04   10.89      15.5  T
     SCC iter.                  ...        3 min, 58.415 sec
     gradient                   ...        3 min, 30.907 sec
 * total energy  : -3427.3608104 Eh     change    :  -0.2619040E-02 Eh
   gradient norm :     0.0227916 Eh/a0  converged?    E=F G=F D=F
   time step     :     0.7846071 fs     power     :   0.3805441E-07
   step length   :     0.1559993 a0     speed     :   0.4809341E-02

........................................................................
.............................. CYCLE   38 ..............................
........................................................................

 iter      E             dE          RMSdq      gap      omega  full diag
   1  -3478.5701270 -0.347857E+04  0.712E-03   10.89       0.0  T
   2  -3478.5701279 -0.853018E-06  0.414E-03   10.89       1.0  T
   3  -3478.5701280 -0.179186E-06  0.199E-04   10.89       8.8  T
   4  -3478.5701281 -0.190089E-07  0.953E-05   10.89      18.4  T
     SCC iter.                  ...        4 min,  4.762 sec
     gradient                   ...        3 min, 29.709 sec
 * total energy  : -3427.3634829 Eh     change    :  -0.2672446E-02 Eh
   gradient norm :     0.0247928 Eh/a0  converged?    E=F G=F D=F
   time step     :     0.8630678 fs     power     :   0.3656787E-07
   step length   :     0.1777301 a0     speed     :   0.4981167E-02

........................................................................
.............................. CYCLE   39 ..............................
........................................................................

 iter      E             dE          RMSdq      gap      omega  full diag
   1  -3478.5813006 -0.347858E+04  0.657E-03   10.90       0.0  T
   2  -3478.5813030 -0.235416E-05  0.393E-03   10.90       1.0  T
   3  -3478.5813032 -0.211810E-06  0.249E-04   10.90       7.0  T
   4  -3478.5813032 -0.292662E-07  0.118E-04   10.90      14.8  T
     SCC iter.                  ...        4 min,  1.008 sec
     gradient                   ...        3 min, 28.557 sec
 * total energy  : -3427.3664766 Eh     change    :  -0.2993723E-02 Eh
   gradient norm :     0.0217404 Eh/a0  converged?    E=F G=F D=F
   time step     :     0.9493746 fs     power     :   0.3711898E-07
   step length   :     0.2014862 a0     speed     :   0.5133608E-02

........................................................................
.............................. CYCLE   40 ..............................
........................................................................

 iter      E             dE          RMSdq      gap      omega  full diag
   1  -3478.5705961 -0.347857E+04  0.657E-03   10.90       0.0  T
   2  -3478.5706012 -0.504381E-05  0.395E-03   10.90       1.0  T
   3  -3478.5706015 -0.300791E-06  0.443E-04   10.90       4.0  T
   4  -3478.5706015 -0.582977E-07  0.163E-04   10.90      10.8  T
     SCC iter.                  ...        3 min, 58.649 sec
     gradient                   ...        3 min, 29.066 sec
 * total energy  : -3427.3696430 Eh     change    :  -0.3166348E-02 Eh
   gradient norm :     0.0240719 Eh/a0  converged?    E=F G=F D=F
   time step     :     1.0443120 fs     power     :   0.3510125E-07
   step length   :     0.2299103 a0     speed     :   0.5325291E-02

........................................................................
.............................. CYCLE   41 ..............................
........................................................................

 iter      E             dE          RMSdq      gap      omega  full diag
   1  -3478.5927699 -0.347859E+04  0.744E-03   10.91       0.0  T
   2  -3478.5927708 -0.911093E-06  0.436E-03   10.91       1.0  T
   3  -3478.5927711 -0.293606E-06  0.247E-04   10.91       7.1  T
   4  -3478.5927712 -0.343944E-07  0.147E-04   10.91      11.9  T
     SCC iter.                  ...        3 min, 59.640 sec
     gradient                   ...        3 min, 29.971 sec
 * total energy  : -3427.3733438 Eh     change    :  -0.3700799E-02 Eh
   gradient norm :     0.0219365 Eh/a0  converged?    E=F G=F D=F
   time step     :     1.1487432 fs     power     :   0.3908981E-07
   step length   :     0.2607259 a0     speed     :   0.5490050E-02

........................................................................
.............................. CYCLE   42 ..............................
........................................................................

 iter      E             dE          RMSdq      gap      omega  full diag
   1  -3478.6420590 -0.347864E+04  0.894E-03   10.92       0.0  T
   2  -3478.6420626 -0.358003E-05  0.519E-03   10.92       1.0  T
   3  -3478.6420628 -0.280334E-06  0.379E-04   10.92       4.6  T
   4  -3478.6420629 -0.432910E-07  0.129E-04   10.92      13.6  T
     SCC iter.                  ...        4 min,  3.318 sec
     gradient                   ...        3 min, 29.431 sec
 * total energy  : -3427.3774081 Eh     change    :  -0.4064325E-02 Eh
   gradient norm :     0.0223376 Eh/a0  converged?    E=F G=F D=F
   time step     :     1.2500000 fs     power     :   0.3742947E-07
   step length   :     0.2963535 a0     speed     :   0.5734759E-02
 * RMSD in coord.:     0.0341158 a0     energy gain  -0.4097713E-01 Eh

........................................................................
.............................. CYCLE   43 ..............................
........................................................................

 iter      E             dE          RMSdq      gap      omega  full diag
   1  -3478.6448869 -0.347864E+04  0.148E-03   10.92       0.0  T
   2  -3478.6448870 -0.426858E-07  0.867E-04   10.92       2.0  T
   3  -3478.6448870 -0.118375E-07  0.530E-05   10.92      33.0  T
     SCC iter.                  ...        2 min, 57.324 sec
     gradient                   ...        3 min, 29.803 sec
 * total energy  : -3427.3781914 Eh     change    :  -0.7833189E-03 Eh
   gradient norm :     0.0221636 Eh/a0  converged?    E=F G=F D=F
   time step     :     0.2500000 fs     power     :   0.4087544E-07
   step length   :     0.0575247 a0     speed     :   0.5565820E-02

........................................................................
.............................. CYCLE   44 ..............................
........................................................................

 iter      E             dE          RMSdq      gap      omega  full diag
   1  -3478.6414684 -0.347864E+04  0.144E-03   10.92       0.0  T
   2  -3478.6414686 -0.183573E-06  0.844E-04   10.92       2.1  T
   3  -3478.6414686 -0.129608E-07  0.881E-05   10.92      19.9  T
     SCC iter.                  ...        2 min, 56.495 sec
     gradient                   ...        3 min, 29.170 sec
 * total energy  : -3427.3790235 Eh     change    :  -0.8320933E-03 Eh
   gradient norm :     0.0205259 Eh/a0  converged?    E=F G=F D=F
   time step     :     0.2500000 fs     power     :   0.4324656E-07
   step length   :     0.0563124 a0     speed     :   0.5448527E-02

........................................................................
.............................. CYCLE   45 ..............................
........................................................................

 iter      E             dE          RMSdq      gap      omega  full diag
   1  -3478.6336521 -0.347863E+04  0.157E-03   10.92       0.0  T
   2  -3478.6336525 -0.416468E-06  0.920E-04   10.92       1.9  T
   3  -3478.6336525 -0.161695E-07  0.157E-04   10.92      11.2  T
     SCC iter.                  ...        3 min,  1.106 sec
     gradient                   ...        3 min, 27.969 sec
 * total energy  : -3427.3798700 Eh     change    :  -0.8464912E-03 Eh
   gradient norm :     0.0184866 Eh/a0  converged?    E=F G=F D=F
   time step     :     0.2500000 fs     power     :   0.4348265E-07
   step length   :     0.0557098 a0     speed     :   0.5390222E-02

........................................................................
.............................. CYCLE   46 ..............................
........................................................................

 iter      E             dE          RMSdq      gap      omega  full diag
   1  -3478.6243777 -0.347862E+04  0.170E-03   10.93       0.0  T
   2  -3478.6243782 -0.518717E-06  0.992E-04   10.93       1.8  T
   3  -3478.6243782 -0.182545E-07  0.180E-04   10.93       9.8  T
     SCC iter.                  ...        2 min, 59.237 sec
     gradient                   ...        3 min, 29.374 sec
 * total energy  : -3427.3806978 Eh     change    :  -0.8278644E-03 Eh
   gradient norm :     0.0174414 Eh/a0  converged?    E=F G=F D=F
   time step     :     0.2500000 fs     power     :   0.4219896E-07
   step length   :     0.0555784 a0     speed     :   0.5377513E-02

........................................................................
.............................. CYCLE   47 ..............................
........................................................................

 iter      E             dE          RMSdq      gap      omega  full diag
   1  -3478.6171641 -0.347862E+04  0.172E-03   10.93       0.0  T
   2  -3478.6171645 -0.378118E-06  0.101E-03   10.93       1.7  T
   3  -3478.6171645 -0.172754E-07  0.141E-04   10.93      12.4  T
   4  -3478.6171645 -0.566615E-08  0.387E-05   10.93      45.3  T
     SCC iter.                  ...        3 min, 57.370 sec
     gradient                   ...        3 min, 30.948 sec
 * total energy  : -3427.3814997 Eh     change    :  -0.8018660E-03 Eh
   gradient norm :     0.0176216 Eh/a0  converged?    E=F G=F D=F
   time step     :     0.2500000 fs     power     :   0.4105126E-07
   step length   :     0.0555449 a0     speed     :   0.5374266E-02

........................................................................
.............................. CYCLE   48 ..............................
........................................................................

 iter      E             dE          RMSdq      gap      omega  full diag
   1  -3478.6144551 -0.347861E+04  0.186E-03   10.93       0.0  T
   2  -3478.6144553 -0.185305E-06  0.109E-03   10.93       1.6  T
   3  -3478.6144553 -0.154582E-07  0.863E-05   10.93      20.3  T
   4  -3478.6144553 -0.577984E-08  0.317E-05   10.93      55.3  T
     SCC iter.                  ...        3 min, 58.191 sec
     gradient                   ...        3 min, 29.011 sec
 * total energy  : -3427.3823701 Eh     change    :  -0.8703795E-03 Eh
   gradient norm :     0.0178788 Eh/a0  converged?    E=F G=F D=F
   time step     :     0.2750000 fs     power     :   0.4078733E-07
   step length   :     0.0609717 a0     speed     :   0.5363034E-02

........................................................................
.............................. CYCLE   49 ..............................
........................................................................

 iter      E             dE          RMSdq      gap      omega  full diag
   1  -3478.6186012 -0.347862E+04  0.204E-03   10.93       0.0  T
   2  -3478.6186013 -0.698146E-07  0.119E-03   10.93       1.5  T
   3  -3478.6186013 -0.167947E-07  0.624E-05   10.93      28.1  T
   4  -3478.6186013 -0.500222E-08  0.290E-05   10.93      60.4  T
     SCC iter.                  ...        3 min, 55.903 sec
     gradient                   ...        3 min, 29.366 sec
 * total energy  : -3427.3833274 Eh     change    :  -0.9573518E-03 Eh
   gradient norm :     0.0170076 Eh/a0  converged?    E=F G=F D=F
   time step     :     0.3025000 fs     power     :   0.4083762E-07
   step length   :     0.0669663 a0     speed     :   0.5354833E-02

........................................................................
.............................. CYCLE   50 ..............................
........................................................................

 iter      E             dE          RMSdq      gap      omega  full diag
   1  -3478.6301291 -0.347863E+04  0.232E-03   10.93       0.0  T
   2  -3478.6301293 -0.226571E-06  0.135E-03   10.93       1.3  T
   3  -3478.6301293 -0.220257E-07  0.930E-05   10.93      18.8  T
   4  -3478.6301293 -0.487626E-08  0.345E-05   10.93      50.8  T
     SCC iter.                  ...        3 min, 59.649 sec
     gradient                   ...        3 min, 29.986 sec
 * total energy  : -3427.3843641 Eh     change    :  -0.1036653E-02 Eh
   gradient norm :     0.0150918 Eh/a0  converged?    E=F G=F D=F
   time step     :     0.3327500 fs     power     :   0.3974457E-07
   step length   :     0.0739691 a0     speed     :   0.5377089E-02

........................................................................
.............................. CYCLE   51 ..............................
........................................................................

 iter      E             dE          RMSdq      gap      omega  full diag
   1  -3478.6463813 -0.347865E+04  0.257E-03   10.93       0.0  T
   2  -3478.6463818 -0.486705E-06  0.150E-03   10.93       1.2  T
   3  -3478.6463818 -0.288637E-07  0.146E-04   10.93      12.0  T
   4  -3478.6463818 -0.624641E-08  0.427E-05   10.93      41.0  T
     SCC iter.                  ...        4 min,  0.111 sec
     gradient                   ...        3 min, 28.360 sec
 * total energy  : -3427.3854448 Eh     change    :  -0.1080743E-02 Eh
   gradient norm :     0.0140857 Eh/a0  converged?    E=F G=F D=F
   time step     :     0.3660250 fs     power     :   0.3710926E-07
   step length   :     0.0823302 a0     speed     :   0.5440812E-02

........................................................................
.............................. CYCLE   52 ..............................
........................................................................

 iter      E             dE          RMSdq      gap      omega  full diag
   1  -3478.6602650 -0.347866E+04  0.259E-03   10.93       0.0  T
   2  -3478.6602654 -0.359722E-06  0.151E-03   10.93       1.2  T
   3  -3478.6602654 -0.319078E-07  0.118E-04   10.93      14.9  T
   4  -3478.6602654 -0.600721E-08  0.433E-05   10.93      40.5  T
     SCC iter.                  ...        3 min, 56.226 sec
     gradient                   ...        3 min, 30.570 sec
 * total energy  : -3427.3865596 Eh     change    :  -0.1114720E-02 Eh
   gradient norm :     0.0148399 Eh/a0  converged?    E=F G=F D=F
   time step     :     0.4026275 fs     power     :   0.3489800E-07
   step length   :     0.0915741 a0     speed     :   0.5501542E-02

........................................................................
.............................. CYCLE   53 ..............................
........................................................................

 iter      E             dE          RMSdq      gap      omega  full diag
   1  -3478.6644315 -0.347866E+04  0.250E-03   10.94       0.0  T
   2  -3478.6644316 -0.108752E-06  0.147E-03   10.94       1.2  T
   3  -3478.6644316 -0.330851E-07  0.772E-05   10.94      22.7  T
   4  -3478.6644316 -0.504451E-08  0.418E-05   10.94      41.9  T
     SCC iter.                  ...        3 min, 58.643 sec
     gradient                   ...        3 min, 29.773 sec
 * total energy  : -3427.3877488 Eh     change    :  -0.1189264E-02 Eh
   gradient norm :     0.0147257 Eh/a0  converged?    E=F G=F D=F
   time step     :     0.4428903 fs     power     :   0.3421071E-07
   step length   :     0.1010378 a0     speed     :   0.5518271E-02

........................................................................
.............................. CYCLE   54 ..............................
........................................................................

 iter      E             dE          RMSdq      gap      omega  full diag
   1  -3478.6564647 -0.347866E+04  0.259E-03   10.94       0.0  T
   2  -3478.6564652 -0.471796E-06  0.152E-03   10.94       1.2  T
   3  -3478.6564653 -0.419514E-07  0.131E-04   10.94      13.3  T
   4  -3478.6564653 -0.695672E-08  0.516E-05   10.94      34.0  T
     SCC iter.                  ...        3 min, 52.528 sec
     gradient                   ...        3 min, 29.427 sec
 * total energy  : -3427.3890265 Eh     change    :  -0.1277714E-02 Eh
   gradient norm :     0.0131878 Eh/a0  converged?    E=F G=F D=F
   time step     :     0.4871793 fs     power     :   0.3310307E-07
   step length   :     0.1115713 a0     speed     :   0.5539604E-02

........................................................................
.............................. CYCLE   55 ..............................
........................................................................

 iter      E             dE          RMSdq      gap      omega  full diag
   1  -3478.6427220 -0.347864E+04  0.267E-03   10.94       0.0  T
   2  -3478.6427229 -0.897620E-06  0.157E-03   10.94       1.1  T
   3  -3478.6427230 -0.545542E-07  0.212E-04   10.94       8.3  T
   4  -3478.6427230 -0.103823E-07  0.661E-05   10.94      26.5  T
     SCC iter.                  ...        3 min, 51.500 sec
     gradient                   ...        3 min, 29.919 sec
 * total energy  : -3427.3903592 Eh     change    :  -0.1332637E-02 Eh
   gradient norm :     0.0135014 Eh/a0  converged?    E=F G=F D=F
   time step     :     0.5358972 fs     power     :   0.3107628E-07
   step length   :     0.1239593 a0     speed     :   0.5595164E-02

........................................................................
.............................. CYCLE   56 ..............................
........................................................................

 iter      E             dE          RMSdq      gap      omega  full diag
   1  -3478.6380886 -0.347864E+04  0.255E-03   10.94       0.0  T
   2  -3478.6380889 -0.344908E-06  0.150E-03   10.94       1.2  T
   3  -3478.6380890 -0.532755E-07  0.129E-04   10.94      13.6  T
   4  -3478.6380890 -0.934915E-08  0.653E-05   10.94      26.8  T
     SCC iter.                  ...        3 min, 54.337 sec
     gradient                   ...        3 min, 31.543 sec
 * total energy  : -3427.3917831 Eh     change    :  -0.1423895E-02 Eh
   gradient norm :     0.0141187 Eh/a0  converged?    E=F G=F D=F
   time step     :     0.5894869 fs     power     :   0.3072800E-07
   step length   :     0.1369685 a0     speed     :   0.5620326E-02

........................................................................
.............................. CYCLE   57 ..............................
........................................................................

 iter      E             dE          RMSdq      gap      omega  full diag
   1  -3478.6511902 -0.347865E+04  0.289E-03   10.95       0.0  T
   2  -3478.6511906 -0.365350E-06  0.168E-03   10.95       1.0  T
   3  -3478.6511907 -0.437240E-07  0.148E-04   10.95      11.8  T
   4  -3478.6511907 -0.123691E-07  0.591E-05   10.95      29.6  T
     SCC iter.                  ...        3 min, 57.718 sec
     gradient                   ...        3 min, 29.079 sec
 * total energy  : -3427.3933477 Eh     change    :  -0.1564669E-02 Eh
   gradient norm :     0.0126185 Eh/a0  converged?    E=F G=F D=F
   time step     :     0.6484356 fs     power     :   0.3053579E-07
   step length   :     0.1511676 a0     speed     :   0.5639064E-02

........................................................................
.............................. CYCLE   58 ..............................
........................................................................

 iter      E             dE          RMSdq      gap      omega  full diag
   1  -3478.6748576 -0.347867E+04  0.330E-03   10.95       0.0  T
   2  -3478.6748583 -0.690708E-06  0.191E-03   10.95       1.0  T
   3  -3478.6748584 -0.443670E-07  0.198E-04   10.95       8.8  T
   4  -3478.6748584 -0.130131E-07  0.590E-05   10.95      29.7  T
     SCC iter.                  ...        3 min, 59.423 sec
     gradient                   ...        3 min, 28.977 sec
 * total energy  : -3427.3950140 Eh     change    :  -0.1666212E-02 Eh
   gradient norm :     0.0132032 Eh/a0  converged?    E=F G=F D=F
   time step     :     0.7132792 fs     power     :   0.2927706E-07
   step length   :     0.1682308 a0     speed     :   0.5705071E-02

........................................................................
.............................. CYCLE   59 ..............................
........................................................................

 iter      E             dE          RMSdq      gap      omega  full diag
   1  -3478.6883925 -0.347869E+04  0.319E-03   10.96       0.0  T
   2  -3478.6883928 -0.248817E-06  0.189E-03   10.96       1.0  T
   3  -3478.6883928 -0.548043E-07  0.122E-04   10.96      14.4  T
   4  -3478.6883929 -0.996442E-08  0.673E-05   10.96      26.0  T
     SCC iter.                  ...        3 min, 59.091 sec
     gradient                   ...        3 min, 28.202 sec
 * total energy  : -3427.3968349 Eh     change    :  -0.1820961E-02 Eh
   gradient norm :     0.0125373 Eh/a0  converged?    E=F G=F D=F
   time step     :     0.7846071 fs     power     :   0.2953516E-07
   step length   :     0.1864069 a0     speed     :   0.5746784E-02

........................................................................
.............................. CYCLE   60 ..............................
........................................................................

 iter      E             dE          RMSdq      gap      omega  full diag
   1  -3478.6897560 -0.347869E+04  0.345E-03   10.96       0.0  T
   2  -3478.6897573 -0.139220E-05  0.209E-03   10.96       1.0  T
   3  -3478.6897574 -0.719037E-07  0.239E-04   10.96       7.3  T
   4  -3478.6897574 -0.176829E-07  0.812E-05   10.96      21.6  T
     SCC iter.                  ...        3 min, 53.310 sec
     gradient                   ...        3 min, 28.672 sec
 * total energy  : -3427.3987951 Eh     change    :  -0.1960186E-02 Eh
   gradient norm :     0.0117757 Eh/a0  converged?    E=F G=F D=F
   time step     :     0.8630678 fs     power     :   0.2816628E-07
   step length   :     0.2077691 a0     speed     :   0.5823059E-02

........................................................................
.............................. CYCLE   61 ..............................
........................................................................

 iter      E             dE          RMSdq      gap      omega  full diag
   1  -3478.7100604 -0.347871E+04  0.405E-03   10.97       0.0  T
   2  -3478.7100607 -0.329248E-06  0.240E-03   10.97       1.0  T
   3  -3478.7100608 -0.651762E-07  0.130E-04   10.97      13.5  T
   4  -3478.7100608 -0.116747E-07  0.677E-05   10.97      25.9  T
     SCC iter.                  ...        4 min,  0.127 sec
     gradient                   ...        3 min, 28.610 sec
 * total energy  : -3427.4008741 Eh     change    :  -0.2078978E-02 Eh
   gradient norm :     0.0111820 Eh/a0  converged?    E=F G=F D=F
   time step     :     0.9493746 fs     power     :   0.2748682E-07
   step length   :     0.2318136 a0     speed     :   0.5906311E-02

........................................................................
.............................. CYCLE   62 ..............................
........................................................................

 iter      E             dE          RMSdq      gap      omega  full diag
   1  -3478.7553614 -0.347876E+04  0.555E-03   10.97       0.0  T
   2  -3478.7553627 -0.129101E-05  0.321E-03   10.98       1.0  T
   3  -3478.7553628 -0.886635E-07  0.251E-04   10.98       7.0  T
   4  -3478.7553628 -0.166260E-07  0.766E-05   10.98      22.9  T
     SCC iter.                  ...        3 min, 53.724 sec
     gradient                   ...        3 min, 29.555 sec
 * total energy  : -3427.4030315 Eh     change    :  -0.2157376E-02 Eh
   gradient norm :     0.0109229 Eh/a0  converged?    E=F G=F D=F
   time step     :     1.0443120 fs     power     :   0.2495488E-07
   step length   :     0.2592481 a0     speed     :   0.6004825E-02

........................................................................
.............................. CYCLE   63 ..............................
........................................................................

 iter      E             dE          RMSdq      gap      omega  full diag
   1  -3478.7676970 -0.347877E+04  0.518E-03   10.98       0.0  T
   2  -3478.7676981 -0.105094E-05  0.307E-03   10.98       1.0  T
   3  -3478.7676982 -0.764853E-07  0.186E-04   10.98       9.4  T
   4  -3478.7676982 -0.279533E-07  0.751E-05   10.98      23.3  T
     SCC iter.                  ...        3 min, 54.782 sec
     gradient                   ...        3 min, 29.255 sec
 * total energy  : -3427.4052361 Eh     change    :  -0.2204674E-02 Eh
   gradient norm :     0.0092802 Eh/a0  converged?    E=F G=F D=F
   time step     :     1.1487432 fs     power     :   0.2332406E-07
   step length   :     0.2883348 a0     speed     :   0.6071406E-02

........................................................................
.............................. CYCLE   64 ..............................
........................................................................

 iter      E             dE          RMSdq      gap      omega  full diag
   1  -3478.7692325 -0.347877E+04  0.536E-03   10.99       0.0  T
   2  -3478.7692339 -0.137154E-05  0.319E-03   10.99       1.0  T
   3  -3478.7692340 -0.789032E-07  0.202E-04   10.99       8.7  T
   4  -3478.7692340 -0.297391E-07  0.793E-05   10.99      22.1  T
     SCC iter.                  ...        3 min, 56.535 sec
     gradient                   ...        3 min, 29.084 sec
 * total energy  : -3427.4074137 Eh     change    :  -0.2177552E-02 Eh
   gradient norm :     0.0105493 Eh/a0  converged?    E=F G=F D=F
   time step     :     1.2500000 fs     power     :   0.2092017E-07
   step length   :     0.3185537 a0     speed     :   0.6164357E-02

........................................................................
.............................. CYCLE   65 ..............................
........................................................................

 iter      E             dE          RMSdq      gap      omega  full diag
   1  -3478.8105225 -0.347881E+04  0.622E-03   11.00       0.0  T
   2  -3478.8105244 -0.190984E-05  0.360E-03   11.00       1.0  T
   3  -3478.8105245 -0.739128E-07  0.305E-04   11.00       5.7  T
   4  -3478.8105245 -0.331784E-07  0.771E-05   11.00      22.7  T
     SCC iter.                  ...        3 min, 55.118 sec
     gradient                   ...        3 min, 28.796 sec
 * total energy  : -3427.4094257 Eh     change    :  -0.2012069E-02 Eh
   gradient norm :     0.0108994 Eh/a0  converged?    E=F G=F D=F
   time step     :     1.2500000 fs     power     :   0.1882641E-07
   step length   :     0.3183610 a0     speed     :   0.6160628E-02

........................................................................
.............................. CYCLE   66 ..............................
........................................................................

 iter      E             dE          RMSdq      gap      omega  full diag
   1  -3478.8075079 -0.347881E+04  0.469E-03   11.01       0.0  T
   2  -3478.8075097 -0.179241E-05  0.280E-03   11.01       1.0  T
   3  -3478.8075098 -0.881946E-07  0.253E-04   11.01       6.9  T
   4  -3478.8075098 -0.244827E-07  0.908E-05   11.01      19.3  T
     SCC iter.                  ...        3 min, 56.454 sec
     gradient                   ...        3 min, 28.210 sec
 * total energy  : -3427.4113309 Eh     change    :  -0.1905105E-02 Eh
[...]
  3011   6 C     3012   6 C                                       1.5291179
  3012   6 C     3013   6 C                                       1.5267601
  3013   6 C     3014   6 C                                       1.5267972
  3014   6 C     3015   6 C                                       1.5264326
  3015   6 C     3016   6 C                                       1.5234164
  3015   6 C     3017   1 H                                       1.0922392
  3015   6 C     3018   1 H                                       1.0930309
  3014   6 C     3019   1 H                                       1.0932444
  3014   6 C     3020   1 H                                       1.0924018
  3013   6 C     3021   1 H                                       1.0919734
  3013   6 C     3022   1 H                                       1.0933140
  3012   6 C     3023   1 H                                       1.0935793
  3012   6 C     3024   1 H                                       1.0922864
  3011   6 C     3025   1 H                                       1.0932415
  3011   6 C     3026   1 H                                       1.0936131
  3010   6 C     3027   1 H                                       1.0921605
  3010   6 C     3028   1 H                                       1.0914362
  3009   6 C     3029   1 H                                       1.0933716
  3009   6 C     3030   1 H                                       1.0932144
  3008   6 C     3031   1 H                                       1.0925418
  3008   6 C     3032   1 H                                       1.0929244
  3007   6 C     3033   1 H                                       1.0934606
  3007   6 C     3034   1 H                                       1.0917406
  3006   6 C     3035   1 H                                       1.0912712
  3006   6 C     3036   1 H                                       1.0930252
  3005   6 C     3037   1 H                                       1.0921301
  3005   6 C     3038   1 H                                       1.0940207
  3004   6 C     3039   1 H                                       1.0923219
  3004   6 C     3040   1 H                                       1.0926692
  3003   6 C     3041   1 H                                       1.0925774
  3003   6 C     3042   1 H                                       1.0917649
  3002   6 C     3043   1 H                                       1.0936379
  3002   6 C     3044   1 H                                       1.0921941
  3001   6 C     3045   1 H                                       1.0937755
  3001   6 C     3046   1 H                                       1.0908145
  3000   6 C     3047   1 H                                       1.0916024
  3000   6 C     3048   1 H                                       1.0924217
  2999   6 C     3049   1 H                                       1.0932127
  2999   6 C     3050   1 H                                       1.0910000
  2998   6 C     3051   1 H                                       1.0919290
  2998   6 C     3052   1 H                                       1.0936736
  2997   6 C     3053   1 H                                       1.0934885
  2997   6 C     3054   1 H                                       1.0932425
  2996   6 C     3055   1 H                                       1.0910965
  2996   6 C     3056   1 H                                       1.0930365
  2995   6 C     3057   1 H                                       1.0929550
  2995   6 C     3058   1 H                                       1.0928996
  2994   6 C     3059   1 H                                       1.0930874
  2994   6 C     3060   1 H                                       1.0930420
  2993   6 C     3061   1 H                                       1.0927573
  2993   6 C     3062   1 H                                       1.0926736
  2992   6 C     3063   1 H                                       1.0899789
  2992   6 C     3064   1 H                                       1.0926798
  2991   6 C     3065   1 H                                       1.0933216
  2991   6 C     3066   1 H                                       1.0929354
  2990   6 C     3067   1 H                                       1.0930998
  2990   6 C     3068   1 H                                       1.0934800
  2989   6 C     3069   1 H                                       1.0926716
  2989   6 C     3070   1 H                                       1.0904808
  2988   6 C     3071   1 H                                       1.0935450
  2988   6 C     3072   1 H                                       1.0933436
  2987   6 C     3073   1 H                                       1.0913214
  2987   6 C     3074   1 H                                       1.0921712
  2986   6 C     3075   1 H                                       1.0936827
  2986   6 C     3076   1 H                                       1.0931521
  2985   6 C     3077   1 H                                       1.0922832
  2985   6 C     3078   1 H                                       1.0938320
  2984   6 C     3079   1 H                                       1.0935007
  2984   6 C     3080   1 H                                       1.0911057
  2983   6 C     3081   1 H                                       1.0921934
  2983   6 C     3082   1 H                                       1.0939296
  2982   6 C     3083   1 H                                       1.0937346
  2982   6 C     3084   1 H                                       1.0920824
  2981   6 C     3085   1 H                                       1.0919957
  2981   6 C     3086   1 H                                       1.0937136
  2980   6 C     3087   1 H                                       1.0935532
  2980   6 C     3088   1 H                                       1.0914193
  2979   6 C     3089   1 H                                       1.0908702
  2979   6 C     3090   1 H                                       1.0936220
  2978   6 C     3091   1 H                                       1.0923749
  2978   6 C     3092   1 H                                       1.0935142
  2977   6 C     3093   1 H                                       1.0936538
  2977   6 C     3094   1 H                                       1.0908001
  2976   6 C     3095   1 H                                       1.0925369
  2976   6 C     3096   1 H                                       1.0907462
  2975   6 C     3097   1 H                                       1.0926851
  2975   6 C     3098   1 H                                       1.0938522
  2974   6 C     3099   1 H                                       1.0932620
  2974   6 C     3100   1 H                                       1.0927802
  2973   6 C     3101   1 H                                       1.0930328
  2973   6 C     3102   1 H                                       1.0931404
  2972   6 C     3103   1 H                                       1.0924207
  2972   6 C     3104   1 H                                       1.0928971
  2971   6 C     3105   1 H                                       1.0924813
  2971   6 C     3106   1 H                                       1.0927688
  2970   6 C     3107   1 H                                       1.0927678
  2970   6 C     3108   1 H                                       1.0929186
  2969   6 C     3109   1 H                                       1.0923642
  2969   6 C     3110   1 H                                       1.0929712
  2968   6 C     3111   1 H                                       1.0915687
  2968   6 C     3112   1 H                                       1.0928220
  2967   6 C     3113   1 H                                       1.0928983
  2967   6 C     3114   1 H                                       1.0931286
  2966   6 C     3115   1 H                                       1.0928642
  2966   6 C     3116   1 H                                       1.0933987
  2965   6 C     3117   1 H                                       1.0934299
  2965   6 C     3118   1 H                                       1.0916288
  2964   6 C     3119   1 H                                       1.0928594
  2964   6 C     3120   1 H                                       1.0930821
  2963   6 C     3121   1 H                                       1.0936442
  2963   6 C     3122   1 H                                       1.0920497
  2962   6 C     3123   1 H                                       1.0928024
  2962   6 C     3124   1 H                                       1.0926647
  2961   6 C     3125   1 H                                       1.0937413
  2961   6 C     3126   1 H                                       1.0925166
  2960   6 C     3127   1 H                                       1.0927545
  2960   6 C     3128   1 H                                       1.0924910
  2959   6 C     3129   1 H                                       1.0937896
  2959   6 C     3130   1 H                                       1.0927926
  2958   6 C     3131   1 H                                       1.0925484
  2958   6 C     3132   1 H                                       1.0926558
  2957   6 C     3133   1 H                                       1.0937806
  2957   6 C     3134   1 H                                       1.0928465
  2956   6 C     3135   1 H                                       1.0926388
  2956   6 C     3136   1 H                                       1.0921230
  2955   6 C     3137   1 H                                       1.0939760
  2955   6 C     3138   1 H                                       1.0919790
  2954   6 C     3139   1 H                                       1.0905974
  2954   6 C     3140   1 H                                       1.0919736
  2953   6 C     3141   1 H                                       1.0931409
  2953   6 C     3142   1 H                                       1.0920265
  2952   6 C     3143   1 H                                       1.0933277
  2952   6 C     3144   1 H                                       1.0935518
  2951   6 C     3145   1 H                                       1.0920957
  2951   6 C     3146   1 H                                       1.0935766
  2950   6 C     3147   1 H                                       1.0930821
  2950   6 C     3148   1 H                                       1.0915161
  2949   6 C     3149   1 H                                       1.0932690
  2949   6 C     3150   1 H                                       1.0928080
  2948   6 C     3151   1 H                                       1.0931042
  2948   6 C     3152   1 H                                       1.0911160
  2947   6 C     3153   1 H                                       1.0921413
  2947   6 C     3154   1 H                                       1.0932920
  2946   6 C     3155   1 H                                       1.0933058
  2946   6 C     3156   1 H                                       1.0930898
  2945   6 C     3157   1 H                                       1.0915542
  2945   6 C     3158   1 H                                       1.0905874
  2944   6 C     3159   1 H                                       1.0925253
  2944   6 C     3160   1 H                                       1.0933370
  2943   6 C     3161   1 H                                       1.0932162
  2943   6 C     3162   1 H                                       1.0933265
  2942   6 C     3163   1 H                                       1.0900447
  2942   6 C     3164   1 H                                       1.0927516
  2941   6 C     3165   1 H                                       1.0932328
  2941   6 C     3166   1 H                                       1.0931191
  2940   6 C     3167   1 H                                       1.0928962
  2940   6 C     3168   1 H                                       1.0928299
  2939   6 C     3169   1 H                                       1.0934984
  2939   6 C     3170   1 H                                       1.0931704
  2938   6 C     3171   1 H                                       1.0930385
  2938   6 C     3172   1 H                                       1.0933945
  2937   6 C     3173   1 H                                       1.0928098
  2937   6 C     3174   1 H                                       1.0914525
  2936   6 C     3175   1 H                                       1.0931145
  2936   6 C     3176   1 H                                       1.0916203
  2935   6 C     3177   1 H                                       1.0933426
  2935   6 C     3178   1 H                                       1.0942806
  2934   6 C     3179   1 H                                       1.0921604
  2934   6 C     3180   1 H                                       1.0911499
  2933   6 C     3181   1 H                                       1.0921902
  2933   6 C     3182   1 H                                       1.0936391
  2932   6 C     3183   1 H                                       1.0935410
  2932   6 C     3184   1 H                                       1.0924924
  2931   6 C     3185   1 H                                       1.0913559
  2931   6 C     3186   1 H                                       1.0916590
  2930   6 C     3187   1 H                                       1.0931820
  2930   6 C     3188   1 H                                       1.0923970
  2929   6 C     3189   1 H                                       1.0925407
  2929   6 C     3190   1 H                                       1.0927215
  2928   6 C     3191   1 H                                       1.0917753
  2928   6 C     3192   1 H                                       1.0907259
  2927   6 C     3193   1 H                                       1.0936530
  2927   6 C     3194   1 H                                       1.0926130
  2926   6 C     3195   1 H                                       1.0940099
  2926   6 C     3196   1 H                                       1.0934916
  2925   6 C     3197   1 H                                       1.0898210
  2925   6 C     3198   1 H                                       1.0930061
  2924   6 C     3199   1 H                                       1.0931078
  2924   6 C     3200   1 H                                       1.0932054
  2923   6 C     3201   1 H                                       1.0923485
  2923   6 C     3202   1 H                                       1.0929507
  2922   6 C     3203   1 H                                       1.0936690
  2922   6 C     3204   1 H                                       1.0912122
  2921   6 C     3205   1 H                                       1.0928729
  2921   6 C     3206   1 H                                       1.0928084
  2920   6 C     3207   1 H                                       1.0931048
  2920   6 C     3208   1 H                                       1.0936515
  2919   6 C     3209   1 H                                       1.0915827
  2919   6 C     3210   1 H                                       1.0932573
  2918   6 C     3211   1 H                                       1.0937513
  2918   6 C     3212   1 H                                       1.0934077
  2917   6 C     3213   1 H                                       1.0911338
  2917   6 C     3214   1 H                                       1.0940942
  2916   6 C     3215   1 H                                       1.0935465
  2916   6 C     3216   1 H                                       1.0912976
  2915   6 C     3217   1 H                                       1.0925990
  2915   6 C     3218   1 H                                       1.0939846
  2914   6 C     3219   1 H                                       1.0929627
  2914   6 C     3220   1 H                                       1.0913615
  2913   6 C     3221   1 H                                       1.0929136
  2913   6 C     3222   1 H                                       1.0934371
  2912   6 C     3223   1 H                                       1.0932012
  2912   6 C     3224   1 H                                       1.0911735
  2911   6 C     3225   1 H                                       1.0917209
  2911   6 C     3226   1 H                                       1.0932931
  2910   6 C     3227   1 H                                       1.0929471
  2910   6 C     3228   1 H                                       1.0929179
  2909   6 C     3229   1 H                                       1.0917754
  2909   6 C     3230   1 H                                       1.0929323
  2908   6 C     3231   1 H                                       1.0938315
  2908   6 C     3232   1 H                                       1.0928891
  2907   6 C     3233   1 H                                       1.0924740
  2907   6 C     3234   1 H                                       1.0928152
  2906   6 C     3235   1 H                                       1.0930566
  2906   6 C     3236   1 H                                       1.0926709
  2905   6 C     3237   1 H                                       1.0927195
  2905   6 C     3238   1 H                                       1.0927022
  2904   6 C     3239   1 H                                       1.0922288
  2904   6 C     3240   1 H                                       1.0928880
  2903   6 C     3241   1 H                                       1.0932231
  2903   6 C     3242   1 H                                       1.0931065
  2902   6 C     3243   1 H                                       1.0927457
  2902   6 C     3244   1 H                                       1.0931437
  2901   6 C     3245   1 H                                       1.0926911
  2901   6 C     3246   1 H                                       1.0925895
  2900   6 C     3247   1 H                                       1.0931511
  2900   6 C     3248   1 H                                       1.0935042
  2899   6 C     3249   1 H                                       1.0921559
  2899   6 C     3250   1 H                                       1.0921298
  2898   6 C     3251   1 H                                       1.0931274
  2898   6 C     3252   1 H                                       1.0932199
  2897   6 C     3253   1 H                                       1.0879175
  2897   6 C     3254   1 H                                       1.0872490
  2897   6 C     3255   1 H                                       1.0880278
  3016   6 C     3256   1 H                                       1.0882769
  3016   6 C     3257   1 H                                       1.0879199
  3016   6 C     3258   1 H                                       1.0877510

 * 2 distinct bonds (by element types)

   Z      Z             #   av. dist./Å        max./Å        min./Å
   1 H    6 C        2178     1.0925460     1.0946351     1.0860173
   6 C    6 C        1071     1.5273748     1.5375566     1.5220662


optimized geometry written to: xtbopt.xyz


           -------------------------------------------------
          | TOTAL ENERGY            -3427.501680562533 Eh   |
          | GRADIENT NORM               0.000660973264 Eh/α |
          | HOMO-LUMO GAP              11.296443728460 eV   |
           -------------------------------------------------

------------------------------------------------------------------------
 * finished run on 2024/06/21 at 02:10:02.568     
------------------------------------------------------------------------
 total:
 * wall-time:     3 d, 10 h, 52 min, 25.049 sec
 *  cpu-time:    19 d,  1 h,  9 min, 48.608 sec
 * ratio c/w:     5.516 speedup
 SCF:
 * wall-time:     0 d,  0 h,  6 min, 53.897 sec
 *  cpu-time:     0 d,  0 h, 37 min, 35.764 sec
 * ratio c/w:     5.450 speedup
 ANC optimizer:
 * wall-time:     3 d, 10 h, 44 min, 49.414 sec
 *  cpu-time:    19 d,  0 h, 31 min, 15.344 sec
 * ratio c/w:     5.517 speedup

