3258
 energy: -3427.528128685573 gnorm: 0.000667630155 xtb: 6.6.1 (8d0f1dd)
C          103.16075143974717      120.54769574462132      119.43388446721160
C          103.56109245245078      119.97563410787434      118.07884774905750
C          104.03112921552432      118.52258786215847      118.14435114986078
C          102.94454269464231      117.54628143373527      118.58912830558928
C          103.38159977182183      116.09314945530566      118.41941467750459
C          102.29286874711164      115.11173068164271      118.84411152396609
C          102.66765101149410      113.66326827404163      118.54091331998956
C          101.52563035537806      112.70087235017048      118.85427069625644
C          101.78647019981089      111.28966517155155      118.33576517747348
C          100.57162008781486      110.38787604116803      118.54007654362631
C          100.71385596045222      109.02428885383493      117.86287203917043
C          100.53252136249731      109.05925000927503      116.34307199505551
C           99.07327746971325      109.15611647816060      115.90052093018264
C           98.91051013633123      109.26748991257654      114.38130330605898
C           99.49664063193178      108.07600215345829      113.62658040224490
C           99.13487071614327      108.05735641815367      112.14364464487559
C           99.77562539957724      106.86646740032184      111.43235454435849
C           99.34536122178616      106.73024021414062      109.97333185985333
C          100.04534355631309      105.55412988188293      109.29471896042973
C           99.63386968102823      105.38045967563427      107.83526346285129
C          100.39414209867843      104.24624113680680      107.15068141771434
C          100.01132356584272      104.10193981321792      105.68010228457409
C          100.86349461945396      103.07114853051665      104.94485508445642
C          100.44143707652765      102.92403101421287      103.48472290809067
C          101.41087818905805      102.06507319967973      102.67797675180420
C          100.92948892509993      101.84743978835547      101.24487936481121
C          101.98828012282108      101.18151688190662      100.36327715962820
C          103.02302550154150      102.18371859489747       99.85604520504211
C          104.16582263229070      101.54682889574286       99.06467045590666
C          105.18887365710148      100.84712268213566       99.95417041514202
C          106.40228850263249      100.34663303441896       99.17615594068749
C          107.37707208219014       99.54575356918562      100.04147044658615
C          108.07098020060370      100.39720358769391      101.10027930194968
C          109.09129122707949       99.62370793888819      101.93584192560245
C          110.23611628766101       99.04561435469587      101.09959843434103
C          111.55081741384042       98.93239618444169      101.86934535305750
C          111.51699307457099       97.94154373027244      103.02813123850345
C          112.85154918904918       97.90425925246362      103.77109150785573
C          112.77327496312088       97.10006720607876      105.06608244648808
C          114.09510083930370       97.10072580579063      105.83214451304060
C          113.94532109064214       96.49796297456048      107.22707385471340
C          115.24855145153475       96.54604874821186      108.02303491499028
C          115.06589812383974       96.16849242772651      109.49391621556892
C          114.81464179195738       94.67676342340485      109.70669044494420
C          114.56907071410863       94.31521139256347      111.17352006492543
C          113.18030494102680       94.72559805393531      111.65725726047114
C          112.93734494888174       94.36631796654991      113.12118857122631
C          111.53663956894871       94.76997092125079      113.57343414714326
C          111.29944920668825       94.54491973773881      115.06327658401604
C          109.88059606123591       94.94161542357645      115.46589709092117
C          109.65191661391032       94.87096095058816      116.97378995720231
C          108.19104860898864       95.13589613078729      117.33047432889984
C          107.92898677936975       95.25651376343194      118.83208140176762
C          108.34632386029412       94.04170352278651      119.66429778705692
C          107.76502036531983       92.70564333485224      119.20155271027282
C          106.24490697225480       92.62503620673715      119.30448127573645
C          105.71438721811487       91.30611051236281      118.74699069135225
C          104.20026182648736       91.18103354451765      118.89851355275302
C          103.64879225704918       89.87129981031650      118.33280518121262
C          103.59882979251479       89.80741119508157      116.80452074162267
C          102.51687682915774       90.69650732002886      116.19279102396003
C          102.35944765141227       90.44523442615316      114.69445412924955
C          101.25004305496340       91.29591694337432      114.07720786377558
C          100.88301921370059       90.87181067944208      112.65358628811940
C          101.96207749284893       91.20016807067194      111.62250405726493
C          101.75265374790028       90.49227557587282      110.28234122895307
C          100.44857859688967       90.83675240581965      109.56038214560279
C          100.37830724653756       92.29226453396274      109.10482763091743
C           99.17590124926566       92.58345431559711      108.20543401278573
C           97.84048480709757       92.52833337116628      108.94455590677217
C           96.66954938181817       92.92650644012349      108.04708006732099
C           95.32697184262845       92.95992709880565      108.78172066671198
C           95.27182892136236       94.05158952549723      109.84786778612346
C           93.90924014872390       94.15397668857433      110.53518184826392
C           93.99314425367071       94.90004241762769      111.86906276452704
C           94.36699770055583       96.37412184407775      111.71825157459425
C           94.86098482222380       96.98601982204208      113.02609295036640
C           95.35947429646374       98.41462578750583      112.83322048298663
C           95.90962792485378       99.01980424655007      114.12182713782967
C           96.28619958130162      100.48570907471449      113.92699421941012
C           96.65653214719210      101.20874505027834      115.22065531742058
C           97.87498631072167      100.65094640680130      115.95357638119312
C           99.15433597041846      100.67774524750084      115.12165434975314
C          100.38291325801906      100.35758600404344      115.96884337684452
C          101.68638031017333      100.33994297297117      115.16952648443312
C          101.82433287239064       99.10530951062545      114.28173572350079
C          103.17722881935973       99.01823955505186      113.57546968255903
C          104.35170378514712       98.83461016479481      114.53703476794243
C          105.60322972515335       98.32868299406773      113.82405194649003
C          106.81478980468310       98.19852261843646      114.74904997799146
C          107.45921168002683       99.54423939350134      115.07282214260086
C          108.79804461602410       99.40738645755421      115.79591826266341
C          109.50377877395734      100.75525600301023      115.93354604364237
C          110.92992700280679      100.62802457469786      116.46481305560957
C          111.72736785209453      101.91996302330850      116.28269535075287
C          113.06890057011465      101.88178911556830      117.01443788346613
C          114.06046553964579      102.95023032263522      116.55097363047551
C          113.61285977543996      104.38652166884421      116.81381330112011
C          114.72378204998769      105.38485487162106      116.48975060933732
C          114.27688475047105      106.83664280090483      116.63896117554894
C          115.39398462284262      107.82493500704113      116.30889130742840
C          114.91439281452885      109.27405010985923      116.35331107502876
C          116.00092962218002      110.26567363917978      115.94345116262761
C          115.48625394072351      111.70364323127015      115.90490705513014
C          116.53745117993459      112.68319807635046      115.38882159805398
C          116.00989879486514      114.11333108386303      115.29231842834091
C          117.06006949366672      115.07602953136751      114.74263909359438
C          116.53607913276105      116.50374399391575      114.60768066361997
C          117.61037679064540      117.46843052763919      114.10937501899737
C          117.07212377395905      118.88556269087790      113.92881066278046
C          118.15777776091134      119.87352480556383      113.50834152139340
C          117.59557993632127      121.27685891203117      113.29562750881024
C          118.67365459736810      122.29230299602791      112.92595567389111
C          118.08909967876575      123.67951013829084      112.67701678704552
C          119.15233319473207      124.69994682038850      112.27795472645538
C          118.53708793601720      126.06143054276858      111.96388819263622
C          119.58235638653167      127.09308963478466      111.54639255694447
C          118.96526447887753      128.38856852163252      111.01810721714162
C          118.22243158672916      129.18943918561260      112.08534868995460
C          117.65473872942601      130.48720105561307      111.52261614198787
H          117.40510838203201      128.59109282452337      112.49130871986405
H          118.90694460306496      129.41763237258834      112.90601816499685
H          119.75990124639156      129.01338864219463      110.60172937053954
H          118.27642537012035      128.14980228552821      110.20330964500961
H          120.23203940455461      127.31973960858514      112.39541982906545
H          120.20672737978565      126.66216279897750      110.75979157788026
H          117.81148137640041      125.94691576439537      111.15406249319551
H          117.99753779828919      126.41904228691524      112.84295444937948
H          119.87748569518725      124.80587456396334      113.08885484697198
H          119.69150189156798      124.33639733941592      111.39984120238219
H          117.33904769051541      123.61601259921223      111.88301872685186
H          117.58037482368604      124.02253349948160      113.58179001141420
H          119.40651456172429      122.35560818781474      113.73409668586331
H          119.19863584063746      121.95624211560228      112.02826701387151
H          116.84474627205665      121.24553291639177      112.50088261235645
H          117.09093817925081      121.60514339755679      114.20708688209460
H          118.93441056538975      119.90612490924940      114.27704749315168
H          118.62912015782014      119.52814702777160      112.58465962123927
H          116.28135060951600      118.87693657117909      113.17396492723110
H          116.62167664788910      119.22462140197763      114.86471896966974
H          118.44017898333314      117.48502197848555      114.82116515979438
H          118.00659439959480      117.11019372405251      113.15497320132940
H          115.69139901442722      116.51443117753568      113.91453961370424
H          116.16304058962545      116.84881565839062      115.57511873682110
H          117.93293888575828      115.07187150108270      115.40090488571491
H          117.38871094479943      114.72455883983653      113.76012230587415
H          115.13028202695064      114.13099156515160      114.64499089922261
H          115.68908162306357      114.45209927309264      116.28083726509159
H          117.41069940630427      112.66216605104877      116.04582565603263
H          116.86806723129251      112.35867575064744      114.39838630417661
H          114.60746934779570      111.75181163264284      115.25861140853058
H          115.16656435501049      112.00414388359408      116.90620516089088
H          116.84163799730354      110.19722445732374      116.63874413757534
H          116.37544157834191      109.99393495727759      114.95290706979499
H          114.06174174890531      109.38629240232406      115.68082442715171
H          114.56429535893501      109.51047215323695      117.36113384630087
H          116.21852707637571      107.69130532273964      117.01422797657719
H          115.78120617303318      107.60733664570040      115.30959879028642
H          113.43183654327630      107.01908712524282      115.97162936529865
H          113.92963287569647      107.00675327492795      117.66048336420069
H          115.57534470613056      105.20011097599529      117.15025326169109
H          115.06449197043868      105.22090540888254      115.46349803570278
H          112.73629325402553      104.61374628786723      116.20361543277369
H          113.32765084010019      104.49185247599509      117.86310463994434
H          115.00822143597347      102.78123520752881      117.06937971670773
H          114.24768011368673      102.82511874587054      115.48042679783717
H          112.90193008912772      101.98455980458051      118.08990418279321
H          113.53053697992537      100.90339824378775      116.84951237970418
H          111.90433937111588      102.07410565453782      115.21659332862329
H          111.13395434299838      102.76234215985787      116.64347964116180
H          110.90230550738555      100.35280714838589      117.52217344347160
H          111.43819264649775       99.82083619118734      115.93170267005709
H          109.54126640865459      101.22848010025224      114.94886728315117
H          108.92395962989194      101.40956097870699      116.58910070091376
H          108.64655930127813       98.96394633752189      116.78301160460876
H          109.44195335908579       98.72876055352704      115.22802785558572
H          107.62244930773475      100.07890060961878      114.13344245681462
H          106.78191641740825      100.14704109063256      115.68115010164333
H          106.51810307563839       97.69595363986532      115.67353579729897
H          107.56072888183591       97.56571468853713      114.25926105978550
H          105.38240733556259       97.35193841391941      113.38641297157771
H          105.85730378030108       99.00282416170484      113.00258903183190
H          104.57255017028662       99.78105615348146      115.03220935735928
H          104.07321937665301       98.11331694614799      115.30829073701001
H          103.15182770861082       98.16978225111664      112.88558072720996
H          103.32940395544560       99.91822846639847      112.97499284296404
H          101.68147155285918       98.20775834435275      114.89102294633527
H          101.03792529384189       99.11060830421353      113.52331740470457
H          101.74765099928126      101.24038088483141      114.55502826782866
H          102.52279264755364      100.36315548443581      115.87021160900267
H          100.46165893800330      101.10708929969640      116.76146591933605
H          100.24565687441657       99.38639834394991      116.45321475162520
H           99.07295598338823       99.95472758182692      114.30908513891295
H           99.27525156578459      101.66872359482376      114.67678748492844
H           98.02921584607627      101.24978712067139      116.85563203075223
H           97.67120804075961       99.62803946043381      116.27627228135212
H           96.84373666476306      102.25922333420091      114.98407973524179
H           95.79938281976332      101.17105544563920      115.89877836376205
H           97.10727323723287      100.56056788777180      113.21178642617275
H           95.43022384980272      101.00429417470809      113.48623336970212
H           95.15507061362793       98.94269713298590      114.90771569277906
H           96.78139812370411       98.44683243905280      114.44184426475570
H           96.14051450228929       98.42295638638294      112.06879070869618
H           94.53685966953248       99.03304439038160      112.46669572596851
H           94.05814885678853       96.97474081385754      113.76723423341288
H           95.67630588503297       96.37334555545587      113.41881863432742
H           95.15966081688696       96.47244288787162      110.97577129063012
H           93.50415093637480       96.93458331434310      111.35184262539835
H           93.03530875250472       94.82109810911042      112.38976958667405
H           94.74106241123948       94.40422133407432      112.49436078418903
H           93.19425128972880       94.65071335769072      109.87523809428309
H           93.53404625341169       93.14527213899173      110.72776783129208
H           96.02429262111096       93.84444109789713      110.61046483203491
H           95.52278010345709       95.00401558676784      109.37829339943762
H           94.52819093243831       93.13213666837233      108.05479144786919
H           95.14372946812743       91.98686492026259      109.24464500201678
H           96.86371766976897       93.91465273914139      107.62101094326671
H           96.60432576630303       92.21952812620226      107.21569809458693
H           97.66623089440289       91.52049902587898      109.32603802619452
H           97.89210636203292       93.20599090878066      109.79780805935086
H           99.29644413494799       93.58464779737751      107.78256071390530
H           99.16546320618818       91.87381394714490      107.37438614877938
H          100.33802416138471       92.94960232312295      109.97560136871196
H          101.29254458586263       92.52886101072014      108.55321411770437
H          100.36687571820366       90.19273999823609      108.68005555429836
H           99.60383171089968       90.60813135462196      110.21062314183912
H          102.59193529853216       90.73634371059734      109.62502514422479
H          101.77642428941544       89.41232137687857      110.45433762908714
H          102.00214569989474       92.27902261905635      111.46942185010958
H          102.93451639121463       90.88997251957666      112.00986705208773
H          100.69229110060925       89.79500845120417      112.64455324203786
H           99.95437753568697       91.37303458233235      112.37208130634802
H          100.35796944848995       91.20750958971969      114.70349162839928
H          101.55008717432892       92.34525816329069      114.07919932297897
H          103.30982755861213       90.65159006882659      114.19765682065743
H          102.12826596529774       89.38817212919439      114.53497840698516
H          101.56463122785962       90.49088458521652      116.68912920273894
H          102.75786115716018       91.74784888077836      116.35681417164956
H          104.57142440377540       90.07786022940132      116.38862238866932
H          103.39955623067013       88.77222597600539      116.51279412995576
H          104.26620641907490       89.04697113853678      118.70012842115332
H          102.63746747913343       89.71538714811692      118.71623290885786
H          103.95356967522625       91.23148244371963      119.96167132711113
H          103.71340782271388       92.02551167831480      118.40966422462701
H          105.98660991042755       91.23471545125147      117.69133250467567
H          106.19483277845106       90.47215613780230      119.26706322185041
H          105.94426362579276       92.72651643739559      120.34994019576089
H          105.79756499372009       93.44651152198618      118.74508930431145
H          108.06266793488673       92.51382685706500      118.16947592774977
H          108.20008394108477       91.91197695395400      119.81538522516165
H          109.43689425061615       93.96625757597114      119.65484760903526
H          108.04398022396397       94.21728659063982      120.69972491291432
H          108.46869686008966       96.12724788386066      119.21418648155709
H          106.86393761303513       95.44802359754588      118.98035337257619
H          107.88444628176363       96.07248657558758      116.85681352977461
H          107.56790418658099       94.34329609945136      116.91102453924532
H          109.95056332508152       93.88468186379019      117.33502922131524
H          110.28761976473317       95.60958015156393      117.46869073757956
H          109.68194898715463       95.96115632624645      115.12416874798750
H          109.16856716068891       94.28367489280441      114.95993668938654
H          111.47072462448936       93.49313882433016      115.30499087233804
H          112.01876083523371       95.13234834814551      115.63656137073762
H          111.38099157926344       95.82769126018989      113.34692882017141
H          110.79803910841291       94.20060664530317      113.00462638058588
H          113.07239053747543       93.29068850142770      113.26303681160371
H          113.67915018475361       94.87436076789383      113.74172234063658
H          113.05527097343432       95.80315858670632      111.53523491853635
H          112.42952575745369       94.23092482960509      111.03500427116029
H          114.67673836116728       93.23419204752717      111.29686581945192
H          115.32989774831259       94.79262778714440      111.79639241916038
H          113.95204781752896       94.35901538695542      109.11820796806502
H          115.68418550075677       94.12274454803857      109.34305807448933
H          115.96468760492854       96.45294549004031      110.04718769574804
H          114.23390226371171       96.74496024497058      109.90151045538148
H          115.98536472505394       95.88269254382236      107.56326413379979
H          115.64607951859283       97.56234556000508      107.97401110732717
H          113.18029753239969       97.05754132413503      107.77050176831153
H          113.59934385503411       95.46648905296034      107.13593342507443
H          114.84758605632841       96.54370812462520      105.26832180752487
H          114.45393944161393       98.12883785721615      105.92662285945457
H          111.99630101506617       97.53240667522184      105.70066874815087
H          112.47944948634263       96.07147393220552      104.84242205316798
H          113.62174517152872       97.48257447021349      103.12039511492470
H          113.15392909996338       98.92773777825984      104.00927690187092
H          110.73175480644835       98.23177571119527      103.72801963923770
H          111.27431686507984       96.94334716692080      102.65546003701479
H          112.34211080225433       98.63416876160963      101.17690882489985
H          111.81416383742719       99.91864797000231      102.25868394204863
H          109.95852781775272       98.06297046814753      100.71382316949078
H          110.40710073751744       99.70003206303402      100.24203808522071
H          109.50585735804353      100.30941095210470      102.67966351041420
H          108.58365529487490       98.82187149143833      102.47735096779273
H          108.57587420536602      101.23055434405872      100.60677325044944
H          107.32042821719017      100.81270371677969      101.77477759938097
H          106.83923304750911       98.73090676499440      100.53294059652235
H          108.13299298346996       99.10035398518586       99.39077436855034
H          106.05795504649167       99.71201369942085       98.35491076077325
H          106.92975946595010      101.19725949112259       98.73692386323349
H          105.51788906446990      101.55029953264817      100.72075450982760
H          104.72090566734055       99.99716859935329      100.45326892917109
H          103.75031626449267      100.83388194497492       98.34768847181861
H          104.67797271584708      102.32512293076249       98.49353529102527
H          102.50710130289330      102.89997574326338       99.21403567029529
H          103.44304220291431      102.73813596040918      100.69776465533913
H          102.47309599477300      100.38563005586929      100.93196275928636
H          101.50172963440896      100.71988190971972       99.49904285357742
H          100.02935660487043      101.22835623563633      101.26810870698738
H          100.65130308304218      102.80795581013184      100.80304973648850
H          102.38852315653584      102.54965051413460      102.66712037792081
H          101.53095379842702      101.09355153192371      103.16485295216286
H           99.44453625931823      102.48008758785041      103.44192870113584
H          100.38044691387734      103.91590710683664      103.02801287105918
H          101.91124509651576      103.37481745637548      104.99010172189335
H          100.77791605379068      102.10259537267954      105.44418416905556
H           98.96082328635715      103.81172365706131      105.60718467394415
H          100.11698234276302      105.07053315849649      105.18357076292816
H          101.46709547123069      104.43890382568995      107.22448376152484
H          100.18879712522330      103.30809756414442      107.67164271589907
H           98.56108636433872      105.17653865314728      107.78327329594310
H           99.81357832046695      106.31393561446124      107.29537094317584
H          101.12641471071761      105.70946150758220      109.34519492108407
H           99.81769039999621      104.63714831432281      109.84286980399663
H           98.26219138161625      106.58820454227833      109.92466297684835
H           99.57829776343357      107.65058493134681      109.43232270164468
H          100.86366342582413      106.96649123848103      111.47471238204092
H           99.51092602571640      105.94967840766688      111.96514059381722
H           98.04968824057448      108.00114084053749      112.03806870418398
H           99.46245787536053      108.98849809595484      111.67355582621275
H          100.58360080920917      108.09779497111839      113.71587192016680
H           99.13768857223251      107.15068035180782      114.08561117721308
H           97.84450818061633      109.34957990007193      114.15126129770914
H           99.39201447720612      110.18470376538041      114.03287594255271
H           98.53391364833037      108.27257819804274      116.25522893515158
H           98.60512805610610      110.02972629279323      116.36253264538445
H          101.09134265421821      109.89721300514999      115.92263750364567
H          100.95337960441648      108.14242655293668      115.93321274290149
H          101.70456810718065      108.62531396105069      118.09703531489083
H           99.97902872092787      108.33220135909903      118.28381726429393
H          100.42377064512564      110.24209064461715      119.61309299403445
H           99.68152744941219      110.89332339205953      118.15890597879854
H          102.02481447066855      111.34704978563539      117.27222025721389
H          102.65246576884059      110.86171834848147      118.84549866429276
H          101.35239323283041      112.67173762999973      119.93372991790714
H          100.61019917210754      113.07877564400759      118.39161740217887
H          102.91860913011050      113.58071725668037      117.48014884835796
H          103.55700074145076      113.38335391383441      119.10878471011547
H          102.09263915603620      115.22423448742119      119.91344236620502
H          101.36856427731684      115.35775870605913      118.31382665673779
H          103.62800356467942      115.91606824339632      117.36913888544497
H          104.28771889654939      115.91154692938163      119.00129706985099
H          102.69050848325730      117.72353510087143      119.63655132245138
H          102.04070476516225      117.71963799635748      117.99778836343765
H          104.37821940096504      118.22945781210987      117.15026185424672
H          104.88548333722085      118.44615718062427      118.82056301188160
H          102.71128312016444      120.04862595347934      117.39507094588184
H          104.36916709315072      120.58395135557899      117.66299227606258
H          103.97474551546037      120.44796749582603      120.14937475996246
H          102.91713875913928      121.60408589834623      119.34144059389924
H          102.28977865820775      120.03367184998088      119.83219383758460
H          118.45122556471678      131.11498267403226      111.12831794451175
H          116.95475716211728      130.27832811268817      110.71596424963326
H          117.12976970715992      131.04401653333107      112.29563113314262
C           94.84986745921240      113.85666390479626      105.49708163274234
C           95.58418295077152      112.60050779575154      105.94933858969974
C           96.97612117851918      112.91691734332201      106.48969025584040
C           97.71518676965214      111.66083228454345      106.94327060281050
C           99.12472707866253      111.96913283005381      107.43842201465203
C           99.81780715758025      110.74647723132243      108.03312684134576
C          101.19286286216273      111.09394419431223      108.59733371296494
C          101.87691909215668      109.88871256600343      109.23544449688384
C          103.18872604684339      110.24058542974240      109.93493085261615
C          104.30868552262841      110.63658830434549      108.97728858099531
C          105.63399534701433      110.82805037933861      109.70783686062472
C          106.79915076020401      111.09226405195059      108.75773084706881
C          108.11773441862297      111.20188942130051      109.51559987479556
C          109.34636019256631      111.22308053283388      108.60877310040783
C          110.62397206188071      111.16413023889589      109.44248868339633
C          111.90701901491624      110.99735902890308      108.63223666200101
C          112.35607301782120      112.26073263534444      107.90178988943001
C          113.75504489680463      112.07629788283020      107.31973032470621
C          114.28820536531681      113.31247142213932      106.60332563300157
C          115.74153368989461      113.12116655482522      106.17358920963211
C          116.28038194962734      114.33363652680649      105.42261313594634