      -----------------------------------------------------------      
     |                   =====================                   |     
     |                           x T B                           |     
     |                   =====================                   |     
     |                         S. Grimme                         |     
     |          Mulliken Center for Theoretical Chemistry        |     
     |                    University of Bonn                     |     
      -----------------------------------------------------------      

   * xtb version 6.6.1 (8d0f1dd) compiled by 'stahn@M-Bot' on 2023-08-01

   xtb is free software: you can redistribute it and/or modify it under
   the terms of the GNU Lesser General Public License as published by
   the Free Software Foundation, either version 3 of the License, or
   (at your option) any later version.
   
   xtb is distributed in the hope that it will be useful,
   but WITHOUT ANY WARRANTY; without even the implied warranty of
   MERCHANTABILITY or FITNESS FOR A PARTICULAR PURPOSE.  See the
   GNU Lesser General Public License for more details.
   
   Cite this work as:
   * C. Bannwarth, E. Caldeweyher, S. Ehlert, A. Hansen, P. Pracht,
     J. Seibert, S. Spicher, S. Grimme, WIREs Comput. Mol. Sci., 2020, 11,
     e01493. DOI: 10.1002/wcms.1493
   
   for GFN2-xTB:
   * C. Bannwarth, S. Ehlert and S. Grimme., J. Chem. Theory Comput., 2019,
     15, 1652-1671. DOI: 10.1021/acs.jctc.8b01176
   for GFN1-xTB:
   * S. Grimme, C. Bannwarth, P. Shushkov, J. Chem. Theory Comput., 2017,
     13, 1989-2009. DOI: 10.1021/acs.jctc.7b00118
   for GFN0-xTB:
   * P. Pracht, E. Caldeweyher, S. Ehlert, S. Grimme, ChemRxiv, 2019, preprint.
     DOI: 10.26434/chemrxiv.8326202.v1
   for GFN-FF:
   * S. Spicher and S. Grimme, Angew. Chem. Int. Ed., 2020, 59, 15665-15673.
     DOI: 10.1002/anie.202004239
   
   for ALPB and GBSA implicit solvation:
   * S. Ehlert, M. Stahn, S. Spicher, S. Grimme, J. Chem. Theory Comput.,
     2021, 17, 4250-4261. DOI: 10.1021/acs.jctc.1c00471
   
   for DFT-D4:
   * E. Caldeweyher, C. Bannwarth and S. Grimme, J. Chem. Phys., 2017,
     147, 034112. DOI: 10.1063/1.4993215
   * E. Caldeweyher, S. Ehlert, A. Hansen, H. Neugebauer, S. Spicher,
     C. Bannwarth and S. Grimme, J. Chem. Phys., 2019, 150, 154122.
     DOI: 10.1063/1.5090222
   * E. Caldeweyher, J.-M. Mewes, S. Ehlert and S. Grimme, Phys. Chem. Chem. Phys.
     2020, 22, 8499-8512. DOI: 10.1039/D0CP00502A
   
   for sTDA-xTB:
   * S. Grimme and C. Bannwarth, J. Chem. Phys., 2016, 145, 054103.
     DOI: 10.1063/1.4959605
   
   in the mass-spec context:
   * V. Asgeirsson, C. Bauer and S. Grimme, Chem. Sci., 2017, 8, 4879.
     DOI: 10.1039/c7sc00601b
   * J. Koopman and S. Grimme, ACS Omega 2019, 4, 12, 15120-15133.
     DOI: 10.1021/acsomega.9b02011
   
   for metadynamics refer to:
   * S. Grimme, J. Chem. Theory Comput., 2019, 155, 2847-2862
     DOI: 10.1021/acs.jctc.9b00143
   
   for SPH calculations refer to:
   * S. Spicher and S. Grimme, J. Chem. Theory Comput., 2021, 17, 1701-1714
     DOI: 10.1021/acs.jctc.0c01306
   
   with help from (in alphabetical order)
   P. Atkinson, C. Bannwarth, F. Bohle, G. Brandenburg, E. Caldeweyher
   M. Checinski, S. Dohm, S. Ehlert, S. Ehrlich, I. Gerasimov, C. Hölzer
   A. Katbashev, J. Koopman, C. Lavigne, S. Lehtola, F. März, M. Müller,
   F. Musil, H. Neugebauer, J. Pisarek, C. Plett, P. Pracht, F. Pultar,
   J. Seibert, P. Shushkov, S. Spicher, M. Stahn, M. Steiner, T. Strunk,
   J. Stückrath, T. Rose, and J. Unsleber
   
 * started run on 2024/06/17 at 15:17:35.959     

           -------------------------------------------------
          |                Calculation Setup                |
           -------------------------------------------------

          program call               : /home/abt-grimme/AK-bin/xtb input.xyz --input input.inp --opt --gbsa water
          hostname                   : boar090.thch.uni-bonn.de
          coordinate file            : input.xyz
          omp threads                :                     8

   ID    Z sym.   atoms
    1    6 C      1-120, 363-482, 725-844, 1087-1206, 1449-1568, 1811-1930,
                  2173-2292, 2535-2654, 2897-3016
    2    1 H      121-362, 483-724, 845-1086, 1207-1448, 1569-1810,
                  1931-2172, 2293-2534, 2655-2896, 3017-3258

molecular fragmentation (1/2 indicates fragments):
111111111111111111111111111111111111111111111111111111111111111111111111
111111111111111111111111111111111111111111111111111111111111111111111111
111111111111111111111111111111111111111111111111111111111111111111111111
111111111111111111111111111111111111111111111111111111111111111111111111
111111111111111111111111111111111111111111111111111111111111111111111111
112222222222222222222222222222222222222222222222222222222222222222222222
222222222222222222222222222222222222222222222222222222222222222222222222
222222222222222222222222222222222222222222222222222222222222222222222222
222222222222222222222222222222222222222222222222222222222222222222222222
222222222222222222222222222222222222222222222222222222222222222222222222
222222222222222222222222222222222222222222222222222222222222222222222222
222222222222222222222222222222222222222222222222222222222222222222222222
222222222222222222222222222222222222222222222222222222222222222222222222
222222222222222222222222222222222222222222222222222222222222222222222222
222222222222222222222222222222222222222222222222222222222222222222222222
222222222222222222222222222222222222222222222222222222222222222222222222
222222222222222222222222222222222222222222222222222222222222222222222222
222222222222222222222222222222222222222222222222222222222222222222222222
222222222222222222222222222222222222222222222222222222222222222222222222
222222222222222222222222222222222222222222222222222222222222222222222222
222222222222222222222222222222222222222222222222222222222222222222222222
222222222222222222222222222222222222222222222222222222222222222222222222
222222222222222222222222222222222222222222222222222222222222222222222222
222222222222222222222222222222222222222222222222222222222222222222222222
222222222222222222222222222222222222222222222222222222222222222222222222
222222222222222222222222222222222222222222222222222222222222222222222222
222222222222222222222222222222222222222222222222222222222222222222222222
222222222222222222222222222222222222222222222222222222222222222222222222
222222222222222222222222222222222222222222222222222222222222222222222222
222222222222222222222222222222222222222222222222222222222222222222222222
222222222222222222222222222222222222222222222222222222222222222222222222
222222222222222222222222222222222222222222222222222222222222222222222222
222222222222222222222222222222222222222222222222222222222222222222222222
222222222222222222222222222222222222222222222222222222222222222222222222
222222222222222222222222222222222222222222222222222222222222222222222222
222222222222222222222222222222222222222222222222222222222222222222222222
222222222222222222222222222222222222222222222222222222222222222222222222
222222222222222222222222222222222222222222222222222222222222222222222222
222222222222222222222222222222222222222222222222222222222222222222222222
222222222222222222222222222222222222222222222222222222222222222222222222
222222222222222222222222222222222222222222222222222222222222222222222222
222222222222222222222222222222222222222222222222222222222222222222222222
222222222222222222222222222222222222222222222222222222222222222222222222
222222222222222222222222222222222222222222222222222222222222222222222222
222222222222222222222222222222222222222222222222222222222222222222222222
222222222222222222
# atoms in fragment 1/2:   362  2896
 fragment masses (1/2) :     1685.21    13481.68
CMA distance (Bohr)    :  11.817
constraining FC (au)   :  0.0500

           -------------------------------------------------
          |                 G F N 2 - x T B                 |
           -------------------------------------------------

        Reference                      10.1021/acs.jctc.8b01176
      * Hamiltonian:
        H0-scaling (s, p, d)           1.850000    2.230000    2.230000
        zeta-weighting                 0.500000
      * Dispersion:
        s8                             2.700000
        a1                             0.520000
        a2                             5.000000
        s9                             5.000000
      * Repulsion:
        kExp                           1.500000    1.000000
        rExp                           1.000000
      * Coulomb:
        alpha                          2.000000
        third order                    shell-resolved
        anisotropic                    true
        a3                             3.000000
        a5                             4.000000
        cn-shift                       1.200000
        cn-exp                         4.000000
        max-rad                        5.000000

      * Solvation model:               GBSA
        Solvent                        water
        Parameter file                 internal GFN2-xTB/GBSA
        Dielectric constant                8.0200E+01
        Reference state                gsolv [1 M gas/solution]
        Free energy shift                  1.8574E-03 Eh       1.1656E+00 kcal/mol
        Temperature                        2.9815E+02 K
        Density                            1.0000E+00 kg/L
        Solvent mass                       1.8000E+01 g/mol
        Interaction kernel             Still
        Born radius scaling (c1)           1.5524E+00
        Born radii integrator          GBOBC
        Born offset                        2.4628E-02 a0       4.6540E-02 AA
        H-bond correction              true
        Ion screening                  false
        Surface tension                    1.0000E-05 Eh       1.5569E+01 dyn/cm
        Grid points                               230 per atom
q/qsh data taken from xtbrestart
CAMM data taken from xtbrestart

          ...................................................
          :                      SETUP                      :
          :.................................................:
          :  # basis functions                6498          :
          :  # atomic orbitals                6498          :
          :  # shells                         4338          :
          :  # electrons                      6498          :
          :  max. iterations                   250          :
          :  Hamiltonian                  GFN2-xTB          :
          :  restarted?                       true          :
          :  GBSA solvation                   true          :
          :  PC potential                    false          :
          :  electronic temp.          300.0000000     K    :
          :  accuracy                    1.0000000          :
          :  -> integral cutoff          0.2500000E+02      :
          :  -> integral neglect         0.1000000E-07      :
          :  -> SCF convergence          0.1000000E-05 Eh   :
          :  -> wf. convergence          0.1000000E-03 e    :
          :  Broyden damping             0.4000000          :
          ...................................................

 iter      E             dE          RMSdq      gap      omega  full diag
   1  -3472.2703222 -0.347227E+04  0.106E-04   10.60       0.0  T
   2  -3472.2703222 -0.766386E-08  0.822E-05   10.60      21.3  T
   3  -3472.2703222 -0.107739E-07  0.423E-05   10.60      41.4  T

   *** convergence criteria satisfied after 3 iterations ***

         #    Occupation            Energy/Eh            Energy/eV
      -------------------------------------------------------------
         1        2.0000           -0.6160886             -16.7646
       ...           ...                  ...                  ...
      3243        2.0000           -0.3858172             -10.4986
      3244        2.0000           -0.3855735             -10.4920
      3245        2.0000           -0.3849875             -10.4760
      3246        2.0000           -0.3842331             -10.4555
      3247        2.0000           -0.3830865             -10.4243
      3248        2.0000           -0.3815515             -10.3825
      3249        2.0000           -0.3790920             -10.3156 (HOMO)
      3250                          0.0104065               0.2832 (LUMO)
      3251                          0.0141733               0.3857
      3252                          0.0177156               0.4821
      3253                          0.0178966               0.4870
      3254                          0.0194038               0.5280
       ...                                ...                  ...
      6498                          0.3949373              10.7468
      -------------------------------------------------------------
                  HL-Gap            0.3894984 Eh           10.5988 eV
             Fermi-level           -0.1843428 Eh           -5.0162 eV

 SCC (total)                   0 d,  0 h,  6 min, 39.681 sec
 SCC setup                      ...        0 min,  1.719 sec (  0.430%)
 Dispersion                     ...        0 min,  4.375 sec (  1.095%)
 classical contributions        ...        0 min,  0.131 sec (  0.033%)
 integral evaluation            ...        0 min,  5.864 sec (  1.467%)
 iterations                     ...        2 min, 47.504 sec ( 41.909%)
 molecular gradient             ...        3 min, 32.164 sec ( 53.083%)
 printout                       ...        0 min,  7.923 sec (  1.982%)

         :::::::::::::::::::::::::::::::::::::::::::::::::::::
         ::                     SUMMARY                     ::
         :::::::::::::::::::::::::::::::::::::::::::::::::::::
         :: total energy           -3426.825054531676 Eh    ::
         :: total w/o Gsasa/hb     -3426.731059185738 Eh    ::
         :: gradient norm              0.629828425402 Eh/a0 ::
         :: HOMO-LUMO gap             10.598792287052 eV    ::
         ::.................................................::
         :: SCC energy             -3472.270322186873 Eh    ::
         :: -> isotropic ES            0.282316499880 Eh    ::
         :: -> anisotropic ES          1.283652131025 Eh    ::
         :: -> anisotropic XC          2.132725851719 Eh    ::
         :: -> dispersion             -4.206638554206 Eh    ::
         :: -> Gsolv                  -0.031322662870 Eh    ::
         ::    -> Gelec                0.062672683068 Eh    ::
         ::    -> Gsasa               -0.091660832851 Eh    ::
         ::    -> Ghb                 -0.004191956214 Eh    ::
         ::    -> Gshift               0.001857443127 Eh    ::
         :: repulsion energy          44.758036501206 Eh    ::
         :: add. restraining           0.000000000000 Eh    ::
         :: total charge              -0.000000000011 e     ::
         :::::::::::::::::::::::::::::::::::::::::::::::::::::

      ----------------------------------------------------------- 
     |              Fast Inertial Relaxation Engine              |
      ----------------------------------------------------------- 

          ...................................................
          :                      SETUP                      :
          :.................................................:
          :   energy convergence        0.5000000E-05 Eh    :
          :   grad. convergence         0.1000000E-02 Eh/a0 :
          :   optimization log               true           :
          :   writing optlog all                1     steps :
          :   Hessian reset                    20     steps :
          :   time step scaling                 5     steps :
          :   maximium step len.        1.0000000     a0    :
          :   initial time step         0.2500000     fs    :
          :   maximum time step         1.2500000     fs    :
          :   power reset thr           0.0000000     au    :
          :   alpha parameter           0.1000000           :
          :   BFGS update                   false           :
          :   preconditioning               false           :
          ...................................................

........................................................................
.............................. CYCLE    1 ..............................
........................................................................

 iter      E             dE          RMSdq      gap      omega  full diag
   1  -3472.5030091 -0.347250E+04  0.747E-03   10.63       0.0  T
   2  -3472.5030529 -0.437627E-04  0.392E-03   10.63       1.0  T
   3  -3472.5030533 -0.399914E-06  0.181E-03   10.63       1.0  T
   4  -3472.5030534 -0.139682E-06  0.217E-04   10.63       8.1  T
   5  -3472.5030534 -0.330679E-07  0.138E-04   10.63      12.7  T
     SCC iter.                  ...        4 min, 30.938 sec
     gradient                   ...        3 min, 33.063 sec
 * total energy  : -3426.8701784 Eh     change    :  -0.4512383E-01 Eh
   gradient norm :     0.5958262 Eh/a0  converged?    E=F G=F D=F
   time step     :     0.2500000 fs     power     :   0.2328399E-05
   step length   :     0.0738145 a0     speed     :   0.7141954E-02

........................................................................
.............................. CYCLE    2 ..............................
........................................................................

 iter      E             dE          RMSdq      gap      omega  full diag
   1  -3472.8457751 -0.347285E+04  0.109E-02   10.68       0.0  T
   2  -3472.8458685 -0.934749E-04  0.573E-03   10.68       1.0  T
   3  -3472.8458695 -0.919603E-06  0.265E-03   10.68       1.0  T
   4  -3472.8458698 -0.340523E-06  0.335E-04   10.68       5.2  T
   5  -3472.8458699 -0.781984E-07  0.219E-04   10.68       8.0  T
     SCC iter.                  ...        4 min, 43.586 sec
     gradient                   ...        3 min, 31.952 sec
 * total energy  : -3426.9321780 Eh     change    :  -0.6199962E-01 Eh
   gradient norm :     0.5472494 Eh/a0  converged?    E=F G=F D=F
   time step     :     0.2500000 fs     power     :   0.3146486E-05
   step length   :     0.1086628 a0     speed     :   0.1051371E-01

........................................................................
.............................. CYCLE    3 ..............................
........................................................................

 iter      E             dE          RMSdq      gap      omega  full diag
   1  -3473.2895474 -0.347329E+04  0.140E-02   10.71       0.0  T
   2  -3473.2896993 -0.151838E-03  0.735E-03   10.71       1.0  T
   3  -3473.2897009 -0.158525E-05  0.337E-03   10.71       1.0  T
   4  -3473.2897014 -0.581705E-06  0.440E-04   10.71       4.0  T
   5  -3473.2897016 -0.130550E-06  0.289E-04   10.71       6.1  T
     SCC iter.                  ...        4 min, 33.331 sec
     gradient                   ...        3 min, 33.615 sec
 * total energy  : -3427.0045887 Eh     change    :  -0.7241070E-01 Eh
   gradient norm :     0.4866825 Eh/a0  converged?    E=F G=F D=F
   time step     :     0.2500000 fs     power     :   0.3604019E-05
   step length   :     0.1406380 a0     speed     :   0.1360749E-01

........................................................................
.............................. CYCLE    4 ..............................
........................................................................

 iter      E             dE          RMSdq      gap      omega  full diag
   1  -3473.8228187 -0.347382E+04  0.166E-02   10.73       0.0  T
   2  -3473.8230277 -0.208966E-03  0.869E-03   10.73       1.0  T
   3  -3473.8230301 -0.235214E-05  0.395E-03   10.73       1.0  T
   4  -3473.8230309 -0.834131E-06  0.532E-04   10.72       3.3  T
   5  -3473.8230311 -0.181198E-06  0.348E-04   10.72       5.0  T
     SCC iter.                  ...        4 min, 48.405 sec
     gradient                   ...        3 min, 34.748 sec
 * total energy  : -3427.0801558 Eh     change    :  -0.7556712E-01 Eh
   gradient norm :     0.4185890 Eh/a0  converged?    E=F G=F D=F
   time step     :     0.2500000 fs     power     :   0.3672281E-05
   step length   :     0.1689029 a0     speed     :   0.1634226E-01

........................................................................
.............................. CYCLE    5 ..............................
........................................................................

 iter      E             dE          RMSdq      gap      omega  full diag
   1  -3474.4317503 -0.347443E+04  0.185E-02   10.74       0.0  T
   2  -3474.4320045 -0.254256E-03  0.972E-03   10.73       1.0  T
   3  -3474.4320077 -0.317073E-05  0.435E-03   10.73       1.0  T
   4  -3474.4320088 -0.106484E-05  0.610E-04   10.73       2.9  T
   5  -3474.4320090 -0.219954E-06  0.397E-04   10.73       4.4  T
   6  -3474.4320091 -0.129104E-06  0.168E-04   10.73      10.4  T
     SCC iter.                  ...        5 min, 25.283 sec
     gradient                   ...        3 min, 30.876 sec
 * total energy  : -3427.1518726 Eh     change    :  -0.7171679E-01 Eh
   gradient norm :     0.3497529 Eh/a0  converged?    E=F G=F D=F
   time step     :     0.2500000 fs     power     :   0.3381454E-05
   step length   :     0.1927332 a0     speed     :   0.1864798E-01

........................................................................
.............................. CYCLE    6 ..............................
........................................................................

 iter      E             dE          RMSdq      gap      omega  full diag
   1  -3475.1731026 -0.347517E+04  0.220E-02   10.74       0.0  T
   2  -3475.1734424 -0.339823E-03  0.115E-02   10.74       1.0  T
   3  -3475.1734472 -0.483963E-05  0.502E-03   10.74       1.0  T
   4  -3475.1734487 -0.145306E-05  0.734E-04   10.74       2.4  T
   5  -3475.1734490 -0.279218E-06  0.465E-04   10.74       3.8  T
   6  -3475.1734491 -0.147506E-06  0.180E-04   10.73       9.7  T
     SCC iter.                  ...        5 min, 30.148 sec
     gradient                   ...        3 min, 32.108 sec
 * total energy  : -3427.2199160 Eh     change    :  -0.6804342E-01 Eh
   gradient norm :     0.2838198 Eh/a0  converged?    E=F G=F D=F
   time step     :     0.2750000 fs     power     :   0.2740373E-05
   step length   :     0.2347615 a0     speed     :   0.2064948E-01

........................................................................
.............................. CYCLE    7 ..............................
........................................................................

 iter      E             dE          RMSdq      gap      omega  full diag
   1  -3476.0411786 -0.347604E+04  0.251E-02   10.74       0.0  T
   2  -3476.0415768 -0.398196E-03  0.132E-02   10.74       1.0  T
   3  -3476.0415839 -0.713693E-05  0.544E-03   10.74       1.0  T
   4  -3476.0415858 -0.189025E-05  0.867E-04   10.74       2.0  T
   5  -3476.0415861 -0.316327E-06  0.537E-04   10.74       3.3  T
   6  -3476.0415863 -0.166413E-06  0.188E-04   10.74       9.3  T
     SCC iter.                  ...        5 min, 26.648 sec
     gradient                   ...        3 min, 33.478 sec
 * total energy  : -3427.2762947 Eh     change    :  -0.5637871E-01 Eh
   gradient norm :     0.2409719 Eh/a0  converged?    E=F G=F D=F
   time step     :     0.3025000 fs     power     :   0.1847876E-05
   step length   :     0.2764530 a0     speed     :   0.2210604E-01

........................................................................
.............................. CYCLE    8 ..............................
........................................................................

 iter      E             dE          RMSdq      gap      omega  full diag
   1  -3476.9994032 -0.347700E+04  0.274E-02   10.74       0.0  T
   2  -3476.9997833 -0.380115E-03  0.146E-02   10.74       1.0  T
   3  -3476.9997931 -0.978038E-05  0.535E-03   10.74       1.0  T
   4  -3476.9997952 -0.212030E-05  0.976E-04   10.74       1.8  T
   5  -3476.9997955 -0.285108E-06  0.584E-04   10.74       3.0  T
   6  -3476.9997956 -0.155430E-06  0.174E-04   10.74      10.1  T
     SCC iter.                  ...        5 min, 28.882 sec
     gradient                   ...        3 min, 30.661 sec
 * total energy  : -3427.3157478 Eh     change    :  -0.3945309E-01 Eh
   gradient norm :     0.2362120 Eh/a0  converged?    E=F G=F D=F
   time step     :     0.3327500 fs     power     :   0.9454827E-06
   step length   :     0.3118642 a0     speed     :   0.2267058E-01

........................................................................
.............................. CYCLE    9 ..............................
........................................................................

 iter      E             dE          RMSdq      gap      omega  full diag
   1  -3477.9718488 -0.347797E+04  0.292E-02   10.74       0.0  T
   2  -3477.9721187 -0.269924E-03  0.160E-02   10.74       1.0  T
   3  -3477.9721308 -0.120714E-04  0.446E-03   10.74       1.0  T
   4  -3477.9721327 -0.188384E-05  0.103E-03   10.74       1.7  T
   5  -3477.9721329 -0.179782E-06  0.578E-04   10.74       3.0  T
   6  -3477.9721330 -0.113445E-06  0.133E-04   10.74      13.1  T
     SCC iter.                  ...        5 min, 35.860 sec
     gradient                   ...        3 min, 31.469 sec
 * total energy  : -3427.3390231 Eh     change    :  -0.2327527E-01 Eh
   gradient norm :     0.2502803 Eh/a0  converged?    E=F G=F D=F
   time step     :     0.3660250 fs     power     :   0.2892275E-06
   step length   :     0.3353668 a0     speed     :   0.2216279E-01

........................................................................
.............................. CYCLE   10 ..............................
........................................................................

 iter      E             dE          RMSdq      gap      omega  full diag
   1  -3478.8655271 -0.347887E+04  0.315E-02   10.74       0.0  T
   2  -3478.8656548 -0.127759E-03  0.179E-02   10.74       1.0  T
   3  -3478.8656680 -0.132179E-04  0.285E-03   10.74       1.0  T
   4  -3478.8656694 -0.138166E-05  0.104E-03   10.74       1.7  T
   5  -3478.8656695 -0.602286E-07  0.509E-04   10.74       3.4  T
   6  -3478.8656695 -0.683553E-07  0.756E-05   10.74      23.2  T
     SCC iter.                  ...        5 min, 30.191 sec
     gradient                   ...        3 min, 30.698 sec
 * total energy  : -3427.3508093 Eh     change    :  -0.1178623E-01 Eh
   gradient norm :     0.2495928 Eh/a0  converged?    E=F G=F D=F
   time step     :     0.4026275 fs     power     :  -0.9359641E-07
   step length   :     0.3482194 a0     speed     :   0.2092014E-01

........................................................................
.............................. CYCLE   11 ..............................
........................................................................
 * reset velocities

 iter      E             dE          RMSdq      gap      omega  full diag
   1  -3478.8486461 -0.347885E+04  0.117E-03   10.73       0.0  T
   2  -3478.8486469 -0.771266E-06  0.671E-04   10.73       2.6  T
   3  -3478.8486469 -0.401724E-08  0.263E-04   10.73       6.7  T
     SCC iter.                  ...        2 min, 47.813 sec
     gradient                   ...        3 min, 32.529 sec
 * total energy  : -3427.3531429 Eh     change    :  -0.2333611E-02 Eh
   gradient norm :     0.2425420 Eh/a0  converged?    E=F G=F D=F
   time step     :     0.2013138 fs     power     :   0.1516178E-06
   step length   :     0.0094839 a0     speed     :   0.1139542E-02

........................................................................
.............................. CYCLE   12 ..............................
........................................................................

 iter      E             dE          RMSdq      gap      omega  full diag
   1  -3478.8150352 -0.347882E+04  0.231E-03   10.73       0.0  T
   2  -3478.8150382 -0.298325E-05  0.132E-03   10.73       1.3  T
   3  -3478.8150382 -0.166051E-07  0.518E-04   10.73       3.4  T
   4  -3478.8150382 -0.822411E-08  0.429E-05   10.73      40.8  T
     SCC iter.                  ...        3 min, 34.774 sec
     gradient                   ...        3 min, 31.528 sec
 * total energy  : -3427.3575491 Eh     change    :  -0.4406217E-02 Eh
   gradient norm :     0.2287231 Eh/a0  converged?    E=F G=F D=F
   time step     :     0.2013138 fs     power     :   0.2818932E-06
   step length   :     0.0186999 a0     speed     :   0.2246884E-02

........................................................................
.............................. CYCLE   13 ..............................
........................................................................

 iter      E             dE          RMSdq      gap      omega  full diag
   1  -3478.7657033 -0.347877E+04  0.338E-03   10.73       0.0  T
   2  -3478.7657098 -0.645595E-05  0.193E-03   10.73       1.0  T
   3  -3478.7657098 -0.415066E-07  0.764E-04   10.73       2.3  T
   4  -3478.7657098 -0.221871E-07  0.719E-05   10.73      24.4  T
     SCC iter.                  ...        3 min, 37.688 sec
     gradient                   ...        3 min, 30.073 sec
 * total energy  : -3427.3635370 Eh     change    :  -0.5987905E-02 Eh
   gradient norm :     0.2085846 Eh/a0  converged?    E=F G=F D=F
   time step     :     0.2013138 fs     power     :   0.3764206E-06
   step length   :     0.0273901 a0     speed     :   0.3291060E-02

........................................................................
.............................. CYCLE   14 ..............................
........................................................................

 iter      E             dE          RMSdq      gap      omega  full diag
   1  -3478.7019483 -0.347870E+04  0.434E-03   10.73       0.0  T
   2  -3478.7019591 -0.107404E-04  0.249E-03   10.73       1.0  T
   3  -3478.7019592 -0.725618E-07  0.986E-04   10.73       1.8  T
   4  -3478.7019592 -0.395735E-07  0.964E-05   10.73      18.2  T
     SCC iter.                  ...        3 min, 45.922 sec
     gradient                   ...        3 min, 31.214 sec
 * total energy  : -3427.3704437 Eh     change    :  -0.6906689E-02 Eh
   gradient norm :     0.1828522 Eh/a0  converged?    E=F G=F D=F
   time step     :     0.2013138 fs     power     :   0.4250222E-06
   step length   :     0.0353127 a0     speed     :   0.4242995E-02

........................................................................
.............................. CYCLE   15 ..............................
........................................................................

 iter      E             dE          RMSdq      gap      omega  full diag
   1  -3478.6254977 -0.347863E+04  0.518E-03   10.73       0.0  T
   2  -3478.6255131 -0.153682E-04  0.296E-03   10.73       1.0  T
   3  -3478.6255132 -0.105917E-06  0.118E-03   10.73       1.5  T
   4  -3478.6255132 -0.583127E-07  0.117E-04   10.73      14.9  T
   5  -3478.6255133 -0.159016E-07  0.806E-05   10.73      21.7  T
     SCC iter.                  ...        4 min, 37.231 sec
     gradient                   ...        3 min, 31.347 sec
 * total energy  : -3427.3775129 Eh     change    :  -0.7069178E-02 Eh
   gradient norm :     0.1525089 Eh/a0  converged?    E=F G=F D=F
   time step     :     0.2013138 fs     power     :   0.4229384E-06
   step length   :     0.0422497 a0     speed     :   0.5076516E-02

........................................................................
.............................. CYCLE   16 ..............................
........................................................................

 iter      E             dE          RMSdq      gap      omega  full diag
   1  -3478.5385264 -0.347854E+04  0.585E-03   10.73       0.0  T
   2  -3478.5385462 -0.197780E-04  0.335E-03   10.73       1.0  T
   3  -3478.5385463 -0.125224E-06  0.134E-03   10.73       1.3  T
   4  -3478.5385464 -0.666673E-07  0.125E-04   10.73      14.0  T
   5  -3478.5385464 -0.185942E-07  0.835E-05   10.73      21.0  T
     SCC iter.                  ...        4 min, 33.582 sec
     gradient                   ...        3 min, 31.347 sec
 * total energy  : -3427.3839853 Eh     change    :  -0.6472454E-02 Eh
   gradient norm :     0.1189900 Eh/a0  converged?    E=F G=F D=F
   time step     :     0.2013138 fs     power     :   0.3716527E-06
   step length   :     0.0480115 a0     speed     :   0.5768817E-02

........................................................................
.............................. CYCLE   17 ..............................
........................................................................

 iter      E             dE          RMSdq      gap      omega  full diag
   1  -3478.4333271 -0.347843E+04  0.701E-03   10.73       0.0  T
   2  -3478.4333559 -0.287840E-04  0.402E-03   10.73       1.0  T
   3  -3478.4333561 -0.177130E-06  0.161E-03   10.73       1.1  T
   4  -3478.4333562 -0.934019E-07  0.148E-04   10.73      11.8  T
   5  -3478.4333562 -0.264749E-07  0.972E-05   10.73      18.0  T
     SCC iter.                  ...        4 min, 35.376 sec
     gradient                   ...        3 min, 31.768 sec
 * total energy  : -3427.3896469 Eh     change    :  -0.5661535E-02 Eh
   gradient norm :     0.0810405 Eh/a0  converged?    E=F G=F D=F
   time step     :     0.2214451 fs     power     :   0.2670952E-06
   step length   :     0.0581690 a0     speed     :   0.6353904E-02

........................................................................
.............................. CYCLE   18 ..............................
........................................................................

 iter      E             dE          RMSdq      gap      omega  full diag
   1  -3478.3115475 -0.347831E+04  0.804E-03   10.73       0.0  T
   2  -3478.3115860 -0.384423E-04  0.461E-03   10.73       1.0  T
   3  -3478.3115862 -0.234078E-06  0.187E-03   10.73       1.0  T
   4  -3478.3115863 -0.121735E-06  0.170E-04   10.73      10.3  T
   5  -3478.3115864 -0.351629E-07  0.110E-04   10.73      16.0  T
     SCC iter.                  ...        4 min, 37.008 sec
     gradient                   ...        3 min, 31.852 sec
 * total energy  : -3427.3933542 Eh     change    :  -0.3707352E-02 Eh
   gradient norm :     0.0480777 Eh/a0  converged?    E=F G=F D=F
   time step     :     0.2435896 fs     power     :   0.1151001E-06
   step length   :     0.0679956 a0     speed     :   0.6752073E-02

........................................................................
.............................. CYCLE   19 ..............................
........................................................................

 iter      E             dE          RMSdq      gap      omega  full diag
   1  -3478.1828576 -0.347818E+04  0.842E-03   10.73       0.0  T
   2  -3478.1829007 -0.431296E-04  0.485E-03   10.73       1.0  T
   3  -3478.1829010 -0.264496E-06  0.198E-03   10.73       1.0  T
   4  -3478.1829011 -0.133156E-06  0.179E-04   10.73       9.8  T
   5  -3478.1829012 -0.395607E-07  0.112E-04   10.73      15.6  T
     SCC iter.                  ...        4 min, 32.026 sec
     gradient                   ...        3 min, 30.955 sec
 * total energy  : -3427.3941852 Eh     change    :  -0.8309591E-03 Eh
   gradient norm :     0.0539991 Eh/a0  converged?    E=F G=F D=F
   time step     :     0.2679486 fs     power     :  -0.4695995E-07
   step length   :     0.0747306 a0     speed     :   0.6746241E-02

........................................................................
.............................. CYCLE   20 ..............................
........................................................................
 * reset velocities

 iter      E             dE          RMSdq      gap      omega  full diag
   1  -3478.1840648 -0.347818E+04  0.119E-04   10.73       0.0  T
   2  -3478.1840648 -0.563296E-08  0.768E-05   10.73      22.8  T
   3  -3478.1840648 -0.330056E-08  0.343E-05   10.73      51.2  T
     SCC iter.                  ...        2 min, 42.596 sec
     gradient                   ...        3 min, 29.903 sec
 * total energy  : -3427.3942341 Eh     change    :  -0.4892607E-04 Eh
   gradient norm :     0.0536400 Eh/a0  converged?    E=F G=F D=T
   time step     :     0.1339743 fs     power     :   0.4827829E-08
   step length   :     0.0009087 a0     speed     :   0.1640714E-03
 * RMSD in coord.:     0.0345760 a0     energy gain  -0.5691796E+00 Eh

........................................................................
.............................. CYCLE   21 ..............................
........................................................................

 iter      E             dE          RMSdq      gap      omega  full diag
   1  -3478.1902213 -0.347819E+04  0.548E-04   10.74       0.0  T
   2  -3478.1902214 -0.839773E-07  0.311E-04   10.74       5.6  T
   3  -3478.1902214 -0.820364E-09  0.844E-05   10.74      20.8  T
     SCC iter.                  ...        2 min, 42.390 sec
     gradient                   ...        3 min, 30.436 sec
 * total energy  : -3427.3944894 Eh     change    :  -0.2552529E-03 Eh
   gradient norm :     0.0518965 Eh/a0  converged?    E=F G=F D=F
   time step     :     0.2500000 fs     power     :   0.1332064E-07
   step length   :     0.0048390 a0     speed     :   0.4681953E-03

........................................................................
.............................. CYCLE   22 ..............................
........................................................................

 iter      E             dE          RMSdq      gap      omega  full diag
   1  -3478.2000672 -0.347820E+04  0.892E-04   10.74       0.0  T
   2  -3478.2000674 -0.214653E-06  0.507E-04   10.74       3.5  T
   3  -3478.2000674 -0.357522E-08  0.135E-04   10.74      12.9  T
     SCC iter.                  ...        2 min, 42.363 sec
     gradient                   ...        3 min, 31.054 sec
 * total energy  : -3427.3948873 Eh     change    :  -0.3978988E-03 Eh
   gradient norm :     0.0492487 Eh/a0  converged?    E=F G=F D=F
   time step     :     0.2500000 fs     power     :   0.2053224E-07
   step length   :     0.0078788 a0     speed     :   0.7623146E-03

........................................................................
.............................. CYCLE   23 ..............................
........................................................................

 iter      E             dE          RMSdq      gap      omega  full diag
   1  -3478.2131130 -0.347821E+04  0.120E-03   10.74       0.0  T
   2  -3478.2131134 -0.375064E-06  0.682E-04   10.74       2.6  T
   3  -3478.2131134 -0.822956E-08  0.179E-04   10.74       9.8  T
     SCC iter.                  ...        2 min, 46.976 sec
     gradient                   ...        3 min, 32.124 sec
 * total energy  : -3427.3953972 Eh     change    :  -0.5098793E-03 Eh
   gradient norm :     0.0460244 Eh/a0  converged?    E=F G=F D=F
   time step     :     0.2500000 fs     power     :   0.2602767E-07
   step length   :     0.0107573 a0     speed     :   0.1040825E-02

........................................................................
.............................. CYCLE   24 ..............................
........................................................................

 iter      E             dE          RMSdq      gap      omega  full diag
   1  -3478.2286719 -0.347823E+04  0.146E-03   10.74       0.0  T
   2  -3478.2286724 -0.527797E-06  0.830E-04   10.74       2.1  T
   3  -3478.2286724 -0.134910E-07  0.212E-04   10.74       8.3  T
     SCC iter.                  ...        2 min, 47.567 sec
     gradient                   ...        3 min, 31.805 sec
 * total energy  : -3427.3959847 Eh     change    :  -0.5875211E-03 Eh
   gradient norm :     0.0426818 Eh/a0  converged?    E=F G=F D=F
   time step     :     0.2500000 fs     power     :   0.2970095E-07
   step length   :     0.0134283 a0     speed     :   0.1299260E-02

........................................................................
.............................. CYCLE   25 ..............................
........................................................................

 iter      E             dE          RMSdq      gap      omega  full diag
   1  -3478.2458622 -0.347825E+04  0.166E-03   10.74       0.0  T
   2  -3478.2458629 -0.632144E-06  0.946E-04   10.74       1.9  T
   3  -3478.2458629 -0.189957E-07  0.231E-04   10.74       7.6  T
     SCC iter.                  ...        2 min, 44.194 sec
     gradient                   ...        3 min, 30.602 sec
 * total energy  : -3427.3966186 Eh     change    :  -0.6339037E-03 Eh
   gradient norm :     0.0397540 Eh/a0  converged?    E=F G=F D=F
   time step     :     0.2500000 fs     power     :   0.3181563E-07
   step length   :     0.0158602 a0     speed     :   0.1534559E-02

........................................................................
.............................. CYCLE   26 ..............................
........................................................................

 iter      E             dE          RMSdq      gap      omega  full diag
   1  -3478.2655524 -0.347827E+04  0.199E-03   10.74       0.0  T
   2  -3478.2655532 -0.803996E-06  0.114E-03   10.74       1.5  T
   3  -3478.2655533 -0.276027E-07  0.258E-04   10.74       6.8  T
   4  -3478.2655533 -0.109940E-07  0.601E-05   10.74      29.2  T
     SCC iter.                  ...        3 min, 39.509 sec
     gradient                   ...        3 min, 31.736 sec
 * total energy  : -3427.3973483 Eh     change    :  -0.7296791E-03 Eh
   gradient norm :     0.0375556 Eh/a0  converged?    E=F G=F D=F
   time step     :     0.2750000 fs     power     :   0.3300006E-07
   step length   :     0.0200898 a0     speed     :   0.1767090E-02

........................................................................
.............................. CYCLE   27 ..............................
........................................................................

 iter      E             dE          RMSdq      gap      omega  full diag
   1  -3478.2864886 -0.347829E+04  0.229E-03   10.74       0.0  T
   2  -3478.2864895 -0.873520E-06  0.130E-03   10.74       1.3  T
   3  -3478.2864895 -0.344071E-07  0.265E-04   10.74       6.6  T
   4  -3478.2864895 -0.139944E-07  0.665E-05   10.74      26.3  T
     SCC iter.                  ...        3 min, 34.478 sec
     gradient                   ...        3 min, 30.424 sec
 * total energy  : -3427.3981760 Eh     change    :  -0.8277866E-03 Eh
   gradient norm :     0.0366510 Eh/a0  converged?    E=F G=F D=F
   time step     :     0.3025000 fs     power     :   0.3395603E-07
   step length   :     0.0249197 a0     speed     :   0.1992659E-02

........................................................................
.............................. CYCLE   28 ..............................
........................................................................

 iter      E             dE          RMSdq      gap      omega  full diag
   1  -3478.3065750 -0.347831E+04  0.251E-03   10.74       0.0  T
   2  -3478.3065757 -0.739670E-06  0.144E-03   10.74       1.2  T
   3  -3478.3065758 -0.422833E-07  0.237E-04   10.74       7.4  T
   4  -3478.3065758 -0.165533E-07  0.724E-05   10.74      24.2  T
     SCC iter.                  ...        3 min, 40.673 sec
     gradient                   ...        3 min, 32.652 sec
 * total energy  : -3427.3991282 Eh     change    :  -0.9521200E-03 Eh
   gradient norm :     0.0369672 Eh/a0  converged?    E=F G=F D=F
   time step     :     0.3327500 fs     power     :   0.3579838E-07
   step length   :     0.0304225 a0     speed     :   0.2211525E-02

........................................................................
.............................. CYCLE   29 ..............................
........................................................................

 iter      E             dE          RMSdq      gap      omega  full diag
   1  -3478.3231060 -0.347832E+04  0.266E-03   10.74       0.0  T
   2  -3478.3231064 -0.451327E-06  0.154E-03   10.74       1.1  T
   3  -3478.3231065 -0.474552E-07  0.182E-04   10.74       9.6  T
   4  -3478.3231065 -0.187119E-07  0.752E-05   10.74      23.3  T
     SCC iter.                  ...        3 min, 38.866 sec
     gradient                   ...        3 min, 32.269 sec
 * total energy  : -3427.4002628 Eh     change    :  -0.1134685E-02 Eh
   gradient norm :     0.0374772 Eh/a0  converged?    E=F G=F D=F
   time step     :     0.3660250 fs     power     :   0.3935275E-07
   step length   :     0.0368240 a0     speed     :   0.2433525E-02

........................................................................
.............................. CYCLE   30 ..............................
........................................................................

 iter      E             dE          RMSdq      gap      omega  full diag
   1  -3478.3333394 -0.347833E+04  0.282E-03   10.74       0.0  T
   2  -3478.3333397 -0.249507E-06  0.165E-03   10.74       1.1  T
   3  -3478.3333397 -0.479440E-07  0.144E-04   10.74      12.1  T
   4  -3478.3333398 -0.224163E-07  0.745E-05   10.74      23.5  T
     SCC iter.                  ...        3 min, 37.827 sec
     gradient                   ...        3 min, 31.190 sec
 * total energy  : -3427.4016534 Eh     change    :  -0.1390520E-02 Eh
   gradient norm :     0.0366982 Eh/a0  converged?    E=F G=F D=F
   time step     :     0.4026275 fs     power     :   0.4422503E-07
   step length   :     0.0445514 a0     speed     :   0.2676539E-02

........................................................................
.............................. CYCLE   31 ..............................
........................................................................

 iter      E             dE          RMSdq      gap      omega  full diag
   1  -3478.3353795 -0.347834E+04  0.310E-03   10.74       0.0  T
   2  -3478.3353800 -0.509760E-06  0.183E-03   10.74       1.0  T
   3  -3478.3353800 -0.462292E-07  0.164E-04   10.74      10.7  T
   4  -3478.3353801 -0.268387E-07  0.694E-05   10.74      25.2  T
     SCC iter.                  ...        3 min, 42.707 sec
     gradient                   ...        3 min, 32.934 sec
 * total energy  : -3427.4033380 Eh     change    :  -0.1684629E-02 Eh
   gradient norm :     0.0336283 Eh/a0  converged?    E=F G=F D=F
   time step     :     0.4428903 fs     power     :   0.4837690E-07
   step length   :     0.0541046 a0     speed     :   0.2954970E-02

........................................................................
.............................. CYCLE   32 ..............................
........................................................................

 iter      E             dE          RMSdq      gap      omega  full diag
   1  -3478.3296731 -0.347833E+04  0.357E-03   10.74       0.0  T
   2  -3478.3296745 -0.141424E-05  0.213E-03   10.74       1.0  T
   3  -3478.3296745 -0.530017E-07  0.261E-04   10.74       6.7  T
   4  -3478.3296746 -0.302402E-07  0.709E-05   10.74      24.7  T
     SCC iter.                  ...        3 min, 35.383 sec
     gradient                   ...        3 min, 30.801 sec
 * total energy  : -3427.4052633 Eh     change    :  -0.1925304E-02 Eh
   gradient norm :     0.0289828 Eh/a0  converged?    E=F G=F D=F
   time step     :     0.4871793 fs     power     :   0.4906575E-07
   step length   :     0.0658024 a0     speed     :   0.3267141E-02

........................................................................
.............................. CYCLE   33 ..............................
........................................................................

 iter      E             dE          RMSdq      gap      omega  full diag
   1  -3478.3213447 -0.347832E+04  0.413E-03   10.74       0.0  T
   2  -3478.3213470 -0.230881E-05  0.248E-03   10.74       1.0  T
   3  -3478.3213471 -0.650389E-07  0.338E-04   10.74       5.2  T
   4  -3478.3213471 -0.335272E-07  0.749E-05   10.74      23.4  T
     SCC iter.                  ...        3 min, 34.360 sec
     gradient                   ...        3 min, 30.973 sec
 * total energy  : -3427.4072951 Eh     change    :  -0.2031822E-02 Eh
   gradient norm :     0.0261146 Eh/a0  converged?    E=F G=F D=F
   time step     :     0.5358972 fs     power     :   0.4568166E-07
   step length   :     0.0795235 a0     speed     :   0.3589461E-02

........................................................................
.............................. CYCLE   34 ..............................
........................................................................

 iter      E             dE          RMSdq      gap      omega  full diag
   1  -3478.3222278 -0.347832E+04  0.462E-03   10.74       0.0  T
   2  -3478.3222296 -0.178325E-05  0.278E-03   10.74       1.0  T
   3  -3478.3222296 -0.815380E-07  0.251E-04   10.74       7.0  T
   4  -3478.3222297 -0.337868E-07  0.785E-05   10.74      22.3  T
     SCC iter.                  ...        3 min, 45.201 sec
     gradient                   ...        3 min, 30.777 sec
 * total energy  : -3427.4093700 Eh     change    :  -0.2074838E-02 Eh
   gradient norm :     0.0269365 Eh/a0  converged?    E=F G=F D=F
   time step     :     0.5894869 fs     power     :   0.4219063E-07
   step length   :     0.0944405 a0     speed     :   0.3875245E-02

........................................................................
.............................. CYCLE   35 ..............................
........................................................................

 iter      E             dE          RMSdq      gap      omega  full diag
   1  -3478.3460309 -0.347835E+04  0.526E-03   10.75       0.0  T
   2  -3478.3460314 -0.446570E-06  0.311E-03   10.75       1.0  T
   3  -3478.3460315 -0.115019E-06  0.159E-04   10.75      11.0  T
   4  -3478.3460315 -0.237919E-07  0.865E-05   10.75      20.2  T
     SCC iter.                  ...        3 min, 32.569 sec
     gradient                   ...        3 min, 30.588 sec
 * total energy  : -3427.4116036 Eh     change    :  -0.2233643E-02 Eh
   gradient norm :     0.0265710 Eh/a0  converged?    E=F G=F D=F
   time step     :     0.6484356 fs     power     :   0.4198735E-07
   step length   :     0.1100535 a0     speed     :   0.4105368E-02

........................................................................
.............................. CYCLE   36 ..............................
........................................................................

 iter      E             dE          RMSdq      gap      omega  full diag
   1  -3478.3989261 -0.347840E+04  0.634E-03   10.75       0.0  T
   2  -3478.3989274 -0.126071E-05  0.367E-03   10.75       1.0  T
   3  -3478.3989275 -0.160621E-06  0.241E-04   10.75       7.3  T
   4  -3478.3989276 -0.209593E-07  0.101E-04   10.75      17.4  T
     SCC iter.                  ...        3 min, 39.756 sec
     gradient                   ...        3 min, 32.963 sec
 * total energy  : -3427.4140393 Eh     change    :  -0.2435746E-02 Eh
   gradient norm :     0.0222984 Eh/a0  converged?    E=F G=F D=F
   time step     :     0.7132792 fs     power     :   0.4073895E-07
   step length   :     0.1277988 a0     speed     :   0.4333935E-02

........................................................................
.............................. CYCLE   37 ..............................
........................................................................

 iter      E             dE          RMSdq      gap      omega  full diag
   1  -3478.4695241 -0.347847E+04  0.725E-03   10.76       0.0  T
   2  -3478.4695273 -0.315420E-05  0.415E-03   10.76       1.0  T
   3  -3478.4695275 -0.182277E-06  0.406E-04   10.76       4.3  T
   4  -3478.4695275 -0.314894E-07  0.109E-04   10.75      16.1  T
     SCC iter.                  ...        3 min, 43.834 sec
     gradient                   ...        3 min, 33.138 sec
 * total energy  : -3427.4164549 Eh     change    :  -0.2415596E-02 Eh
   gradient norm :     0.0217943 Eh/a0  converged?    E=F G=F D=F
   time step     :     0.7846071 fs     power     :   0.3498454E-07
   step length   :     0.1484509 a0     speed     :   0.4576628E-02

........................................................................
.............................. CYCLE   38 ..............................
........................................................................

 iter      E             dE          RMSdq      gap      omega  full diag
   1  -3478.5224200 -0.347852E+04  0.690E-03   10.76       0.0  T
   2  -3478.5224210 -0.944885E-06  0.401E-03   10.76       1.0  T
   3  -3478.5224211 -0.166323E-06  0.209E-04   10.76       8.4  T
   4  -3478.5224212 -0.189425E-07  0.939E-05   10.76      18.7  T
     SCC iter.                  ...        3 min, 35.944 sec
     gradient                   ...        3 min, 30.964 sec
 * total energy  : -3427.4189046 Eh     change    :  -0.2449667E-02 Eh
   gradient norm :     0.0240067 Eh/a0  converged?    E=F G=F D=F
   time step     :     0.8630678 fs     power     :   0.3347827E-07
   step length   :     0.1693540 a0     speed     :   0.4746414E-02

........................................................................
.............................. CYCLE   39 ..............................
........................................................................

 iter      E             dE          RMSdq      gap      omega  full diag
   1  -3478.5332301 -0.347853E+04  0.639E-03   10.77       0.0  T
   2  -3478.5332323 -0.213941E-05  0.382E-03   10.77       1.0  T
   3  -3478.5332325 -0.201236E-06  0.242E-04   10.77       7.2  T
   4  -3478.5332325 -0.252139E-07  0.116E-04   10.77      15.2  T
     SCC iter.                  ...        3 min, 35.251 sec
     gradient                   ...        3 min, 30.746 sec
 * total energy  : -3427.4216546 Eh     change    :  -0.2749939E-02 Eh
   gradient norm :     0.0205728 Eh/a0  converged?    E=F G=F D=F
   time step     :     0.9493746 fs     power     :   0.3403768E-07
   step length   :     0.1920706 a0     speed     :   0.4893712E-02

........................................................................
.............................. CYCLE   40 ..............................
........................................................................

 iter      E             dE          RMSdq      gap      omega  full diag
   1  -3478.5206573 -0.347852E+04  0.643E-03   10.77       0.0  T
   2  -3478.5206623 -0.502037E-05  0.387E-03   10.77       1.0  T
   3  -3478.5206626 -0.281725E-06  0.450E-04   10.77       3.9  T
   4  -3478.5206627 -0.516279E-07  0.157E-04   10.77      11.1  T
     SCC iter.                  ...        3 min, 34.455 sec
     gradient                   ...        3 min, 32.372 sec
 * total energy  : -3427.4245135 Eh     change    :  -0.2858968E-02 Eh
   gradient norm :     0.0229173 Eh/a0  converged?    E=F G=F D=F
   time step     :     1.0443120 fs     power     :   0.3126327E-07
   step length   :     0.2194033 a0     speed     :   0.5081922E-02

........................................................................
.............................. CYCLE   41 ..............................
........................................................................

 iter      E             dE          RMSdq      gap      omega  full diag
   1  -3478.5414631 -0.347854E+04  0.726E-03   10.79       0.0  T
   2  -3478.5414640 -0.896538E-06  0.426E-03   10.79       1.0  T
   3  -3478.5414643 -0.273521E-06  0.242E-04   10.79       7.2  T
   4  -3478.5414643 -0.318482E-07  0.142E-04   10.79      12.4  T
     SCC iter.                  ...        3 min, 35.433 sec
     gradient                   ...        3 min, 32.047 sec
 * total energy  : -3427.4278129 Eh     change    :  -0.3299410E-02 Eh
   gradient norm :     0.0208118 Eh/a0  converged?    E=F G=F D=F
   time step     :     1.1487432 fs     power     :   0.3464641E-07
   step length   :     0.2483396 a0     speed     :   0.5229234E-02

........................................................................
.............................. CYCLE   42 ..............................
........................................................................

 iter      E             dE          RMSdq      gap      omega  full diag
   1  -3478.5913003 -0.347859E+04  0.880E-03   10.80       0.0  T
   2  -3478.5913042 -0.392759E-05  0.509E-03   10.80       1.0  T
   3  -3478.5913044 -0.262895E-06  0.413E-04   10.80       4.2  T
   4  -3478.5913045 -0.409877E-07  0.127E-04   10.80      13.8  T
     SCC iter.                  ...        3 min, 40.113 sec
     gradient                   ...        3 min, 30.745 sec
 * total energy  : -3427.4313809 Eh     change    :  -0.3567954E-02 Eh
   gradient norm :     0.0213822 Eh/a0  converged?    E=F G=F D=F
   time step     :     1.2500000 fs     power     :   0.3224359E-07
   step length   :     0.2816567 a0     speed     :   0.5450360E-02
 * RMSD in coord.:     0.0325355 a0     energy gain  -0.3714676E-01 Eh

........................................................................
.............................. CYCLE   43 ..............................
........................................................................

 iter      E             dE          RMSdq      gap      omega  full diag
   1  -3478.5941649 -0.347859E+04  0.141E-03   10.80       0.0  T
   2  -3478.5941650 -0.377563E-07  0.824E-04   10.80       2.1  T
   3  -3478.5941650 -0.100740E-07  0.502E-05   10.80      34.9  T
     SCC iter.                  ...        2 min, 42.953 sec
     gradient                   ...        3 min, 31.187 sec
 * total energy  : -3427.4320628 Eh     change    :  -0.6819259E-03 Eh
   gradient norm :     0.0213056 Eh/a0  converged?    E=F G=F D=F
   time step     :     0.2500000 fs     power     :   0.3554892E-07
   step length   :     0.0544965 a0     speed     :   0.5272833E-02

........................................................................
.............................. CYCLE   44 ..............................
........................................................................

 iter      E             dE          RMSdq      gap      omega  full diag
   1  -3478.5907194 -0.347859E+04  0.133E-03   10.80       0.0  T
   2  -3478.5907196 -0.172641E-06  0.785E-04   10.80       2.2  T
   3  -3478.5907196 -0.110399E-07  0.859E-05   10.80      20.4  T
     SCC iter.                  ...        2 min, 43.979 sec
     gradient                   ...        3 min, 34.770 sec
 * total energy  : -3427.4327925 Eh     change    :  -0.7296501E-03 Eh
   gradient norm :     0.0196584 Eh/a0  converged?    E=F G=F D=F
   time step     :     0.2500000 fs     power     :   0.3788266E-07
   step length   :     0.0531927 a0     speed     :   0.5146683E-02

........................................................................
.............................. CYCLE   45 ..............................
........................................................................

 iter      E             dE          RMSdq      gap      omega  full diag
   1  -3478.5827984 -0.347858E+04  0.146E-03   10.80       0.0  T
   2  -3478.5827988 -0.410551E-06  0.857E-04   10.80       2.0  T
   3  -3478.5827988 -0.135697E-07  0.160E-04   10.80      10.9  T
     SCC iter.                  ...        2 min, 41.202 sec
     gradient                   ...        3 min, 31.129 sec
 * total energy  : -3427.4335364 Eh     change    :  -0.7439222E-03 Eh
   gradient norm :     0.0175230 Eh/a0  converged?    E=F G=F D=F
   time step     :     0.2500000 fs     power     :   0.3811770E-07
   step length   :     0.0525037 a0     speed     :   0.5080020E-02

........................................................................
.............................. CYCLE   46 ..............................
........................................................................

 iter      E             dE          RMSdq      gap      omega  full diag
   1  -3478.5733381 -0.347857E+04  0.159E-03   10.81       0.0  T
   2  -3478.5733386 -0.523691E-06  0.929E-04   10.81       1.9  T
   3  -3478.5733386 -0.151067E-07  0.186E-04   10.81       9.4  T
     SCC iter.                  ...        2 min, 50.498 sec
     gradient                   ...        3 min, 31.480 sec
 * total energy  : -3427.4342614 Eh     change    :  -0.7250587E-03 Eh
   gradient norm :     0.0164178 Eh/a0  converged?    E=F G=F D=F
   time step     :     0.2500000 fs     power     :   0.3680520E-07
   step length   :     0.0523006 a0     speed     :   0.5060362E-02

........................................................................
.............................. CYCLE   47 ..............................
........................................................................

 iter      E             dE          RMSdq      gap      omega  full diag
   1  -3478.5659402 -0.347857E+04  0.160E-03   10.81       0.0  T
   2  -3478.5659406 -0.386040E-06  0.939E-04   10.81       1.9  T
   3  -3478.5659406 -0.140581E-07  0.147E-04   10.81      11.9  T
     SCC iter.                  ...        2 min, 44.132 sec
     gradient                   ...        3 min, 32.050 sec
 * total energy  : -3427.4349600 Eh     change    :  -0.6985148E-03 Eh
   gradient norm :     0.0166883 Eh/a0  converged?    E=F G=F D=F
   time step     :     0.2500000 fs     power     :   0.3562294E-07
   step length   :     0.0521989 a0     speed     :   0.5050526E-02

........................................................................
.............................. CYCLE   48 ..............................
........................................................................

 iter      E             dE          RMSdq      gap      omega  full diag
   1  -3478.5631399 -0.347856E+04  0.171E-03   10.81       0.0  T
   2  -3478.5631401 -0.181011E-06  0.100E-03   10.81       1.7  T
   3  -3478.5631401 -0.136620E-07  0.814E-05   10.81      21.5  T
   4  -3478.5631401 -0.386535E-08  0.286E-05   10.81      61.3  T
     SCC iter.                  ...        3 min, 37.882 sec
     gradient                   ...        3 min, 30.259 sec
 * total energy  : -3427.4357169 Eh     change    :  -0.7569911E-03 Eh
   gradient norm :     0.0171100 Eh/a0  converged?    E=F G=F D=F
   time step     :     0.2750000 fs     power     :   0.3541307E-07
   step length   :     0.0571831 a0     speed     :   0.5029791E-02

........................................................................
.............................. CYCLE   49 ..............................
........................................................................

 iter      E             dE          RMSdq      gap      omega  full diag
   1  -3478.5673274 -0.347857E+04  0.188E-03   10.81       0.0  T
   2  -3478.5673275 -0.636760E-07  0.110E-03   10.81       1.6  T
   3  -3478.5673275 -0.146242E-07  0.584E-05   10.81      30.0  T
   4  -3478.5673275 -0.435193E-08  0.271E-05   10.81      64.7  T
     SCC iter.                  ...        3 min, 38.125 sec
     gradient                   ...        3 min, 32.149 sec
 * total energy  : -3427.4365529 Eh     change    :  -0.8359523E-03 Eh
   gradient norm :     0.0163607 Eh/a0  converged?    E=F G=F D=F
   time step     :     0.3025000 fs     power     :   0.3564845E-07
   step length   :     0.0626534 a0     speed     :   0.5009959E-02

........................................................................
.............................. CYCLE   50 ..............................
........................................................................

 iter      E             dE          RMSdq      gap      omega  full diag
   1  -3478.5791347 -0.347858E+04  0.217E-03   10.82       0.0  T
   2  -3478.5791349 -0.218643E-06  0.126E-03   10.82       1.4  T
   3  -3478.5791349 -0.202303E-07  0.955E-05   10.82      18.3  T
   4  -3478.5791349 -0.456703E-08  0.347E-05   10.82      50.5  T
     SCC iter.                  ...        3 min, 36.976 sec
     gradient                   ...        3 min, 31.566 sec
 * total energy  : -3427.4374622 Eh     change    :  -0.9093092E-03 Eh
   gradient norm :     0.0144034 Eh/a0  converged?    E=F G=F D=F
   time step     :     0.3327500 fs     power     :   0.3484382E-07
   step length   :     0.0690581 a0     speed     :   0.5020092E-02

........................................................................
.............................. CYCLE   51 ..............................
........................................................................

 iter      E             dE          RMSdq      gap      omega  full diag
   1  -3478.5961433 -0.347860E+04  0.244E-03   10.82       0.0  T
   2  -3478.5961439 -0.502568E-06  0.141E-03   10.82       1.2  T
   3  -3478.5961439 -0.267091E-07  0.159E-04   10.82      11.0  T
   4  -3478.5961439 -0.620776E-08  0.435E-05   10.82      40.3  T
     SCC iter.                  ...        3 min, 44.972 sec
     gradient                   ...        3 min, 31.723 sec
 * total energy  : -3427.4384095 Eh     change    :  -0.9473315E-03 Eh
   gradient norm :     0.0132350 Eh/a0  converged?    E=F G=F D=F
   time step     :     0.3660250 fs     power     :   0.3242946E-07
   step length   :     0.0767826 a0     speed     :   0.5074194E-02

........................................................................
.............................. CYCLE   52 ..............................
........................................................................

 iter      E             dE          RMSdq      gap      omega  full diag
   1  -3478.6112950 -0.347861E+04  0.246E-03   10.82       0.0  T
   2  -3478.6112954 -0.395351E-06  0.144E-03   10.82       1.2  T
   3  -3478.6112954 -0.288915E-07  0.133E-04   10.82      13.2  T
   4  -3478.6112954 -0.616865E-08  0.434E-05   10.82      40.4  T
     SCC iter.                  ...        3 min, 37.594 sec
     gradient                   ...        3 min, 31.433 sec
 * total energy  : -3427.4393807 Eh     change    :  -0.9711890E-03 Eh
   gradient norm :     0.0140654 Eh/a0  converged?    E=F G=F D=F
   time step     :     0.4026275 fs     power     :   0.3027689E-07
   step length   :     0.0853953 a0     speed     :   0.5130335E-02

........................................................................
.............................. CYCLE   53 ..............................
........................................................................

 iter      E             dE          RMSdq      gap      omega  full diag
   1  -3478.6168881 -0.347862E+04  0.234E-03   10.83       0.0  T
   2  -3478.6168882 -0.104783E-06  0.138E-03   10.83       1.3  T
   3  -3478.6168882 -0.285972E-07  0.748E-05   10.83      23.4  T
   4  -3478.6168882 -0.495038E-08  0.394E-05   10.83      44.4  T
     SCC iter.                  ...        3 min, 38.017 sec
     gradient                   ...        3 min, 31.595 sec
 * total energy  : -3427.4404147 Eh     change    :  -0.1033990E-02 Eh
   gradient norm :     0.0141393 Eh/a0  converged?    E=F G=F D=F
   time step     :     0.4428903 fs     power     :   0.2971037E-07
   step length   :     0.0941057 a0     speed     :   0.5139667E-02

........................................................................
.............................. CYCLE   54 ..............................
........................................................................

 iter      E             dE          RMSdq      gap      omega  full diag
   1  -3478.6099958 -0.347861E+04  0.241E-03   10.83       0.0  T
   2  -3478.6099963 -0.420667E-06  0.142E-03   10.83       1.2  T
   3  -3478.6099963 -0.361229E-07  0.123E-04   10.83      14.2  T
   4  -3478.6099963 -0.589353E-08  0.474E-05   10.83      37.0  T
     SCC iter.                  ...        3 min, 41.402 sec
     gradient                   ...        3 min, 31.393 sec
 * total energy  : -3427.4415296 Eh     change    :  -0.1114868E-02 Eh
   gradient norm :     0.0124847 Eh/a0  converged?    E=F G=F D=F
   time step     :     0.4871793 fs     power     :   0.2885920E-07
   step length   :     0.1037353 a0     speed     :   0.5150540E-02

........................................................................
.............................. CYCLE   55 ..............................
........................................................................

 iter      E             dE          RMSdq      gap      omega  full diag
   1  -3478.5960605 -0.347860E+04  0.254E-03   10.84       0.0  T
   2  -3478.5960614 -0.915080E-06  0.150E-03   10.84       1.2  T
   3  -3478.5960614 -0.479804E-07  0.219E-04   10.84       8.0  T
   4  -3478.5960615 -0.910541E-08  0.617E-05   10.84      28.4  T
     SCC iter.                  ...        3 min, 36.840 sec
     gradient                   ...        3 min, 31.569 sec
 * total energy  : -3427.4426876 Eh     change    :  -0.1158053E-02 Eh
   gradient norm :     0.0125874 Eh/a0  converged?    E=F G=F D=F
   time step     :     0.5358972 fs     power     :   0.2684683E-07
   step length   :     0.1152060 a0     speed     :   0.5200066E-02

........................................................................
.............................. CYCLE   56 ..............................
........................................................................

 iter      E             dE          RMSdq      gap      omega  full diag
   1  -3478.5901449 -0.347859E+04  0.245E-03   10.84       0.0  T
   2  -3478.5901453 -0.379254E-06  0.145E-03   10.84       1.2  T
   3  -3478.5901454 -0.477680E-07  0.130E-04   10.84      13.5  T
   4  -3478.5901454 -0.847604E-08  0.614E-05   10.84      28.5  T
     SCC iter.                  ...        3 min, 33.971 sec
     gradient                   ...        3 min, 33.065 sec
 * total energy  : -3427.4439141 Eh     change    :  -0.1226488E-02 Eh
   gradient norm :     0.0134587 Eh/a0  converged?    E=F G=F D=F
   time step     :     0.5894869 fs     power     :   0.2636585E-07
   step length   :     0.1272751 a0     speed     :   0.5222572E-02

........................................................................
.............................. CYCLE   57 ..............................
........................................................................

 iter      E             dE          RMSdq      gap      omega  full diag
   1  -3478.6018234 -0.347860E+04  0.281E-03   10.85       0.0  T
   2  -3478.6018237 -0.319890E-06  0.164E-03   10.85       1.1  T
   3  -3478.6018237 -0.398118E-07  0.142E-04   10.85      12.4  T
   4  -3478.6018237 -0.114892E-07  0.566E-05   10.85      30.9  T
     SCC iter.                  ...        3 min, 40.819 sec
     gradient                   ...        3 min, 31.149 sec
 * total energy  : -3427.4452640 Eh     change    :  -0.1349877E-02 Eh
   gradient norm :     0.0119086 Eh/a0  converged?    E=F G=F D=F
   time step     :     0.6484356 fs     power     :   0.2631203E-07
   step length   :     0.1402094 a0     speed     :   0.5230284E-02

........................................................................
.............................. CYCLE   58 ..............................
........................................................................

 iter      E             dE          RMSdq      gap      omega  full diag
   1  -3478.6254983 -0.347863E+04  0.329E-03   10.86       0.0  T
   2  -3478.6254990 -0.754626E-06  0.190E-03   10.86       1.0  T
   3  -3478.6254990 -0.407485E-07  0.213E-04   10.86       8.2  T
   4  -3478.6254991 -0.126097E-07  0.571E-05   10.86      30.7  T
     SCC iter.                  ...        3 min, 42.103 sec
     gradient                   ...        3 min, 32.755 sec
 * total energy  : -3427.4466950 Eh     change    :  -0.1431037E-02 Eh
   gradient norm :     0.0123792 Eh/a0  converged?    E=F G=F D=F
   time step     :     0.7132792 fs     power     :   0.2496910E-07
   step length   :     0.1559013 a0     speed     :   0.5286951E-02

........................................................................
.............................. CYCLE   59 ..............................
........................................................................

 iter      E             dE          RMSdq      gap      omega  full diag
   1  -3478.6397283 -0.347864E+04  0.308E-03   10.87       0.0  T
   2  -3478.6397285 -0.211240E-06  0.182E-03   10.87       1.0  T
   3  -3478.6397285 -0.507989E-07  0.118E-04   10.87      14.9  T
   4  -3478.6397285 -0.917362E-08  0.658E-05   10.87      26.6  T
     SCC iter.                  ...        3 min, 43.507 sec
     gradient                   ...        3 min, 31.782 sec
 * total energy  : -3427.4482524 Eh     change    :  -0.1557404E-02 Eh
   gradient norm :     0.0121030 Eh/a0  converged?    E=F G=F D=F
   time step     :     0.7846071 fs     power     :   0.2523056E-07
   step length   :     0.1725434 a0     speed     :   0.5319382E-02

........................................................................
.............................. CYCLE   60 ..............................
........................................................................

 iter      E             dE          RMSdq      gap      omega  full diag
   1  -3478.6400118 -0.347864E+04  0.325E-03   10.88       0.0  T
   2  -3478.6400131 -0.130410E-05  0.198E-03   10.88       1.0  T
   3  -3478.6400132 -0.675991E-07  0.236E-04   10.88       7.4  T
   4  -3478.6400132 -0.160198E-07  0.807E-05   10.88      21.7  T
     SCC iter.                  ...        3 min, 34.097 sec
     gradient                   ...        3 min, 31.466 sec
 * total energy  : -3427.4499392 Eh     change    :  -0.1686724E-02 Eh
   gradient norm :     0.0110167 Eh/a0  converged?    E=F G=F D=F
   time step     :     0.8630678 fs     power     :   0.2416552E-07
   step length   :     0.1918482 a0     speed     :   0.5376850E-02

........................................................................
.............................. CYCLE   61 ..............................
........................................................................

 iter      E             dE          RMSdq      gap      omega  full diag
   1  -3478.6562358 -0.347866E+04  0.375E-03   10.89       0.0  T
   2  -3478.6562361 -0.373125E-06  0.224E-03   10.89       1.0  T
   3  -3478.6562362 -0.569421E-07  0.124E-04   10.89      14.1  T
   4  -3478.6562362 -0.107239E-07  0.647E-05   10.89      27.1  T
     SCC iter.                  ...        3 min, 39.335 sec
     gradient                   ...        3 min, 31.091 sec
 * total energy  : -3427.4517246 Eh     change    :  -0.1785464E-02 Eh
   gradient norm :     0.0109706 Eh/a0  converged?    E=F G=F D=F
   time step     :     0.9493746 fs     power     :   0.2358099E-07
   step length   :     0.2140195 a0     speed     :   0.5452942E-02

........................................................................
.............................. CYCLE   62 ..............................
........................................................................

 iter      E             dE          RMSdq      gap      omega  full diag
   1  -3478.6997241 -0.347870E+04  0.529E-03   10.91       0.0  T
   2  -3478.6997253 -0.122633E-05  0.306E-03   10.91       1.0  T
   3  -3478.6997254 -0.746741E-07  0.249E-04   10.91       7.0  T
   4  -3478.6997254 -0.138493E-07  0.698E-05   10.91      25.1  T
     SCC iter.                  ...        3 min, 41.752 sec
     gradient                   ...        3 min, 31.290 sec
 * total energy  : -3427.4535974 Eh     change    :  -0.1872807E-02 Eh
   gradient norm :     0.0101724 Eh/a0  converged?    E=F G=F D=F
   time step     :     1.0443120 fs     power     :   0.2164955E-07
   step length   :     0.2387439 a0     speed     :   0.5529899E-02

........................................................................
.............................. CYCLE   63 ..............................
........................................................................

 iter      E             dE          RMSdq      gap      omega  full diag
   1  -3478.7160769 -0.347872E+04  0.498E-03   10.92       0.0  T
   2  -3478.7160776 -0.719899E-06  0.295E-03   10.92       1.0  T
   3  -3478.7160777 -0.638761E-07  0.161E-04   10.92      10.9  T
   4  -3478.7160777 -0.244436E-07  0.680E-05   10.92      25.8  T
     SCC iter.                  ...        3 min, 43.740 sec
     gradient                   ...        3 min, 30.731 sec
 * total energy  : -3427.4555169 Eh     change    :  -0.1919423E-02 Eh
   gradient norm :     0.0089954 Eh/a0  converged?    E=F G=F D=F
   time step     :     1.1487432 fs     power     :   0.2041821E-07
   step length   :     0.2658914 a0     speed     :   0.5598818E-02

........................................................................
.............................. CYCLE   64 ..............................
........................................................................

 iter      E             dE          RMSdq      gap      omega  full diag
   1  -3478.7121654 -0.347871E+04  0.500E-03   10.94       0.0  T
   2  -3478.7121672 -0.181601E-05  0.300E-03   10.94       1.0  T
   3  -3478.7121672 -0.650994E-07  0.232E-04   10.94       7.6  T
   4  -3478.7121673 -0.277255E-07  0.730E-05   10.94      24.0  T
     SCC iter.                  ...        3 min, 36.438 sec
     gradient                   ...        3 min, 30.841 sec
 * total energy  : -3427.4574191 Eh     change    :  -0.1902236E-02 Eh
   gradient norm :     0.0105974 Eh/a0  converged?    E=F G=F D=F
   time step     :     1.2500000 fs     power     :   0.1809653E-07
   step length   :     0.2937451 a0     speed     :   0.5684283E-02

........................................................................
.............................. CYCLE   65 ..............................
........................................................................

 iter      E             dE          RMSdq      gap      omega  full diag
   1  -3478.7517529 -0.347875E+04  0.609E-03   10.96       0.0  T
   2  -3478.7517547 -0.177346E-05  0.352E-03   10.96       1.0  T
   3  -3478.7517548 -0.669297E-07  0.299E-04   10.96       5.9  T
   4  -3478.7517548 -0.280606E-07  0.723E-05   10.96      24.2  T
     SCC iter.                  ...        3 min, 43.552 sec
     gradient                   ...        3 min, 30.997 sec
 * total energy  : -3427.4591946 Eh     change    :  -0.1775514E-02 Eh
   gradient norm :     0.0100220 Eh/a0  converged?    E=F G=F D=F
   time step     :     1.2500000 fs     power     :   0.1659256E-07
   step length   :     0.2929910 a0     speed     :   0.5669691E-02

........................................................................
.............................. CYCLE   66 ..............................
........................................................................

 iter      E             dE          RMSdq      gap      omega  full diag
   1  -3478.7558079 -0.347876E+04  0.451E-03   10.98       0.0  T
   2  -3478.7558090 -0.111638E-05  0.270E-03   10.98       1.0  T
   3  -3478.7558090 -0.672985E-07  0.180E-04   10.98       9.7  T
   4  -3478.7558091 -0.192199E-07  0.772E-05   10.98      22.7  T
     SCC iter.                  ...        3 min, 41.170 sec
     gradient                   ...        3 min, 32.332 sec
 * total energy  : -3427.4608767 Eh     change    :  -0.1682107E-02 Eh
   gradient norm :     0.0085626 Eh/a0  converged?    E=F G=F D=F
   time step     :     1.2500000 fs     power     :   0.1634409E-07
[...]
  3011   6 C     3012   6 C                                       1.5292984
  3012   6 C     3013   6 C                                       1.5276185
  3013   6 C     3014   6 C                                       1.5261162
  3014   6 C     3015   6 C                                       1.5266125
  3015   6 C     3016   6 C                                       1.5222397
  3015   6 C     3017   1 H                                       1.0938759
  3015   6 C     3018   1 H                                       1.0928203
  3014   6 C     3019   1 H                                       1.0914774
  3014   6 C     3020   1 H                                       1.0930418
  3013   6 C     3021   1 H                                       1.0948078
  3013   6 C     3022   1 H                                       1.0927327
  3012   6 C     3023   1 H                                       1.0931070
  3012   6 C     3024   1 H                                       1.0921576
  3011   6 C     3025   1 H                                       1.0932424
  3011   6 C     3026   1 H                                       1.0917513
  3010   6 C     3027   1 H                                       1.0921544
  3010   6 C     3028   1 H                                       1.0927107
  3009   6 C     3029   1 H                                       1.0906806
  3009   6 C     3030   1 H                                       1.0927401
  3008   6 C     3031   1 H                                       1.0925000
  3008   6 C     3032   1 H                                       1.0936819
  3007   6 C     3033   1 H                                       1.0921152
  3007   6 C     3034   1 H                                       1.0930611
  3006   6 C     3035   1 H                                       1.0931655
  3006   6 C     3036   1 H                                       1.0920993
  3005   6 C     3037   1 H                                       1.0936556
  3005   6 C     3038   1 H                                       1.0935999
  3004   6 C     3039   1 H                                       1.0901124
  3004   6 C     3040   1 H                                       1.0940959
  3003   6 C     3041   1 H                                       1.0933135
  3003   6 C     3042   1 H                                       1.0907307
  3002   6 C     3043   1 H                                       1.0911997
  3002   6 C     3044   1 H                                       1.0936031
  3001   6 C     3045   1 H                                       1.0935749
  3001   6 C     3046   1 H                                       1.0913396
  3000   6 C     3047   1 H                                       1.0933687
  3000   6 C     3048   1 H                                       1.0932114
  2999   6 C     3049   1 H                                       1.0911494
  2999   6 C     3050   1 H                                       1.0935009
  2998   6 C     3051   1 H                                       1.0930678
  2998   6 C     3052   1 H                                       1.0908333
  2997   6 C     3053   1 H                                       1.0927933
  2997   6 C     3054   1 H                                       1.0934433
  2996   6 C     3055   1 H                                       1.0931007
  2996   6 C     3056   1 H                                       1.0920613
  2995   6 C     3057   1 H                                       1.0924602
  2995   6 C     3058   1 H                                       1.0918246
  2994   6 C     3059   1 H                                       1.0930416
  2994   6 C     3060   1 H                                       1.0934283
  2993   6 C     3061   1 H                                       1.0922133
  2993   6 C     3062   1 H                                       1.0917382
  2992   6 C     3063   1 H                                       1.0920921
  2992   6 C     3064   1 H                                       1.0934122
  2991   6 C     3065   1 H                                       1.0936216
  2991   6 C     3066   1 H                                       1.0930388
  2990   6 C     3067   1 H                                       1.0911486
  2990   6 C     3068   1 H                                       1.0922989
  2989   6 C     3069   1 H                                       1.0931039
  2989   6 C     3070   1 H                                       1.0930363
  2988   6 C     3071   1 H                                       1.0928303
  2988   6 C     3072   1 H                                       1.0925748
  2987   6 C     3073   1 H                                       1.0928301
  2987   6 C     3074   1 H                                       1.0928949
  2986   6 C     3075   1 H                                       1.0923888
  2986   6 C     3076   1 H                                       1.0916008
  2985   6 C     3077   1 H                                       1.0931300
  2985   6 C     3078   1 H                                       1.0934889
  2984   6 C     3079   1 H                                       1.0911014
  2984   6 C     3080   1 H                                       1.0923636
  2983   6 C     3081   1 H                                       1.0935956
  2983   6 C     3082   1 H                                       1.0935399
  2982   6 C     3083   1 H                                       1.0925994
  2982   6 C     3084   1 H                                       1.0935783
  2981   6 C     3085   1 H                                       1.0916599
  2981   6 C     3086   1 H                                       1.0911075
  2980   6 C     3087   1 H                                       1.0937127
  2980   6 C     3088   1 H                                       1.0931717
  2979   6 C     3089   1 H                                       1.0908411
  2979   6 C     3090   1 H                                       1.0938625
  2978   6 C     3091   1 H                                       1.0929209
  2978   6 C     3092   1 H                                       1.0915391
  2977   6 C     3093   1 H                                       1.0928055
  2977   6 C     3094   1 H                                       1.0929984
  2976   6 C     3095   1 H                                       1.0928853
  2976   6 C     3096   1 H                                       1.0914016
  2975   6 C     3097   1 H                                       1.0916898
  2975   6 C     3098   1 H                                       1.0934047
  2974   6 C     3099   1 H                                       1.0933832
  2974   6 C     3100   1 H                                       1.0929459
  2973   6 C     3101   1 H                                       1.0896712
  2973   6 C     3102   1 H                                       1.0926695
  2972   6 C     3103   1 H                                       1.0935135
  2972   6 C     3104   1 H                                       1.0931531
  2971   6 C     3105   1 H                                       1.0912010
  2971   6 C     3106   1 H                                       1.0933521
  2970   6 C     3107   1 H                                       1.0936377
  2970   6 C     3108   1 H                                       1.0897740
  2969   6 C     3109   1 H                                       1.0935651
  2969   6 C     3110   1 H                                       1.0936643
  2968   6 C     3111   1 H                                       1.0918360
  2968   6 C     3112   1 H                                       1.0940309
  2967   6 C     3113   1 H                                       1.0930967
  2967   6 C     3114   1 H                                       1.0915431
  2966   6 C     3115   1 H                                       1.0918966
  2966   6 C     3116   1 H                                       1.0937927
  2965   6 C     3117   1 H                                       1.0920215
  2965   6 C     3118   1 H                                       1.0919415
  2964   6 C     3119   1 H                                       1.0919378
  2964   6 C     3120   1 H                                       1.0916986
  2963   6 C     3121   1 H                                       1.0935738
  2963   6 C     3122   1 H                                       1.0932359
  2962   6 C     3123   1 H                                       1.0933888
  2962   6 C     3124   1 H                                       1.0913006
  2961   6 C     3125   1 H                                       1.0902314
  2961   6 C     3126   1 H                                       1.0927996
  2960   6 C     3127   1 H                                       1.0938902
  2960   6 C     3128   1 H                                       1.0928805
  2959   6 C     3129   1 H                                       1.0920727
  2959   6 C     3130   1 H                                       1.0931102
  2958   6 C     3131   1 H                                       1.0936368
  2958   6 C     3132   1 H                                       1.0931563
  2957   6 C     3133   1 H                                       1.0924904
  2957   6 C     3134   1 H                                       1.0921390
  2956   6 C     3135   1 H                                       1.0934957
  2956   6 C     3136   1 H                                       1.0930008
  2955   6 C     3137   1 H                                       1.0925658
  2955   6 C     3138   1 H                                       1.0920347
  2954   6 C     3139   1 H                                       1.0932785
  2954   6 C     3140   1 H                                       1.0929945
  2953   6 C     3141   1 H                                       1.0924791
  2953   6 C     3142   1 H                                       1.0928019
  2952   6 C     3143   1 H                                       1.0934030
  2952   6 C     3144   1 H                                       1.0925833
  2951   6 C     3145   1 H                                       1.0910424
  2951   6 C     3146   1 H                                       1.0931541
  2950   6 C     3147   1 H                                       1.0938377
  2950   6 C     3148   1 H                                       1.0924132
  2949   6 C     3149   1 H                                       1.0927887
  2949   6 C     3150   1 H                                       1.0940402
  2948   6 C     3151   1 H                                       1.0932792
  2948   6 C     3152   1 H                                       1.0905789
  2947   6 C     3153   1 H                                       1.0929021
  2947   6 C     3154   1 H                                       1.0938533
  2946   6 C     3155   1 H                                       1.0931985
  2946   6 C     3156   1 H                                       1.0913830
  2945   6 C     3157   1 H                                       1.0929127
  2945   6 C     3158   1 H                                       1.0936553
  2944   6 C     3159   1 H                                       1.0923919
  2944   6 C     3160   1 H                                       1.0909963
  2943   6 C     3161   1 H                                       1.0927450
  2943   6 C     3162   1 H                                       1.0935240
  2942   6 C     3163   1 H                                       1.0935910
  2942   6 C     3164   1 H                                       1.0925592
  2941   6 C     3165   1 H                                       1.0905189
  2941   6 C     3166   1 H                                       1.0931029
  2940   6 C     3167   1 H                                       1.0933641
  2940   6 C     3168   1 H                                       1.0916953
  2939   6 C     3169   1 H                                       1.0912858
  2939   6 C     3170   1 H                                       1.0936720
  2938   6 C     3171   1 H                                       1.0931147
  2938   6 C     3172   1 H                                       1.0932455
  2937   6 C     3173   1 H                                       1.0919521
  2937   6 C     3174   1 H                                       1.0921925
  2936   6 C     3175   1 H                                       1.0927374
  2936   6 C     3176   1 H                                       1.0933393
  2935   6 C     3177   1 H                                       1.0930757
  2935   6 C     3178   1 H                                       1.0925390
  2934   6 C     3179   1 H                                       1.0928878
  2934   6 C     3180   1 H                                       1.0934985
  2933   6 C     3181   1 H                                       1.0928665
  2933   6 C     3182   1 H                                       1.0919387
  2932   6 C     3183   1 H                                       1.0931314
  2932   6 C     3184   1 H                                       1.0938370
  2931   6 C     3185   1 H                                       1.0929323
  2931   6 C     3186   1 H                                       1.0906843
  2930   6 C     3187   1 H                                       1.0928742
  2930   6 C     3188   1 H                                       1.0935656
  2929   6 C     3189   1 H                                       1.0935726
  2929   6 C     3190   1 H                                       1.0926534
  2928   6 C     3191   1 H                                       1.0910058
  2928   6 C     3192   1 H                                       1.0922255
  2927   6 C     3193   1 H                                       1.0937716
  2927   6 C     3194   1 H                                       1.0927126
  2926   6 C     3195   1 H                                       1.0926079
  2926   6 C     3196   1 H                                       1.0917708
  2925   6 C     3197   1 H                                       1.0933956
  2925   6 C     3198   1 H                                       1.0928790
  2924   6 C     3199   1 H                                       1.0935180
  2924   6 C     3200   1 H                                       1.0929404
  2923   6 C     3201   1 H                                       1.0902105
  2923   6 C     3202   1 H                                       1.0932800
  2922   6 C     3203   1 H                                       1.0938223
  2922   6 C     3204   1 H                                       1.0916153
  2921   6 C     3205   1 H                                       1.0935998
  2921   6 C     3206   1 H                                       1.0941366
  2920   6 C     3207   1 H                                       1.0920862
  2920   6 C     3208   1 H                                       1.0940780
  2919   6 C     3209   1 H                                       1.0931890
  2919   6 C     3210   1 H                                       1.0894379
  2918   6 C     3211   1 H                                       1.0932913
  2918   6 C     3212   1 H                                       1.0934416
  2917   6 C     3213   1 H                                       1.0934052
  2917   6 C     3214   1 H                                       1.0930551
  2916   6 C     3215   1 H                                       1.0917453
  2916   6 C     3216   1 H                                       1.0933467
  2915   6 C     3217   1 H                                       1.0933767
  2915   6 C     3218   1 H                                       1.0929667
  2914   6 C     3219   1 H                                       1.0936272
  2914   6 C     3220   1 H                                       1.0937183
  2913   6 C     3221   1 H                                       1.0925354
  2913   6 C     3222   1 H                                       1.0922787
  2912   6 C     3223   1 H                                       1.0937621
  2912   6 C     3224   1 H                                       1.0939405
  2911   6 C     3225   1 H                                       1.0920234
  2911   6 C     3226   1 H                                       1.0928327
  2910   6 C     3227   1 H                                       1.0930906
  2910   6 C     3228   1 H                                       1.0940600
  2909   6 C     3229   1 H                                       1.0909953
  2909   6 C     3230   1 H                                       1.0926532
  2908   6 C     3231   1 H                                       1.0934193
  2908   6 C     3232   1 H                                       1.0937224
  2907   6 C     3233   1 H                                       1.0920493
  2907   6 C     3234   1 H                                       1.0924927
  2906   6 C     3235   1 H                                       1.0937560
  2906   6 C     3236   1 H                                       1.0923678
  2905   6 C     3237   1 H                                       1.0924538
  2905   6 C     3238   1 H                                       1.0925877
  2904   6 C     3239   1 H                                       1.0927052
  2904   6 C     3240   1 H                                       1.0927806
  2903   6 C     3241   1 H                                       1.0922851
  2903   6 C     3242   1 H                                       1.0920562
  2902   6 C     3243   1 H                                       1.0932243
  2902   6 C     3244   1 H                                       1.0937242
  2901   6 C     3245   1 H                                       1.0934510
  2901   6 C     3246   1 H                                       1.0920981
  2900   6 C     3247   1 H                                       1.0919328
  2900   6 C     3248   1 H                                       1.0921163
  2899   6 C     3249   1 H                                       1.0931487
  2899   6 C     3250   1 H                                       1.0928807
  2898   6 C     3251   1 H                                       1.0925437
  2898   6 C     3252   1 H                                       1.0935435
  2897   6 C     3253   1 H                                       1.0886741
  2897   6 C     3254   1 H                                       1.0868991
  2897   6 C     3255   1 H                                       1.0874333
  3016   6 C     3256   1 H                                       1.0879575
  3016   6 C     3257   1 H                                       1.0881521
  3016   6 C     3258   1 H                                       1.0882049

 * 2 distinct bonds (by element types)

   Z      Z             #   av. dist./Å        max./Å        min./Å
   1 H    6 C        2178     1.0925710     1.0948078     1.0863749
   6 C    6 C        1071     1.5272714     1.5326126     1.5217727


optimized geometry written to: xtbopt.xyz


           -------------------------------------------------
          | TOTAL ENERGY            -3427.528128685573 Eh   |
          | GRADIENT NORM               0.000667630155 Eh/α |
          | HOMO-LUMO GAP              11.308819353832 eV   |
           -------------------------------------------------

------------------------------------------------------------------------
 * finished run on 2024/06/20 at 19:29:02.116     
------------------------------------------------------------------------
 total:
 * wall-time:     3 d,  4 h, 11 min, 26.155 sec
 *  cpu-time:    17 d,  3 h, 48 min, 17.076 sec
 * ratio c/w:     5.405 speedup
 SCF:
 * wall-time:     0 d,  0 h,  6 min, 39.828 sec
 *  cpu-time:     0 d,  0 h, 35 min, 34.380 sec
 * ratio c/w:     5.338 speedup
 ANC optimizer:
 * wall-time:     3 d,  4 h,  4 min,  4.985 sec
 *  cpu-time:    17 d,  3 h, 11 min, 46.128 sec
 * ratio c/w:     5.406 speedup

