3258
 energy: -3427.524825984591 gnorm: 0.000823669385 xtb: 6.6.1 (8d0f1dd)
C           98.00651549689930      109.27188912451376      100.46256418434130
C           97.94460656841531      109.07596876462013      101.97229415084011
C           97.47791968239763      107.67247709026566      102.35196707443100
C           97.40091678183846      107.49399875985682      103.86521019373816
C           97.01794066778767      106.07510035807196      104.27573624754821
C           96.87469969650461      105.93898809693482      105.78991021311722
C           96.67517187881512      104.48782366051611      106.22032934658003
C           96.67429127633721      104.30255757571564      107.73825318804484
C           95.39712517279027      104.79865240213822      108.41286689376477
C           95.42528459028362      104.54391764406122      109.91907406027603
C           94.06281526845197      104.71458551578026      110.59074837895102
C           93.52570052378515      106.14632530346464      110.62057488453193
C           94.32345497823357      107.06924197016220      111.53950230736355
C           93.61255883649501      108.40213054382578      111.76547010662726
C           94.28754336678632      109.27220215575423      112.82667566786236
C           95.60066795656051      109.89362182583089      112.36060731244052
C           96.27038087474989      110.70333062961232      113.46687334525973
C           97.56753355157180      111.37887764484637      113.01955375234719
C           97.32011713760295      112.60035727144597      112.13991478901153
C           98.58216805715418      113.40616962288567      111.83321637335949
C           99.53142783682094      112.71455897787656      110.85807703791606
C          100.65463380000223      113.64392311267868      110.40307413067292
C          101.55342878838732      112.99042157889816      109.35708817503442
C          102.60480538760181      113.92852090090298      108.76393831041945
C          102.01443733038494      115.01258740918689      107.86224628672603
C          103.10409734418157      115.75621846495261      107.09408176981060
C          102.57075487215982      116.76170321516206      106.07315066063767
C          101.82924879140202      117.94094070952558      106.70201490839121
C          101.55452098542534      119.07256012492917      105.70763455006706
C          102.81469978132694      119.85795824924119      105.34934340737205
C          102.54459294614351      121.14336010312056      104.56644147711346
C          101.86111329077046      120.95136640115255      103.21230487287706
C          102.66269414739760      120.09522363101695      102.23445797208723
C          102.01895403707839      120.08660721656339      100.84968497118777
C          102.78697940898671      119.25274961651584       99.82271224853817
C          102.82140621132642      117.75142691111344      100.11054693676668
C          101.45047938054456      117.08189894876774      100.04310798635997
C          101.52283048255239      115.56182529659746      100.20145963788363
C          101.86547278544464      115.11561538253680      101.62138251276546
C          101.90632874634231      113.59453706405893      101.74314278601665
C          102.26056539461106      113.13563996222179      103.15573957303656
C          102.37073506471340      111.61592599934335      103.24451090015774
C          102.76234413349668      111.11124597608706      104.63296600721915
C          101.73478985634564      111.38188435834986      105.73278783054965
C          100.37864942126259      110.72217166953610      105.48529991602202
C           99.47917184907226      110.79067935766894      106.71835551617121
C           98.17622713248197      110.02090229966291      106.51926736850379
C           97.21884986913619      110.09579304157100      107.71073081732879
C           97.79010063060659      109.56932868643652      109.02854376990264
C           98.16796144301884      108.09124675090500      108.98570277682876
C           98.69557797302650      107.56110462213213      110.32087568711923
C           99.92275986411326      108.29462943328141      110.86491657942291
C          101.14784098241155      108.22783891732894      109.95706534867544
C          102.30428726038406      109.05817027378312      110.50866965258570
C          103.54066228529823      108.99671517529809      109.61601005557831
C          104.67502615371261      109.89173562003765      110.11120508359464
C          105.94084993067644      109.71404422092091      109.27618988184794
C          107.10338271579964      110.57801283239718      109.75932768748578
C          108.38737111686557      110.26980815668989      108.99176084747491
C          109.58908704671821      111.05987104766962      109.50389464528128
C          110.88480306490332      110.65131961117477      108.80421852802806
C          112.10274353262650      111.35414119985576      109.40054587821611
C          113.43990437652148      110.80883668971309      108.89606213943115
C          113.73922174505979      111.15535133908330      107.44087844385884
C          115.14239654281207      110.71883934753484      107.02603991240622
C          115.45299618349034      110.95427140341359      105.54588957451773
C          115.36983950442462      112.42363569522360      105.14311295508337
C          115.87494735398495      112.70321007288427      103.72599143168964
C          117.39420968777357      112.82306407499645      103.62462391382240
C          117.83882749460494      113.18222635628952      102.20500992642698
C          119.24362969131494      113.78202309429582      102.13769679682747
C          120.35123075067055      112.82069229073707      102.55840102367189
C          121.72314837304783      113.49133925379877      102.54798854667308
C          122.82279365395780      112.57949491060282      103.08791843250543
C          124.20522000665324      113.20814047484973      102.92619445202465
C          125.34551077294047      112.31220467500920      103.41376246498828
C          125.50548487644149      112.29482149670189      104.93167246075051
C          126.63863399900174      111.36719910041468      105.36666941049876
C          126.91612930051201      111.45316434297540      106.86532675806326
C          127.93793659430482      110.41108336390954      107.31824545321059
C          128.30085007770779      110.53135211666017      108.79979330193123
C          127.15531361038646      110.12202373101660      109.72263064706091
C          127.47587610525788      110.26348562012453      111.21204641821436
C          127.88625117832876      111.67119796817460      111.65168936010107
C          126.87530725066492      112.75061203813873      111.27274080622321
C          127.30998770108479      114.12930110532386      111.76565495990403
C          126.39162206180562      115.25783258090370      111.29434043309165
C          126.45930747474020      115.49497558487244      109.78661700858601
C          125.65737100064605      116.72362873079318      109.36473152099943
C          125.63287713684879      116.93946442224524      107.84957872220859
C          124.83227973015325      115.89022791609594      107.07462507201245
C          123.32464098148517      116.01070526797827      107.28457790106235
C          122.56534323570298      114.81536443827616      106.71436770133637
C          121.06143791860744      114.95072125102597      106.93813264863314
C          120.25786596502640      113.72504413081258      106.50587735418301
C          120.50759443435392      112.50477720846753      107.38924996333006
C          119.50430203429219      111.37897180867763      107.14140398168320
C          119.58267379580434      110.31464054370714      108.23360761415405
C          118.67085761796002      109.11996712795947      107.96613674363330
C          118.57729844255259      108.18923817563839      109.17382900399330
C          117.58617538997491      107.04896948459125      108.95273080382339
C          117.30860439207279      106.26974871995313      110.23481202238075
C          116.45919239490603      105.01382467681509      110.03376038037456
C          115.07767178782596      105.27254233303843      109.43489967261985
C          114.16070452814066      104.05649335393775      109.57061595439376
C          112.84500138842934      104.23049580721015      108.81609303986575
C          111.85497811160685      103.09569422345147      109.06744062213809
C          110.57622194741775      103.26889145546924      108.25026328108203
C          109.56966144459200      102.14780645254281      108.49754699958436
C          108.21828043673588      102.37887854652121      107.81870922299596
C          108.29444772132490      102.40285083320389      106.29503273378845
C          106.92000480567010      102.52225811137809      105.64110619626696
C          107.02792198708050      102.48651508105539      104.11873676853885
C          105.68296442091115      102.55733966220319      103.39592503989581
C          104.99888890601031      103.91686456342916      103.51423865716519
C          103.79840065985911      104.04184955692173      102.57761575631326
C          103.23216943058118      105.45883077555185      102.56731320156462
C          102.05875466061694      105.60537984081249      101.60267615581706
C          101.40324699996201      106.98644552408489      101.65013537187306
C          102.32101699130715      108.11179819081029      101.18795982944134
H          100.51724476584072      106.97039648404152      101.00986963908429
H          101.06575795342981      107.19365465315545      102.66880353628440
H          102.40153355005684      105.40667113659724      100.58330739599739
H          101.30425050607015      104.85087510956056      101.84397232640990
H          102.90690871144146      105.72145831037309      103.57450924042847
H          104.02437323779996      106.15087638961428      102.27870187639398
H          104.10021635584835      103.77206834588779      101.56132483036659
H          103.02061311626457      103.33766815045151      102.88408904900552
H          104.66869842917413      104.07982893861113      104.54147023436796
H          105.72364080362971      104.69953515906099      103.27443230726995
H          105.85429856341979      102.34811236674302      102.33567704850341
H          105.01784313420892      101.77898416026225      103.77762341861386
H          107.65661192356654      103.31540040779028      103.78286151383344
H          107.53012124098836      101.55988172444671      103.82647139701334
H          106.28164749343875      101.70241637138196      105.97710237308280
H          106.45252503449532      103.45725242221260      105.95744982777323
H          108.90568188868897      103.24774408332532      105.97206584256676
H          108.77936752084469      101.48947387433415      105.94416699305491
H          107.53502138415152      101.58044623262754      108.12406078207481
H          107.79631431766515      103.32219220892604      108.16992804981919
H          109.99228753698956      101.20001089971508      108.15427534942276
H          109.40161247902817      102.05896771155912      109.57522569443370
H          110.11592340261134      104.22656711299605      108.50199910878234
H          110.84051638144646      103.29433490860312      107.19090643282998
H          112.32092632444581      102.14041272555865      108.80935140861037
H          111.60348049980371      103.06288549194340      110.13135120636311
H          112.38368457892187      105.17617754316323      109.10644785669379
H          113.05500709780247      104.28238387077218      107.74634143002027
H          114.67557588259308      103.17174872605217      109.18596078042017
H          113.95071316589198      103.88519865176849      110.63026815170306
H          114.61666827148473      106.12575098875914      109.93624433249293
H          115.18440215743361      105.51954746195638      108.37826798592167
H          116.99448784448906      104.31306719862231      109.38664777257895
H          116.33491882073672      104.53639543398161      111.00950659144213
H          118.26156496368436      105.97432145219932      110.68330773359145
H          116.80337638917727      106.93067333443712      110.94079325903381
H          116.64886348694475      107.46768508734475      108.57969547522235
H          117.98240133877879      106.37402529043179      108.19024687448002
H          119.56362948994121      107.77408282490721      109.39888382435454
H          118.26175658363923      108.77264056387848      110.04176356806745
H          117.67102594988042      109.48597206111543      107.72374690047452
H          119.03458209728736      108.56419856249254      107.09772490747039
H          120.61596735428320      109.97698295041329      108.33019167957045
H          119.29979898291818      110.76536173713136      109.18912388826320
H          118.49283050031127      111.79261506686638      107.11616161232217
H          119.69603785505132      110.92143273027550      106.16789194235174
H          121.51756222205138      112.12188650548963      107.22582714644639
H          120.44215335512845      112.81534967540030      108.43471004420013
H          119.19562934897746      113.97810399711047      106.55827829285040
H          120.49106031745983      113.48726765277435      105.46693933952466
H          120.87336520468313      115.14093365508732      107.99877042136376
H          120.70525676237835      115.82161189500357      106.38194027910781
H          122.76987804001837      114.72354770323442      105.64489318478043
H          122.93069630867438      113.90815199934022      107.19932207483859
H          123.10844204748602      116.07958093950424      108.35225901298593
H          122.96676825600991      116.93283926613056      106.81906855898313
H          125.05091289281805      115.99810100508651      106.00849700912781
H          125.15722684569732      114.89074649379251      107.36952689345453
H          125.20843339875175      117.92512737028895      107.64055242103124
H          126.66295050368058      116.94198108905438      107.48251137937191
H          124.63708140830020      116.63469311974430      109.74197489218329
H          126.09962999124768      117.60585043906352      109.83220709224285
H          127.50280530880667      115.62715797603545      109.48808863610122
H          126.07459572617815      114.61659661090366      109.26862635237121
H          125.36136554682153      115.02790779423434      111.57738529478421
H          126.67615900778924      116.17922788118162      111.80962234036912
H          127.33449751834026      114.12466571675678      112.85795682173793
H          128.32644551106523      114.33080797289377      111.41631587018962
H          126.77410818791394      112.77655266636259      110.18864945395033
H          125.89888278676479      112.50341416747412      111.69598141425521
H          128.01542480335721      111.66692268211766      112.73707978497401
H          128.85577013246308      111.92139676889420      111.21529027732980
H          126.59143759136826      109.96204255326526      111.77995294356046
H          128.28307103519447      109.57328828877276      111.47272923515912
H          126.27107220027069      110.71599769193702      109.49454914664301
H          126.90578218167308      109.07614158852631      109.52289047022319
H          129.16685927606500      109.89736278645114      109.00900436628689
H          128.59217300500634      111.56329461427951      109.00156769972243
H          127.54563381294483      109.41031143497950      107.11936650889115
H          128.84673219548040      110.53071431945015      106.72201847339929
H          127.28843035223672      112.45265714197373      107.10596380239909
H          125.97973075844666      111.30696645973796      107.40440527345640
H          126.37943477453297      110.33715814858697      105.10898500486488
H          127.54833376019658      111.62239020320619      104.81620128246027
H          125.71286193451155      113.30921068799881      105.28146855874962
H          124.57511236808155      111.96598437914274      105.39734962328608
H          125.17752867775900      111.29173870108860      103.06007749061929
H          126.28349755464670      112.65990324809367      102.97160357243619
H          124.36186526581774      113.42962705578947      101.86632863333547
H          124.24121379422532      114.15973679533103      103.46311021964947
H          122.63343777833163      112.36819595549264      104.14201523092950
H          122.79753293321001      111.62960236783782      102.54890969992346
H          121.97239707894779      113.78483176351041      101.52553259671016
H          121.68511558451587      114.40472872284037      103.14885266950317
H          120.14308408677056      112.45095524044122      103.56409183111947
H          120.36562387209341      111.96181501749290      101.88302839037303
H          119.43375590155908      114.11704251947212      101.11358065990377
H          119.27850110743482      114.66589294337597      102.78102139699716
H          117.78750603689127      112.29697440561596      101.56602114994890
H          117.14151747177436      113.91826836466859      101.79529157523937
H          117.72917354731449      113.60655766554959      104.30934374283689
H          117.86137001429653      111.88829055023110      103.93755469214346
H          115.52312080073200      111.91612011377588      103.05370466856438
H          115.44240279945468      113.64814923953685      103.38521552558866
H          114.32766178508214      112.74117412146944      105.20368751998099
H          115.94325551795275      113.02472212158987      105.85321814847252
H          116.45774255075034      110.57663621978082      105.33994867420328
H          114.75284521170008      110.38307470814316      104.93035403871249
H          115.87547696420982      111.25448354985376      107.63596729888266
H          115.25307516343125      109.65154369675803      107.23852584436034
H          113.01082576572021      110.66481220235372      106.79236968529280
H          113.64036037672604      112.23436322434384      107.31066029299356
H          114.23916109462048      111.21711767218700      109.52015456044617
H          113.44896920005012      109.72321206363881      109.01546692548398
H          112.04279541792928      112.42549868381315      109.19539410196185
H          112.07218018523669      111.23146378309514      110.48730090939502
H          111.01388931585336      109.57016477221563      108.90103889381326
H          110.80475213166547      110.88170676542100      107.73998487672256
H          109.41634792352792      112.12932975447286      109.35924605663521
H          109.69277129470458      110.89071884063154      110.57936490902482
H          108.60418685103066      109.20188079427024      109.07944318031173
H          108.23410892266256      110.48300771242388      107.93060296404809
H          106.84914251267739      111.63426206408199      109.64029194487109
H          107.26750835418477      110.39665880947754      110.82452572671200
H          106.24241125970458      108.66381290998848      109.31210075951995
H          105.72411992106703      109.95238816771121      108.23157670730245
H          104.35728315549771      110.93739844925210      110.07287481247582
H          104.89419946712701      109.65078213121726      111.15390593842002
H          103.89532570758210      107.96368315209831      109.57058259837251
H          103.26861959343334      109.29106463314507      108.59878370890688
H          101.97795170392861      110.09779568205967      110.60169271830020
H          102.56185559053151      108.70237451632228      111.50816883531897
H          101.46292901212419      107.18652028515379      109.85151560099490
H          100.89507731452829      108.59811067375661      108.96229576900616
H           99.66700410772744      109.34122121565252      111.04383890247884
H          100.18073148984712      107.85346993508450      111.83087641540662
H           97.89965363872486      107.62723616080574      111.06909069697821
H           98.93938855397562      106.50140161048454      110.20254551722923
H           97.28738520142826      107.50711833117954      108.70435841641790
H           98.92427026958813      107.92811364834522      108.21923498544422
H           98.66305196187693      110.16372783572855      109.29413683625812
H           97.04200348064296      109.72043583805645      109.81008626162789
H           96.92019285976792      111.13829496555530      107.85691449429977
H           96.31611893553914      109.53042726679024      107.46145521795358
H           97.66197426118465      110.41786777236592      105.63926288895087
H           98.40616636430660      108.97589008095629      106.30899257830578
H          100.02214633765432      110.37438204807408      107.56879369554170
H           99.25065355968898      111.83557264033048      106.94648312674684
H           99.87332708279644      111.20641371007119      104.64702416428176
H          100.53370817710575      109.67464196155126      105.21565098831461
H          102.14178421856344      111.00071951591563      106.67395237232557
H          101.59977268089058      112.45750126431609      105.85686120797058
H          102.93307398658027      110.03337732096681      104.57221603363517
H          103.70789970417950      111.57900607345302      104.91912021441161
H          101.42287575464749      111.16595437893521      102.94250574446255
H          103.12896034969756      111.27914101714667      102.53159508211225
H          103.21153827951191      113.58388478668988      103.45623719831129
H          101.49490702323308      113.49410565905123      103.84614255457160
H          100.93308746327129      113.18133930874789      101.46351523089096
H          102.64168996428705      113.19975317667486      101.03761780149183
H          102.83701710533163      115.51798419571395      101.91028553176453
H          101.11977703971104      115.51525243610629      102.31392493765627
H          100.55583564734695      115.13243174565002       99.92450746014555
H          102.26740313206398      115.16243544071985       99.50785659918354
H          100.79988188665936      117.48499567135981      100.82139026455202
H          100.99432354183627      117.31530968593503       99.07702131779696
H          103.47439858226845      117.28158899383376       99.36962678230265
H          103.26248019809928      117.58369885318166      101.09258676639780
H          102.33657309893155      119.41045983867986       98.83876821608017
H          103.81609083068361      119.61851281538016       99.77611285103552
H          100.99330020416470      119.72064508453616      100.92902530102768
H          101.96467767624989      121.11567931595505      100.48295589070108
H          103.68022569116080      120.48717454243591      102.15447795916516
H          102.72063612417439      119.07561220212710      102.61509711063601
H          100.87502795637832      120.50515116264566      103.35834132735438
H          101.70470969831628      121.93919927827493      102.76871194557275
H          101.91829153674979      121.80397124858156      105.17304219417389
H          103.49760002639368      121.65588115960908      104.40503322340662
H          103.32737260911671      120.13250601644324      106.27522634351965
H          103.49183813019327      119.22589919816512      104.77657227713075
H          101.10519841348899      118.65322181711230      104.80504657826289
H          100.82715592439020      119.76069664038978      106.14768498238604
H          100.87788450861318      117.59039339828601      107.10862236418134
H          102.41626399414557      118.33618524419524      107.53446001051601
H          103.41914717335052      117.14209825973045      105.50086076911874
H          101.90747556212239      116.24975652037939      105.37041163395968
H          103.75373205916107      116.27537506256334      107.80267754291222
H          103.71710580233267      115.02175604229609      106.56429476264768
H          101.32670938704221      114.54988361651269      107.14881353024415
H          101.44356866558689      115.72165855030266      108.46250336039012
H          103.17677896200543      114.39631416222298      109.56927202160257
H          103.30100092584159      113.32832564159055      108.17122144142455
H          102.06368448216899      112.14063564151675      109.81719503786925
H          100.93436339090762      112.60010922191765      108.54668863163006
H          100.21017609905928      114.55128126850380      109.98816905484175
H          101.25753500538464      113.93032988836217      111.26829203700676
H           99.96211412706522      111.82778929813472      111.32751686111226
H           98.96300473021348      112.39038734926811      109.98249273317761
H           98.28059292211586      114.36421150977790      111.39869646538831
H           99.11038557141573      113.61996335970025      112.76605635592195
H           96.85422048054721      112.29911642564419      111.19955243623855
H           96.61503624529617      113.25251724755807      112.66091909409536
H           98.12075037369287      111.70082033343573      113.90475938734056
H           98.18502717064402      110.65271888669827      112.48983098521693
H           95.57333287907574      111.46257319918723      113.83045370821326
H           96.48348036160085      110.03057524211540      114.30068749052514
H           96.28551098386811      109.10594026872029      112.04215295960169
H           95.39889435885036      110.53602124260628      111.50085426202644
H           93.60276769968827      110.07788617275284      113.10473468173100
H           94.46690921727937      108.66824186306422      113.72016668316165
H           93.55566343872358      108.95356320558002      110.82353846998464
H           92.58716919839360      108.19684866071364      112.08627626079908
H           94.45652380508670      106.57677417446142      112.50630326295415
H           95.31119453334678      107.24498890752263      111.11302477630612
H           93.50600228349877      106.55905243245697      109.61034375704692
H           92.49162985850154      106.11167212867139      110.97601023349854
H           93.33932648540653      104.08010314316327      110.07130874585356
H           94.13284431932449      104.35082055066536      111.61938774152866
H           95.75393549186096      103.51599522127822      110.09067303341888
H           96.15911223874299      105.20038073629104      110.38851041442670
H           95.26990887595815      105.86473100234771      108.22073945761379
H           94.54009555026364      104.27840656666783      107.97618623341762
H           96.79072721750269      103.23844166021635      107.96080755459876
H           97.53542945405211      104.82285152931367      108.16386748177605
H           95.73818913248961      104.10617699641782      105.80625229128299
H           97.48625200099887      103.88854042134344      105.79745564983550
H           97.77611781036302      106.32510192062507      106.26931720162607
H           96.03413578615813      106.54865388692937      106.12717240730811
H           96.07796858430666      105.79560947696824      103.79313961703214
H           97.78654845634205      105.38350354907634      103.92511918108735
H           98.37430324695640      107.73801311646899      104.29644387888402
H           96.67311184218534      108.19926896705812      104.27425667502773
H           96.49624799582493      107.48310307669895      101.91066094698330
H           98.17270265996849      106.93890986645243      101.93591097130839
H           98.93386900272407      109.25146556897069      102.40159180374621
H           97.26153763917941      109.81108856915888      102.40533271973570
H           98.33873720454706      110.27850241416488      100.21844428771939
H           98.70066134437164      108.56457005478708      100.01379513350452
H           97.02624575694558      109.11713262828756      100.01664264892953
H          101.77578913950893      109.05260909865359      101.15257376218361
H          103.16209291394348      108.23485528143037      101.86536867967691
H          102.70591175554321      107.90360981533964      100.19119661759152
C          109.95851618686636      112.91671817436115      123.12499926561676
C          109.18195526551102      114.14081182990188      122.65357772251588
C          108.84110089564928      114.04779389689467      121.16947852723739
C          108.09322831854574      115.27244487179861      120.64784741082296
C          107.83641702559433      115.16292632847828      119.14776751991880
C          107.13103022560709      116.37510229638497      118.54412703069852
C          107.02259748560867      116.23718893563154      117.02728529736778
C          106.38194602299635      117.43581234680026      116.33297139871803
C          106.45837672652117      117.28005587592364      114.81478165458297
C          105.89082711407724      118.47842037061152      114.05887738725939
C          105.88280180614547      118.28023796253778      112.54195663906941
C          107.26699923922968      118.34054096507741      111.90281062960294
C          107.22882707126510      118.19000815381011      110.37938377327661
C          106.80818367595305      116.79027497565706      109.93542871100735
C          107.04370083179904      116.52148448798857      108.45027010889744
C          106.85785162239236      115.03957543219200      108.13112047761629
C          107.00410052627473      114.72083840046656      106.64595032590596
C          106.93588654208398      113.21746335911300      106.39001325442860
C          106.96929086524477      112.86475659676184      104.90521246638154
C          106.97456043332193      111.35461937939898      104.68656201895514
C          106.88667171353887      110.96256655664017      103.21386444861938