      -----------------------------------------------------------      
     |                   =====================                   |     
     |                           x T B                           |     
     |                   =====================                   |     
     |                         S. Grimme                         |     
     |          Mulliken Center for Theoretical Chemistry        |     
     |                    University of Bonn                     |     
      -----------------------------------------------------------      

   * xtb version 6.6.1 (8d0f1dd) compiled by 'stahn@M-Bot' on 2023-08-01

   xtb is free software: you can redistribute it and/or modify it under
   the terms of the GNU Lesser General Public License as published by
   the Free Software Foundation, either version 3 of the License, or
   (at your option) any later version.
   
   xtb is distributed in the hope that it will be useful,
   but WITHOUT ANY WARRANTY; without even the implied warranty of
   MERCHANTABILITY or FITNESS FOR A PARTICULAR PURPOSE.  See the
   GNU Lesser General Public License for more details.
   
   Cite this work as:
   * C. Bannwarth, E. Caldeweyher, S. Ehlert, A. Hansen, P. Pracht,
     J. Seibert, S. Spicher, S. Grimme, WIREs Comput. Mol. Sci., 2020, 11,
     e01493. DOI: 10.1002/wcms.1493
   
   for GFN2-xTB:
   * C. Bannwarth, S. Ehlert and S. Grimme., J. Chem. Theory Comput., 2019,
     15, 1652-1671. DOI: 10.1021/acs.jctc.8b01176
   for GFN1-xTB:
   * S. Grimme, C. Bannwarth, P. Shushkov, J. Chem. Theory Comput., 2017,
     13, 1989-2009. DOI: 10.1021/acs.jctc.7b00118
   for GFN0-xTB:
   * P. Pracht, E. Caldeweyher, S. Ehlert, S. Grimme, ChemRxiv, 2019, preprint.
     DOI: 10.26434/chemrxiv.8326202.v1
   for GFN-FF:
   * S. Spicher and S. Grimme, Angew. Chem. Int. Ed., 2020, 59, 15665-15673.
     DOI: 10.1002/anie.202004239
   
   for ALPB and GBSA implicit solvation:
   * S. Ehlert, M. Stahn, S. Spicher, S. Grimme, J. Chem. Theory Comput.,
     2021, 17, 4250-4261. DOI: 10.1021/acs.jctc.1c00471
   
   for DFT-D4:
   * E. Caldeweyher, C. Bannwarth and S. Grimme, J. Chem. Phys., 2017,
     147, 034112. DOI: 10.1063/1.4993215
   * E. Caldeweyher, S. Ehlert, A. Hansen, H. Neugebauer, S. Spicher,
     C. Bannwarth and S. Grimme, J. Chem. Phys., 2019, 150, 154122.
     DOI: 10.1063/1.5090222
   * E. Caldeweyher, J.-M. Mewes, S. Ehlert and S. Grimme, Phys. Chem. Chem. Phys.
     2020, 22, 8499-8512. DOI: 10.1039/D0CP00502A
   
   for sTDA-xTB:
   * S. Grimme and C. Bannwarth, J. Chem. Phys., 2016, 145, 054103.
     DOI: 10.1063/1.4959605
   
   in the mass-spec context:
   * V. Asgeirsson, C. Bauer and S. Grimme, Chem. Sci., 2017, 8, 4879.
     DOI: 10.1039/c7sc00601b
   * J. Koopman and S. Grimme, ACS Omega 2019, 4, 12, 15120-15133.
     DOI: 10.1021/acsomega.9b02011
   
   for metadynamics refer to:
   * S. Grimme, J. Chem. Theory Comput., 2019, 155, 2847-2862
     DOI: 10.1021/acs.jctc.9b00143
   
   for SPH calculations refer to:
   * S. Spicher and S. Grimme, J. Chem. Theory Comput., 2021, 17, 1701-1714
     DOI: 10.1021/acs.jctc.0c01306
   
   with help from (in alphabetical order)
   P. Atkinson, C. Bannwarth, F. Bohle, G. Brandenburg, E. Caldeweyher
   M. Checinski, S. Dohm, S. Ehlert, S. Ehrlich, I. Gerasimov, C. Hölzer
   A. Katbashev, J. Koopman, C. Lavigne, S. Lehtola, F. März, M. Müller,
   F. Musil, H. Neugebauer, J. Pisarek, C. Plett, P. Pracht, F. Pultar,
   J. Seibert, P. Shushkov, S. Spicher, M. Stahn, M. Steiner, T. Strunk,
   J. Stückrath, T. Rose, and J. Unsleber
   
 * started run on 2024/10/03 at 21:21:12.629     

           -------------------------------------------------
          |                Calculation Setup                |
           -------------------------------------------------

          program call               : /home/abt-grimme/AK-bin/xtb input.xyz --input input.inp --opt
          hostname                   : boar037.thch.uni-bonn.de
          coordinate file            : input.xyz
          omp threads                :                     8

   ID    Z sym.   atoms
    1    6 C      1-120, 363-482, 725-844, 1087-1206, 1449-1568, 1811-1930,
                  2173-2292, 2535-2654, 2897-3016
    2    1 H      121-362, 483-724, 845-1086, 1207-1448, 1569-1810,
                  1931-2172, 2293-2534, 2655-2896, 3017-3258

molecular fragmentation (1/2 indicates fragments):
111111111111111111111111111111111111111111111111111111111111111111111111
111111111111111111111111111111111111111111111111111111111111111111111111
111111111111111111111111111111111111111111111111111111111111111111111111
111111111111111111111111111111111111111111111111111111111111111111111111
111111111111111111111111111111111111111111111111111111111111111111111111
112222222222222222222222222222222222222222222222222222222222222222222222
222222222222222222222222222222222222222222222222222222222222222222222222
222222222222222222222222222222222222222222222222222222222222222222222222
222222222222222222222222222222222222222222222222222222222222222222222222
222222222222222222222222222222222222222222222222222222222222222222222222
222222222222222222222222222222222222222222222222222222222222222222222222
222222222222222222222222222222222222222222222222222222222222222222222222
222222222222222222222222222222222222222222222222222222222222222222222222
222222222222222222222222222222222222222222222222222222222222222222222222
222222222222222222222222222222222222222222222222222222222222222222222222
222222222222222222222222222222222222222222222222222222222222222222222222
222222222222222222222222222222222222222222222222222222222222222222222222
222222222222222222222222222222222222222222222222222222222222222222222222
222222222222222222222222222222222222222222222222222222222222222222222222
222222222222222222222222222222222222222222222222222222222222222222222222
222222222222222222222222222222222222222222222222222222222222222222222222
222222222222222222222222222222222222222222222222222222222222222222222222
222222222222222222222222222222222222222222222222222222222222222222222222
222222222222222222222222222222222222222222222222222222222222222222222222
222222222222222222222222222222222222222222222222222222222222222222222222
222222222222222222222222222222222222222222222222222222222222222222222222
222222222222222222222222222222222222222222222222222222222222222222222222
222222222222222222222222222222222222222222222222222222222222222222222222
222222222222222222222222222222222222222222222222222222222222222222222222
222222222222222222222222222222222222222222222222222222222222222222222222
222222222222222222222222222222222222222222222222222222222222222222222222
222222222222222222222222222222222222222222222222222222222222222222222222
222222222222222222222222222222222222222222222222222222222222222222222222
222222222222222222222222222222222222222222222222222222222222222222222222
222222222222222222222222222222222222222222222222222222222222222222222222
222222222222222222222222222222222222222222222222222222222222222222222222
222222222222222222222222222222222222222222222222222222222222222222222222
222222222222222222222222222222222222222222222222222222222222222222222222
222222222222222222222222222222222222222222222222222222222222222222222222
222222222222222222222222222222222222222222222222222222222222222222222222
222222222222222222222222222222222222222222222222222222222222222222222222
222222222222222222222222222222222222222222222222222222222222222222222222
222222222222222222222222222222222222222222222222222222222222222222222222
222222222222222222222222222222222222222222222222222222222222222222222222
222222222222222222222222222222222222222222222222222222222222222222222222
222222222222222222
# atoms in fragment 1/2:   362  2896
 fragment masses (1/2) :     1685.21    13481.68
CMA distance (Bohr)    :  10.776
constraining FC (au)   :  0.0500

           -------------------------------------------------
          |                 G F N 2 - x T B                 |
           -------------------------------------------------

        Reference                      10.1021/acs.jctc.8b01176
      * Hamiltonian:
        H0-scaling (s, p, d)           1.850000    2.230000    2.230000
        zeta-weighting                 0.500000
      * Dispersion:
        s8                             2.700000
        a1                             0.520000
        a2                             5.000000
        s9                             5.000000
      * Repulsion:
        kExp                           1.500000    1.000000
        rExp                           1.000000
      * Coulomb:
        alpha                          2.000000
        third order                    shell-resolved
        anisotropic                    true
        a3                             3.000000
        a5                             4.000000
        cn-shift                       1.200000
        cn-exp                         4.000000
        max-rad                        5.000000


          ...................................................
          :                      SETUP                      :
          :.................................................:
          :  # basis functions                6498          :
          :  # atomic orbitals                6498          :
          :  # shells                         4338          :
          :  # electrons                      6498          :
          :  max. iterations                   250          :
          :  Hamiltonian                  GFN2-xTB          :
          :  restarted?                      false          :
          :  GBSA solvation                  false          :
          :  PC potential                    false          :
          :  electronic temp.          300.0000000     K    :
          :  accuracy                    1.0000000          :
          :  -> integral cutoff          0.2500000E+02      :
          :  -> integral neglect         0.1000000E-07      :
          :  -> SCF convergence          0.1000000E-05 Eh   :
          :  -> wf. convergence          0.1000000E-03 e    :
          :  Broyden damping             0.4000000          :
          ...................................................

 iter      E             dE          RMSdq      gap      omega  full diag
   1  -3473.4853281 -0.347349E+04  0.244E+00   11.36       0.0  T
   2  -3478.5595113 -0.507418E+01  0.135E+00   11.53       1.0  T
   3  -3478.7646533 -0.205142E+00  0.596E-01   11.50       1.0  T
   4  -3478.7852020 -0.205487E-01  0.751E-02   11.54       1.0  T
   5  -3478.7860404 -0.838428E-03  0.384E-02   11.53       1.0  T
   6  -3478.7862416 -0.201204E-03  0.657E-03   11.53       1.0  T
   7  -3478.7862590 -0.173704E-04  0.123E-03   11.53       1.4  T
   8  -3478.7862600 -0.102945E-05  0.382E-04   11.53       4.6  T
   9  -3478.7862601 -0.639702E-07  0.144E-04   11.53      12.2  T
  10  -3478.7862601 -0.380487E-08  0.423E-05   11.53      41.4  T

   *** convergence criteria satisfied after 10 iterations ***

         #    Occupation            Energy/Eh            Energy/eV
      -------------------------------------------------------------
         1        2.0000           -0.6251254             -17.0105
       ...           ...                  ...                  ...
      3243        2.0000           -0.4022997             -10.9471
      3244        2.0000           -0.4022437             -10.9456
      3245        2.0000           -0.4022114             -10.9447
      3246        2.0000           -0.4022025             -10.9445
      3247        2.0000           -0.4020286             -10.9398
      3248        2.0000           -0.4019172             -10.9367
      3249        2.0000           -0.4017451             -10.9320 (HOMO)
      3250                          0.0219594               0.5975 (LUMO)
      3251                          0.0227816               0.6199
      3252                          0.0229448               0.6244
      3253                          0.0233349               0.6350
      3254                          0.0235516               0.6409
       ...                                ...                  ...
      6498                          0.3859661              10.5027
      -------------------------------------------------------------
                  HL-Gap            0.4237045 Eh           11.5296 eV
             Fermi-level           -0.1898929 Eh           -5.1672 eV

 SCC (total)                   0 d,  0 h, 14 min, 17.277 sec
 SCC setup                      ...        0 min,  0.450 sec (  0.053%)
 Dispersion                     ...        0 min,  3.613 sec (  0.421%)
 classical contributions        ...        0 min,  0.151 sec (  0.018%)
 integral evaluation            ...        0 min,  6.301 sec (  0.735%)
 iterations                     ...        9 min, 33.196 sec ( 66.862%)
 molecular gradient             ...        4 min, 25.042 sec ( 30.917%)
 printout                       ...        0 min,  8.523 sec (  0.994%)

         :::::::::::::::::::::::::::::::::::::::::::::::::::::
         ::                     SUMMARY                     ::
         :::::::::::::::::::::::::::::::::::::::::::::::::::::
         :: total energy           -3427.520611473535 Eh    ::
         :: gradient norm              0.018734793202 Eh/a0 ::
         :: HOMO-LUMO gap             11.529586571069 eV    ::
         ::.................................................::
         :: SCC energy             -3478.786260113066 Eh    ::
         :: -> isotropic ES            0.418619730160 Eh    ::
         :: -> anisotropic ES          1.122636799414 Eh    ::
         :: -> anisotropic XC          1.945874781995 Eh    ::
         :: -> dispersion             -4.052399861173 Eh    ::
         :: repulsion energy          50.613301797019 Eh    ::
         :: add. restraining           0.000000000000 Eh    ::
         :: total charge              -0.000000000010 e     ::
         :::::::::::::::::::::::::::::::::::::::::::::::::::::

      ----------------------------------------------------------- 
     |              Fast Inertial Relaxation Engine              |
      ----------------------------------------------------------- 

          ...................................................
          :                      SETUP                      :
          :.................................................:
          :   energy convergence        0.5000000E-05 Eh    :
          :   grad. convergence         0.1000000E-02 Eh/a0 :
          :   optimization log               true           :
          :   writing optlog all                1     steps :
          :   Hessian reset                    20     steps :
          :   time step scaling                 5     steps :
          :   maximium step len.        1.0000000     a0    :
          :   initial time step         0.2500000     fs    :
          :   maximum time step         1.2500000     fs    :
          :   power reset thr           0.0000000     au    :
          :   alpha parameter           0.1000000           :
          :   BFGS update                   false           :
          :   preconditioning               false           :
          ...................................................

........................................................................
.............................. CYCLE    1 ..............................
........................................................................

 iter      E             dE          RMSdq      gap      omega  full diag
   1  -3478.7899156 -0.347879E+04  0.271E-04   11.53       0.0  T
   2  -3478.7899156 -0.293903E-07  0.154E-04   11.53      11.4  T
   3  -3478.7899156 -0.713499E-09  0.498E-05   11.53      35.2  T
     SCC iter.                  ...        2 min, 49.467 sec
     gradient                   ...        4 min, 24.328 sec
 * total energy  : -3427.5206509 Eh     change    :  -0.3947554E-04 Eh
   gradient norm :     0.0172261 Eh/a0  converged?    E=F G=F D=F
   time step     :     0.2500000 fs     power     :   0.2007041E-08
   step length   :     0.0021957 a0     speed     :   0.2124436E-03

........................................................................
.............................. CYCLE    2 ..............................
........................................................................

 iter      E             dE          RMSdq      gap      omega  full diag
   1  -3478.7952356 -0.347880E+04  0.392E-04   11.53       0.0  T
   2  -3478.7952356 -0.616055E-07  0.224E-04   11.53       7.8  T
   3  -3478.7952356 -0.131513E-08  0.721E-05   11.53      24.3  T
     SCC iter.                  ...        2 min, 48.777 sec
     gradient                   ...        4 min, 25.181 sec
 * total energy  : -3427.5207027 Eh     change    :  -0.5170338E-04 Eh
   gradient norm :     0.0150589 Eh/a0  converged?    E=F G=F D=F
   time step     :     0.2500000 fs     power     :   0.2557828E-08
   step length   :     0.0032049 a0     speed     :   0.3100922E-03

........................................................................
.............................. CYCLE    3 ..............................
........................................................................

 iter      E             dE          RMSdq      gap      omega  full diag
   1  -3478.8019865 -0.347880E+04  0.498E-04   11.53       0.0  T
   2  -3478.8019866 -0.990281E-07  0.284E-04   11.53       6.2  T
   3  -3478.8019866 -0.201408E-08  0.913E-05   11.53      19.2  T
     SCC iter.                  ...        2 min, 50.655 sec
     gradient                   ...        4 min, 25.550 sec
 * total energy  : -3427.5207585 Eh     change    :  -0.5586154E-04 Eh
   gradient norm :     0.0123573 Eh/a0  converged?    E=F G=F D=F
   time step     :     0.2500000 fs     power     :   0.2664089E-08
   step length   :     0.0040861 a0     speed     :   0.3953493E-03

........................................................................
.............................. CYCLE    4 ..............................
........................................................................

 iter      E             dE          RMSdq      gap      omega  full diag
   1  -3478.8098668 -0.347881E+04  0.584E-04   11.53       0.0  T
   2  -3478.8098670 -0.134423E-06  0.333E-04   11.53       5.3  T
   3  -3478.8098670 -0.293585E-08  0.106E-04   11.53      16.5  T
     SCC iter.                  ...        2 min, 59.203 sec
     gradient                   ...        4 min, 24.539 sec
 * total energy  : -3427.5208100 Eh     change    :  -0.5151515E-04 Eh
   gradient norm :     0.0093219 Eh/a0  converged?    E=F G=F D=F
   time step     :     0.2500000 fs     power     :   0.2323706E-08
   step length   :     0.0048050 a0     speed     :   0.4649127E-03

........................................................................
.............................. CYCLE    5 ..............................
........................................................................

 iter      E             dE          RMSdq      gap      omega  full diag
   1  -3478.8185037 -0.347882E+04  0.645E-04   11.53       0.0  T
   2  -3478.8185038 -0.160248E-06  0.368E-04   11.53       4.8  T
   3  -3478.8185038 -0.353202E-08  0.115E-04   11.53      15.2  T
     SCC iter.                  ...        2 min, 55.981 sec
     gradient                   ...        4 min, 23.611 sec
 * total energy  : -3427.5208498 Eh     change    :  -0.3977208E-04 Eh
   gradient norm :     0.0063279 Eh/a0  converged?    E=F G=F D=F
   time step     :     0.2500000 fs     power     :   0.1618046E-08
   step length   :     0.0053325 a0     speed     :   0.5159468E-03

........................................................................
.............................. CYCLE    6 ..............................
........................................................................

 iter      E             dE          RMSdq      gap      omega  full diag
   1  -3478.8283443 -0.347883E+04  0.746E-04   11.53       0.0  T
   2  -3478.8283445 -0.205247E-06  0.427E-04   11.53       4.1  T
   3  -3478.8283445 -0.467980E-08  0.129E-04   11.53      13.5  T
     SCC iter.                  ...        2 min, 55.566 sec
     gradient                   ...        4 min, 23.977 sec
 * total energy  : -3427.5208746 Eh     change    :  -0.2475240E-04 Eh
   gradient norm :     0.0042508 Eh/a0  converged?    E=F G=F D=F
   time step     :     0.2750000 fs     power     :   0.6129178E-09
   step length   :     0.0062303 a0     speed     :   0.5480098E-03

........................................................................
.............................. CYCLE    7 ..............................
........................................................................

 iter      E             dE          RMSdq      gap      omega  full diag
   1  -3478.8383462 -0.347884E+04  0.793E-04   11.53       0.0  T
   2  -3478.8383464 -0.205731E-06  0.455E-04   11.53       3.8  T
   3  -3478.8383464 -0.496038E-08  0.126E-04   11.53      13.9  T
     SCC iter.                  ...        2 min, 56.338 sec
     gradient                   ...        4 min, 24.186 sec
 * total energy  : -3427.5208791 Eh     change    :  -0.4540852E-05 Eh
   gradient norm :     0.0052942 Eh/a0  converged?    E=T G=F D=F
   time step     :     0.3025000 fs     power     :  -0.3528547E-09
   step length   :     0.0067376 a0     speed     :   0.5387601E-03

........................................................................
.............................. CYCLE    8 ..............................
........................................................................
 * reset velocities

 iter      E             dE          RMSdq      gap      omega  full diag
   1  -3478.8382243 -0.347884E+04  0.139E-05   11.53       0.0  T
   2  -3478.8382243 -0.463842E-10  0.747E-06   11.53     234.5  T
   3  -3478.8382243 -0.800355E-10  0.334E-06   11.53     524.5  T
     SCC iter.                  ...        2 min, 52.523 sec
     gradient                   ...        4 min, 23.607 sec
 * total energy  : -3427.5208797 Eh     change    :  -0.5989486E-06 Eh
   gradient norm :     0.0052316 Eh/a0  converged?    E=T G=F D=T
   time step     :     0.1512500 fs     power     :   0.5211739E-10
   step length   :     0.0001136 a0     speed     :   0.1816026E-04

........................................................................
.............................. CYCLE    9 ..............................
........................................................................

 iter      E             dE          RMSdq      gap      omega  full diag
   1  -3478.8379823 -0.347884E+04  0.284E-05   11.53       0.0  T
   2  -3478.8379823 -0.173259E-09  0.165E-05   11.53     106.0  T
   3  -3478.8379823 -0.341061E-10  0.392E-06   11.53     446.6  T
     SCC iter.                  ...        2 min, 49.390 sec
     gradient                   ...        4 min, 23.547 sec
 * total energy  : -3427.5208809 Eh     change    :  -0.1179911E-05 Eh
   gradient norm :     0.0051144 Eh/a0  converged?    E=T G=F D=T
   time step     :     0.1512500 fs     power     :   0.1012830E-09
   step length   :     0.0002258 a0     speed     :   0.3610542E-04

........................................................................
.............................. CYCLE   10 ..............................
........................................................................

 iter      E             dE          RMSdq      gap      omega  full diag
   1  -3478.8376257 -0.347884E+04  0.417E-05   11.53       0.0  T
   2  -3478.8376257 -0.453838E-09  0.243E-05   11.53      72.1  T
   3  -3478.8376257  0.318323E-10  0.580E-06   11.53     302.3  T
     SCC iter.                  ...        2 min, 52.707 sec
     gradient                   ...        4 min, 23.830 sec
 * total energy  : -3427.5208826 Eh     change    :  -0.1684507E-05 Eh
   gradient norm :     0.0049436 Eh/a0  converged?    E=T G=F D=T
   time step     :     0.1512500 fs     power     :   0.1454102E-09
   step length   :     0.0003354 a0     speed     :   0.5364676E-04

........................................................................
.............................. CYCLE   11 ..............................
........................................................................

 iter      E             dE          RMSdq      gap      omega  full diag
   1  -3478.8371627 -0.347884E+04  0.547E-05   11.53       0.0  T
   2  -3478.8371627 -0.702130E-09  0.319E-05   11.53      54.9  T
   3  -3478.8371627 -0.354703E-10  0.755E-06   11.53     232.0  T
     SCC iter.                  ...        2 min, 52.875 sec
     gradient                   ...        4 min, 24.144 sec
 * total energy  : -3427.5208847 Eh     change    :  -0.2133592E-05 Eh
   gradient norm :     0.0047245 Eh/a0  converged?    E=T G=F D=T
   time step     :     0.1512500 fs     power     :   0.1827031E-09
   step length   :     0.0004414 a0     speed     :   0.7059619E-04

........................................................................
.............................. CYCLE   12 ..............................
........................................................................

 iter      E             dE          RMSdq      gap      omega  full diag
   1  -3478.8366042 -0.347884E+04  0.670E-05   11.53       0.0  T
   2  -3478.8366042 -0.106957E-08  0.391E-05   11.53      44.8  T
   3  -3478.8366042 -0.509317E-10  0.914E-06   11.53     191.8  T
     SCC iter.                  ...        2 min, 57.428 sec
     gradient                   ...        4 min, 24.859 sec
 * total energy  : -3427.5208872 Eh     change    :  -0.2489195E-05 Eh
   gradient norm :     0.0044643 Eh/a0  converged?    E=T G=F D=T
   time step     :     0.1512500 fs     power     :   0.2118239E-09
   step length   :     0.0005426 a0     speed     :   0.8677747E-04

........................................................................
.............................. CYCLE   13 ..............................
........................................................................

 iter      E             dE          RMSdq      gap      omega  full diag
   1  -3478.8359643 -0.347884E+04  0.784E-05   11.53       0.0  T
   2  -3478.8359643 -0.138880E-08  0.458E-05   11.53      38.3  T
   3  -3478.8359643 -0.600267E-10  0.105E-05   11.53     166.6  T
     SCC iter.                  ...        2 min, 56.922 sec
     gradient                   ...        4 min, 24.032 sec
 * total energy  : -3427.5208899 Eh     change    :  -0.2744939E-05 Eh
   gradient norm :     0.0041732 Eh/a0  converged?    E=T G=F D=T
   time step     :     0.1512500 fs     power     :   0.2319997E-09
   step length   :     0.0006380 a0     speed     :   0.1020308E-03

........................................................................
.............................. CYCLE   14 ..............................
........................................................................

 iter      E             dE          RMSdq      gap      omega  full diag
   1  -3478.8351817 -0.347884E+04  0.988E-05   11.53       0.0  T
   2  -3478.8351817 -0.208138E-08  0.577E-05   11.53      30.4  T
   3  -3478.8351817 -0.522959E-10  0.130E-05   11.53     134.9  T
     SCC iter.                  ...        2 min, 59.740 sec
     gradient                   ...        4 min, 25.125 sec
 * total energy  : -3427.5208931 Eh     change    :  -0.3215059E-05 Eh
   gradient norm :     0.0038296 Eh/a0  converged?    E=T G=F D=T
   time step     :     0.1663750 fs     power     :   0.2436317E-09
   step length   :     0.0008091 a0     speed     :   0.1176401E-03

........................................................................
.............................. CYCLE   15 ..............................
........................................................................

 iter      E             dE          RMSdq      gap      omega  full diag
   1  -3478.8342568 -0.347883E+04  0.122E-04   11.53       0.0  T
   2  -3478.8342568 -0.314549E-08  0.712E-05   11.53      24.6  T
   3  -3478.8342568 -0.115051E-09  0.155E-05   11.53     112.9  T
     SCC iter.                  ...        2 min, 55.368 sec
     gradient                   ...        4 min, 23.418 sec
 * total energy  : -3427.5208967 Eh     change    :  -0.3596534E-05 Eh
   gradient norm :     0.0034483 Eh/a0  converged?    E=T G=F D=F
   time step     :     0.1830125 fs     power     :   0.2443847E-09
   step length   :     0.0010080 a0     speed     :   0.1332241E-03

........................................................................
.............................. CYCLE   16 ..............................
........................................................................

 iter      E             dE          RMSdq      gap      omega  full diag
   1  -3478.8332101 -0.347883E+04  0.147E-04   11.53       0.0  T
   2  -3478.8332101 -0.420505E-08  0.861E-05   11.53      20.3  T
   3  -3478.8332101 -0.914042E-10  0.179E-05   11.53      98.1  T
     SCC iter.                  ...        2 min, 53.743 sec
     gradient                   ...        4 min, 25.149 sec
 * total energy  : -3427.5209006 Eh     change    :  -0.3861375E-05 Eh
   gradient norm :     0.0030646 Eh/a0  converged?    E=T G=F D=F
   time step     :     0.2013138 fs     power     :   0.2330969E-09
   step length   :     0.0012339 a0     speed     :   0.1482624E-03

........................................................................
.............................. CYCLE   17 ..............................
........................................................................

 iter      E             dE          RMSdq      gap      omega  full diag
   1  -3478.8320969 -0.347883E+04  0.173E-04   11.53       0.0  T
   2  -3478.8320969 -0.521732E-08  0.102E-04   11.53      17.2  T
   3  -3478.8320969 -0.120508E-09  0.196E-05   11.53      89.5  T
     SCC iter.                  ...        2 min, 55.082 sec
     gradient                   ...        4 min, 24.594 sec
 * total energy  : -3427.5209045 Eh     change    :  -0.3939908E-05 Eh
   gradient norm :     0.0027422 Eh/a0  converged?    E=T G=F D=F
   time step     :     0.2214451 fs     power     :   0.2111410E-09
   step length   :     0.0014837 a0     speed     :   0.1620666E-03

........................................................................
.............................. CYCLE   18 ..............................
........................................................................

 iter      E             dE          RMSdq      gap      omega  full diag
   1  -3478.8310243 -0.347883E+04  0.199E-04   11.53       0.0  T
   2  -3478.8310243 -0.577620E-08  0.117E-04   11.53      15.0  T
   3  -3478.8310243 -0.982254E-10  0.200E-05   11.53      87.7  T
     SCC iter.                  ...        2 min, 54.440 sec
     gradient                   ...        4 min, 24.206 sec
 * total energy  : -3427.5209084 Eh     change    :  -0.3861256E-05 Eh
   gradient norm :     0.0025605 Eh/a0  converged?    E=T G=F D=F
   time step     :     0.2435896 fs     power     :   0.1838099E-09
   step length   :     0.0017500 a0     speed     :   0.1737807E-03

........................................................................
.............................. CYCLE   19 ..............................
........................................................................

 iter      E             dE          RMSdq      gap      omega  full diag
   1  -3478.8301599 -0.347883E+04  0.221E-04   11.53       0.0  T
   2  -3478.8301599 -0.534146E-08  0.130E-04   11.53      13.4  T
   3  -3478.8301599 -0.158252E-09  0.185E-05   11.53      94.5  T
     SCC iter.                  ...        2 min, 53.371 sec
     gradient                   ...        4 min, 24.781 sec
 * total energy  : -3427.5209122 Eh     change    :  -0.3751869E-05 Eh
   gradient norm :     0.0025516 Eh/a0  converged?    E=T G=F D=F
   time step     :     0.2679486 fs     power     :   0.1601162E-09
   step length   :     0.0020232 a0     speed     :   0.1826399E-03

........................................................................
.............................. CYCLE   20 ..............................
........................................................................

 iter      E             dE          RMSdq      gap      omega  full diag
   1  -3478.8297119 -0.347883E+04  0.239E-04   11.53       0.0  T
   2  -3478.8297119 -0.413229E-08  0.141E-04   11.53      12.4  T
   3  -3478.8297119 -0.132331E-09  0.157E-05   11.53     111.3  T
     SCC iter.                  ...        2 min, 54.100 sec
     gradient                   ...        4 min, 25.599 sec
 * total energy  : -3427.5209159 Eh     change    :  -0.3794134E-05 Eh
   gradient norm :     0.0026379 Eh/a0  converged?    E=T G=F D=F
   time step     :     0.2947435 fs     power     :   0.1487191E-09
   step length   :     0.0023005 a0     speed     :   0.1887943E-03
 * RMSD in coord.:     0.0005729 a0     energy gain  -0.3044722E-03 Eh

........................................................................
.............................. CYCLE   21 ..............................
........................................................................

 iter      E             dE          RMSdq      gap      omega  full diag
   1  -3478.8298108 -0.347883E+04  0.196E-04   11.53       0.0  T
   2  -3478.8298108 -0.164073E-08  0.115E-04   11.53      15.2  T
   3  -3478.8298108 -0.909495E-11  0.103E-05   11.53     169.8  T
     SCC iter.                  ...        2 min, 51.587 sec
     gradient                   ...        4 min, 25.898 sec
 * total energy  : -3427.5209191 Eh     change    :  -0.3187803E-05 Eh
   gradient norm :     0.0026660 Eh/a0  converged?    E=T G=F D=F
   time step     :     0.2500000 fs     power     :   0.1547552E-09
   step length   :     0.0019685 a0     speed     :   0.1904603E-03

........................................................................
.............................. CYCLE   22 ..............................
........................................................................

 iter      E             dE          RMSdq      gap      omega  full diag
   1  -3478.8303808 -0.347883E+04  0.191E-04   11.53       0.0  T
   2  -3478.8303808 -0.140153E-08  0.112E-04   11.53      15.7  T
   3  -3478.8303808 -0.147338E-09  0.101E-05   11.53     174.2  T
     SCC iter.                  ...        2 min, 55.853 sec
     gradient                   ...        4 min, 24.047 sec
 * total energy  : -3427.5209225 Eh     change    :  -0.3347669E-05 Eh
   gradient norm :     0.0025787 Eh/a0  converged?    E=T G=F D=F
   time step     :     0.2500000 fs     power     :   0.1655811E-09
   step length   :     0.0019896 a0     speed     :   0.1925006E-03

........................................................................
.............................. CYCLE   23 ..............................
........................................................................

 iter      E             dE          RMSdq      gap      omega  full diag
   1  -3478.8313780 -0.347883E+04  0.190E-04   11.53       0.0  T
   2  -3478.8313780 -0.187447E-08  0.111E-04   11.53      15.8  T
   3  -3478.8313780 -0.823093E-10  0.113E-05   11.53     155.2  T
     SCC iter.                  ...        3 min,  0.326 sec
     gradient                   ...        4 min, 24.461 sec
 * total energy  : -3427.5209260 Eh     change    :  -0.3478528E-05 Eh
   gradient norm :     0.0023613 Eh/a0  converged?    E=T G=F D=F
   time step     :     0.2500000 fs     power     :   0.1723272E-09
   step length   :     0.0020226 a0     speed     :   0.1957019E-03

........................................................................
.............................. CYCLE   24 ..............................
........................................................................

 iter      E             dE          RMSdq      gap      omega  full diag
   1  -3478.8327311 -0.347883E+04  0.192E-04   11.53       0.0  T
   2  -3478.8327311 -0.280170E-08  0.111E-04   11.53      15.8  T
   3  -3478.8327311 -0.914042E-10  0.135E-05   11.53     129.5  T
     SCC iter.                  ...        2 min, 56.343 sec
     gradient                   ...        4 min, 23.411 sec
 * total energy  : -3427.5209294 Eh     change    :  -0.3445732E-05 Eh
   gradient norm :     0.0020377 Eh/a0  converged?    E=T G=F D=F
   time step     :     0.2500000 fs     power     :   0.1683499E-09
   step length   :     0.0020671 a0     speed     :   0.2000019E-03

........................................................................
.............................. CYCLE   25 ..............................
........................................................................

 iter      E             dE          RMSdq      gap      omega  full diag
   1  -3478.8343414 -0.347883E+04  0.194E-04   11.53       0.0  T
   2  -3478.8343414 -0.400678E-08  0.112E-04   11.53      15.7  T
   3  -3478.8343414 -0.175078E-09  0.161E-05   11.53     109.0  T
     SCC iter.                  ...        2 min, 53.817 sec
     gradient                   ...        4 min, 24.223 sec
 * total energy  : -3427.5209326 Eh     change    :  -0.3195434E-05 Eh
   gradient norm :     0.0016723 Eh/a0  converged?    E=T G=F D=F
   time step     :     0.2500000 fs     power     :   0.1512109E-09
   step length   :     0.0021169 a0     speed     :   0.2048166E-03

........................................................................
.............................. CYCLE   26 ..............................
........................................................................

 iter      E             dE          RMSdq      gap      omega  full diag
   1  -3478.8362552 -0.347884E+04  0.214E-04   11.53       0.0  T
   2  -3478.8362552 -0.594491E-08  0.123E-04   11.53      14.3  T
   3  -3478.8362552 -0.182354E-09  0.198E-05   11.53      88.6  T
     SCC iter.                  ...        2 min, 54.736 sec
     gradient                   ...        4 min, 24.094 sec
 * total energy  : -3427.5209356 Eh     change    :  -0.2952925E-05 Eh
   gradient norm :     0.0013673 Eh/a0  converged?    E=T G=F D=F
   time step     :     0.2750000 fs     power     :   0.1204217E-09
   step length   :     0.0023876 a0     speed     :   0.2100139E-03

........................................................................
.............................. CYCLE   27 ..............................
........................................................................

 iter      E             dE          RMSdq      gap      omega  full diag
   1  -3478.8382503 -0.347884E+04  0.226E-04   11.53       0.0  T
   2  -3478.8382503 -0.674208E-08  0.129E-04   11.53      13.5  T
   3  -3478.8382503 -0.233740E-09  0.209E-05   11.53      83.7  T
     SCC iter.                  ...        2 min, 54.628 sec
     gradient                   ...        4 min, 24.331 sec
 * total energy  : -3427.5209380 Eh     change    :  -0.2450452E-05 Eh
   gradient norm :     0.0013484 Eh/a0  converged?    E=T G=F D=F
   time step     :     0.3025000 fs     power     :   0.8548961E-10
   step length   :     0.0026659 a0     speed     :   0.2131771E-03

........................................................................
.............................. CYCLE   28 ..............................
........................................................................

 iter      E             dE          RMSdq      gap      omega  full diag
   1  -3478.8399507 -0.347884E+04  0.222E-04   11.53       0.0  T
   2  -3478.8399507 -0.502587E-08  0.128E-04   11.53      13.7  T
   3  -3478.8399507 -0.261025E-09  0.176E-05   11.53      99.3  T
     SCC iter.                  ...        2 min, 51.445 sec
     gradient                   ...        4 min, 23.562 sec
 * total energy  : -3427.5209401 Eh     change    :  -0.2062082E-05 Eh
   gradient norm :     0.0015883 Eh/a0  converged?    E=T G=F D=F
   time step     :     0.3327500 fs     power     :   0.6418563E-10
   step length   :     0.0028992 a0     speed     :   0.2107506E-03

........................................................................
.............................. CYCLE   29 ..............................
........................................................................

 iter      E             dE          RMSdq      gap      omega  full diag
   1  -3478.8410294 -0.347884E+04  0.208E-04   11.53       0.0  T
   2  -3478.8410294 -0.247883E-08  0.120E-04   11.53      14.6  T
   3  -3478.8410294 -0.192358E-09  0.118E-05   11.53     148.2  T
     SCC iter.                  ...        2 min, 57.106 sec
     gradient                   ...        4 min, 23.473 sec
 * total energy  : -3427.5209422 Eh     change    :  -0.2090531E-05 Eh
   gradient norm :     0.0017984 Eh/a0  converged?    E=T G=F D=F
   time step     :     0.3660250 fs     power     :   0.6453265E-10
   step length   :     0.0030945 a0     speed     :   0.2045002E-03

........................................................................
.............................. CYCLE   30 ..............................
........................................................................

 iter      E             dE          RMSdq      gap      omega  full diag
   1  -3478.8412782 -0.347884E+04  0.196E-04   11.53       0.0  T
   2  -3478.8412782 -0.110731E-08  0.114E-04   11.53      15.3  T
   3  -3478.8412782 -0.182354E-09  0.880E-06   11.53     199.1  T
     SCC iter.                  ...        2 min, 52.798 sec
     gradient                   ...        4 min, 24.013 sec
 * total energy  : -3427.5209448 Eh     change    :  -0.2607289E-05 Eh
   gradient norm :     0.0017942 Eh/a0  converged?    E=T G=F D=F
   time step     :     0.4026275 fs     power     :   0.7788300E-10
   step length   :     0.0033181 a0     speed     :   0.1993426E-03

........................................................................
.............................. CYCLE   31 ..............................
........................................................................

 iter      E             dE          RMSdq      gap      omega  full diag
   1  -3478.8406161 -0.347884E+04  0.197E-04   11.53       0.0  T
   2  -3478.8406161 -0.266846E-08  0.116E-04   11.53      15.1  T
   3  -3478.8406161 -0.185082E-09  0.119E-05   11.53     147.1  T
     SCC iter.                  ...        2 min, 52.343 sec
     gradient                   ...        4 min, 24.879 sec
 * total energy  : -3427.5209480 Eh     change    :  -0.3251402E-05 Eh
   gradient norm :     0.0015530 Eh/a0  converged?    E=T G=F D=F
   time step     :     0.4428903 fs     power     :   0.8697073E-10
   step length   :     0.0036252 a0     speed     :   0.1979948E-03

........................................................................
.............................. CYCLE   32 ..............................
........................................................................

 iter      E             dE          RMSdq      gap      omega  full diag
   1  -3478.8391798 -0.347884E+04  0.209E-04   11.53       0.0  T
   2  -3478.8391798 -0.651835E-08  0.124E-04   11.53      14.2  T
   3  -3478.8391798 -0.964064E-10  0.195E-05   11.53      89.6  T
     SCC iter.                  ...        2 min, 58.754 sec
     gradient                   ...        4 min, 24.108 sec
 * total energy  : -3427.5209515 Eh     change    :  -0.3455450E-05 Eh
   gradient norm :     0.0012856 Eh/a0  converged?    E=T G=F D=F
   time step     :     0.4871793 fs     power     :   0.7929205E-10
   step length   :     0.0040317 a0     speed     :   0.2001762E-03

........................................................................
.............................. CYCLE   33 ..............................
........................................................................

 iter      E             dE          RMSdq      gap      omega  full diag
   1  -3478.8375312 -0.347884E+04  0.211E-04   11.53       0.0  T
   2  -3478.8375312 -0.773662E-08  0.125E-04   11.53      14.0  T
   3  -3478.8375312 -0.237833E-09  0.221E-05   11.53      79.3  T
     SCC iter.                  ...        3 min,  4.517 sec
     gradient                   ...        4 min, 24.306 sec
 * total energy  : -3427.5209547 Eh     change    :  -0.3234602E-05 Eh
   gradient norm :     0.0013717 Eh/a0  converged?    E=T G=F D=F
   time step     :     0.5358972 fs     power     :   0.6424709E-10
   step length   :     0.0044922 a0     speed     :   0.2027669E-03

........................................................................
.............................. CYCLE   34 ..............................
........................................................................

 iter      E             dE          RMSdq      gap      omega  full diag
   1  -3478.8365914 -0.347884E+04  0.196E-04   11.53       0.0  T
   2  -3478.8365914 -0.338332E-08  0.116E-04   11.53      15.0  T
   3  -3478.8365914 -0.222371E-09  0.121E-05   11.53     145.3  T
     SCC iter.                  ...        2 min, 58.710 sec
     gradient                   ...        4 min, 24.791 sec
 * total energy  : -3427.5209581 Eh     change    :  -0.3383869E-05 Eh
   gradient norm :     0.0015842 Eh/a0  converged?    E=T G=F D=F
   time step     :     0.5894869 fs     power     :   0.6640802E-10
   step length   :     0.0049341 a0     speed     :   0.2024649E-03

........................................................................
.............................. CYCLE   35 ..............................
........................................................................

 iter      E             dE          RMSdq      gap      omega  full diag
   1  -3478.8370313 -0.347884E+04  0.213E-04   11.53       0.0  T
   2  -3478.8370313 -0.107684E-08  0.125E-04   11.53      14.0  T
   3  -3478.8370313 -0.191449E-09  0.730E-06   11.53     240.1  T
     SCC iter.                  ...        2 min, 56.411 sec
     gradient                   ...        4 min, 23.886 sec
 * total energy  : -3427.5209625 Eh     change    :  -0.4374815E-05 Eh
   gradient norm :     0.0014688 Eh/a0  converged?    E=T G=F D=F
   time step     :     0.6484356 fs     power     :   0.8199520E-10
   step length   :     0.0054541 a0     speed     :   0.2034574E-03

........................................................................
.............................. CYCLE   36 ..............................
........................................................................

 iter      E             dE          RMSdq      gap      omega  full diag
   1  -3478.8389747 -0.347884E+04  0.274E-04   11.53       0.0  T
   2  -3478.8389747 -0.776026E-08  0.158E-04   11.53      11.1  T
   3  -3478.8389747 -0.191903E-09  0.218E-05   11.53      80.4  T
     SCC iter.                  ...        2 min, 56.817 sec
     gradient                   ...        4 min, 25.774 sec
 * total energy  : -3427.5209676 Eh     change    :  -0.5120069E-05 Eh
   gradient norm :     0.0011140 Eh/a0  converged?    E=F G=F D=F
   time step     :     0.7132792 fs     power     :   0.8103497E-10
   step length   :     0.0061734 a0     speed     :   0.2093521E-03

........................................................................
.............................. CYCLE   37 ..............................
........................................................................

 iter      E             dE          RMSdq      gap      omega  full diag
   1  -3478.8414594 -0.347884E+04  0.301E-04   11.53       0.0  T
   2  -3478.8414594 -0.127534E-07  0.175E-04   11.53      10.0  T
   3  -3478.8414594 -0.410182E-09  0.296E-05   11.53      59.2  T
     SCC iter.                  ...        2 min, 54.021 sec
     gradient                   ...        4 min, 24.967 sec
 * total energy  : -3427.5209724 Eh     change    :  -0.4776329E-05 Eh
   gradient norm :     0.0012478 Eh/a0  converged?    E=T G=F D=F
   time step     :     0.7846071 fs     power     :   0.6396330E-10
   step length   :     0.0070419 a0     speed     :   0.2170966E-03

........................................................................
.............................. CYCLE   38 ..............................
........................................................................

 iter      E             dE          RMSdq      gap      omega  full diag
   1  -3478.8425482 -0.347884E+04  0.262E-04   11.53       0.0  T
   2  -3478.8425482 -0.576711E-08  0.154E-04   11.53      11.4  T
   3  -3478.8425482 -0.327418E-09  0.207E-05   11.53      84.6  T
     SCC iter.                  ...        2 min, 57.678 sec
     gradient                   ...        4 min, 24.119 sec
 * total energy  : -3427.5209775 Eh     change    :  -0.5158003E-05 Eh
   gradient norm :     0.0013554 Eh/a0  converged?    E=F G=F D=F
   time step     :     0.8630678 fs     power     :   0.7014390E-10
   step length   :     0.0078570 a0     speed     :   0.2202048E-03

........................................................................
.............................. CYCLE   39 ..............................
........................................................................

 iter      E             dE          RMSdq      gap      omega  full diag
   1  -3478.8415077 -0.347884E+04  0.286E-04   11.53       0.0  T
   2  -3478.8415077 -0.954014E-08  0.167E-04   11.53      10.5  T
   3  -3478.8415077 -0.399268E-09  0.279E-05   11.53      62.7  T
     SCC iter.                  ...        2 min, 54.245 sec
     gradient                   ...        4 min, 24.555 sec
 * total energy  : -3427.5209837 Eh     change    :  -0.6223092E-05 Eh
   gradient norm :     0.0010616 Eh/a0  converged?    E=F G=F D=F
   time step     :     0.9493746 fs     power     :   0.7417684E-10
   step length   :     0.0088683 a0     speed     :   0.2259536E-03

........................................................................
.............................. CYCLE   40 ..............................
........................................................................

 iter      E             dE          RMSdq      gap      omega  full diag
   1  -3478.8400445 -0.347884E+04  0.313E-04   11.53       0.0  T
   2  -3478.8400445 -0.102305E-07  0.182E-04   11.53       9.6  T
   3  -3478.8400445 -0.329692E-09  0.258E-05   11.53      67.8  T
     SCC iter.                  ...        2 min, 56.972 sec
     gradient                   ...        4 min, 25.626 sec
 * total energy  : -3427.5209900 Eh     change    :  -0.6255542E-05 Eh
   gradient norm :     0.0012913 Eh/a0  converged?    E=F G=F D=F
   time step     :     1.0443120 fs     power     :   0.6482236E-10
   step length   :     0.0101240 a0     speed     :   0.2344965E-03

........................................................................
.............................. CYCLE   41 ..............................
........................................................................

 iter      E             dE          RMSdq      gap      omega  full diag
   1  -3478.8411302 -0.347884E+04  0.326E-04   11.53       0.0  T
   2  -3478.8411302 -0.537466E-08  0.190E-04   11.53       9.2  T
   3  -3478.8411302 -0.354703E-09  0.147E-05   11.53     118.8  T
     SCC iter.                  ...        2 min, 53.923 sec
     gradient                   ...        4 min, 23.789 sec
 * total energy  : -3427.5209977 Eh     change    :  -0.7706798E-05 Eh
   gradient norm :     0.0011431 Eh/a0  converged?    E=F G=F D=F
   time step     :     1.1487432 fs     power     :   0.8011602E-10
   step length   :     0.0114208 a0     speed     :   0.2404852E-03

........................................................................
.............................. CYCLE   42 ..............................
........................................................................

 iter      E             dE          RMSdq      gap      omega  full diag
   1  -3478.8436659 -0.347884E+04  0.397E-04   11.53       0.0  T
   2  -3478.8436659 -0.199116E-07  0.232E-04   11.53       7.6  T
   3  -3478.8436659 -0.706677E-09  0.339E-05   11.53      51.7  T
     SCC iter.                  ...        2 min, 54.166 sec
     gradient                   ...        4 min, 24.460 sec
 * total energy  : -3427.5210062 Eh     change    :  -0.8464232E-05 Eh
   gradient norm :     0.0012074 Eh/a0  converged?    E=F G=F D=F
   time step     :     1.2500000 fs     power     :   0.7284878E-10
   step length   :     0.0130285 a0     speed     :   0.2521156E-03
 * RMSD in coord.:     0.0016967 a0     energy gain  -0.9022265E-04 Eh

........................................................................
.............................. CYCLE   43 ..............................
........................................................................

 iter      E             dE          RMSdq      gap      omega  full diag
   1  -3478.8437266 -0.347884E+04  0.612E-05   11.53       0.0  T
   2  -3478.8437266 -0.174623E-09  0.360E-05   11.53      48.6  T
   3  -3478.8437266  0.236469E-10  0.220E-06   11.53     797.5  T
     SCC iter.                  ...        3 min,  2.691 sec
     gradient                   ...        4 min, 23.794 sec
 * total energy  : -3427.5210078 Eh     change    :  -0.1607797E-05 Eh
   gradient norm :     0.0012289 Eh/a0  converged?    E=T G=F D=F
   time step     :     0.2500000 fs     power     :   0.8400966E-10
   step length   :     0.0025075 a0     speed     :   0.2426098E-03

........................................................................
.............................. CYCLE   44 ..............................
........................................................................

 iter      E             dE          RMSdq      gap      omega  full diag
   1  -3478.8433844 -0.347884E+04  0.601E-05   11.53       0.0  T
   2  -3478.8433844 -0.285127E-09  0.351E-05   11.53      49.9  T
   3  -3478.8433844 -0.104592E-10  0.431E-06   11.53     406.6  T
     SCC iter.                  ...        2 min, 52.658 sec
     gradient                   ...        4 min, 24.243 sec
 * total energy  : -3427.5210096 Eh     change    :  -0.1787396E-05 Eh
   gradient norm :     0.0011436 Eh/a0  converged?    E=T G=F D=F
   time step     :     0.2500000 fs     power     :   0.9323030E-10
   step length   :     0.0024383 a0     speed     :   0.2359156E-03

........................................................................
.............................. CYCLE   45 ..............................
........................................................................

 iter      E             dE          RMSdq      gap      omega  full diag
   1  -3478.8427297 -0.347884E+04  0.700E-05   11.53       0.0  T
   2  -3478.8427297 -0.858563E-09  0.406E-05   11.53      43.1  T
   3  -3478.8427297 -0.522959E-10  0.784E-06   11.53     223.4  T
     SCC iter.                  ...        2 min, 55.091 sec
     gradient                   ...        4 min, 25.676 sec
 * total energy  : -3427.5210114 Eh     change    :  -0.1871999E-05 Eh
   gradient norm :     0.0010034 Eh/a0  converged?    E=T G=F D=F
   time step     :     0.2500000 fs     power     :   0.9614384E-10
   step length   :     0.0024024 a0     speed     :   0.2324459E-03

........................................................................
.............................. CYCLE   46 ..............................
........................................................................

 iter      E             dE          RMSdq      gap      omega  full diag
   1  -3478.8419019 -0.347884E+04  0.785E-05   11.53       0.0  T
   2  -3478.8419019 -0.133195E-08  0.456E-05   11.53      38.5  T
   3  -3478.8419019 -0.482032E-10  0.102E-05   11.53     171.8  T
     SCC iter.                  ...        2 min, 53.222 sec
     gradient                   ...        4 min, 23.934 sec
 * total energy  : -3427.5210133 Eh     change    :  -0.1840835E-05 Eh
   gradient norm :     0.0009008 Eh/a0  converged?    E=T G=T D=F
   time step     :     0.2500000 fs     power     :   0.9303179E-10
   step length   :     0.0023950 a0     speed     :   0.2317308E-03

   *** GEOMETRY OPTIMIZATION CONVERGED AFTER 46 CYCLES ***

------------------------------------------------------------------------
 total energy gain   :        -0.0004018 Eh       -0.2521 kcal/mol
 total RMSD          :         0.0020884 a0        0.0011 Å
 total power (kW/mol):        -0.0229333 (step)   -0.0000 (real)
------------------------------------------------------------------------

 FIRE (total)                  0 d,  5 h, 51 min, 44.006 sec
 setup                          ...        0 min,  0.120 sec (  0.001%)
 velocities                     ...        0 min,  0.003 sec (  0.000%)
 propagation                    ...        0 min,  0.005 sec (  0.000%)
 singlepoint calculation        ...      351 min, 43.043 sec ( 99.995%)
 log and printout               ...        0 min,  0.757 sec (  0.004%)
 preconditioner                 ...        0 min,  0.000 sec (  0.000%)
 model hessian                  ...        0 min,  0.000 sec (  0.000%)
 hessian update                 ...        0 min,  0.000 sec (  0.000%)

================
 final structure:
================
3258
 xtb: 6.6.1 (8d0f1dd)
C           98.00797674365270      109.27043994691698      100.46286337243926
C           97.94553767242314      109.07491505021584      101.97242133128461
C           97.47870174388895      107.67123043016835      102.35128958855944
C           97.40137228332152      107.49344664687041      103.86469776012437
C           97.01836739991926      106.07444118605899      104.27529439845655
C           96.87497575067079      105.93925426984931      105.78973633387349
C           96.67551267156425      104.48805558557845      106.22049178076466
C           96.67480368196193      104.30328491413839      107.73863815298189
C           95.39744350207226      104.79968584960999      108.41295094000344
C           95.42604528754666      104.54440397974871      109.91923247022604
C           94.06330671752488      104.71542681572136      110.59067212434377
C           93.52649475682615      106.14711410909453      110.62013805693924
C           94.32436345778520      107.06966170805777      111.53947171087731
C           93.61310613002260      108.40259536640079      111.76458952716062
C           94.28696451709138      109.27273658173407      112.82629773334845
C           95.60023319074156      109.89407192444294      112.35972064624897
C           96.26965708061836      110.70389737781177      113.46631276485634
C           97.56729291967227      111.37936789154840      113.01902834718781
C           97.31960028566495      112.60087643657060      112.13894303072333
C           98.58180424837775      113.40699637405748      111.83276465727072
C           99.53098812567725      112.71508672854264      110.85732591708907
C          100.65439163524134      113.64492348296638      110.40273586615717
C          101.55242505312762      112.99088623204463      109.35603457789705
C          102.60466707152834      113.92904416749919      108.76353367401107
C          102.01377079306894      115.01342208144895      107.86205964423232
C          103.10391976576798      115.75702066720585      107.09391679371004
C          102.56996725562738      116.76252284968410      106.07283897614455
C          101.82893102224480      117.94198492146349      106.70239492518876
C          101.55424586411229      119.07314077884773      105.70732057061969
C          102.81466276095674      119.85886780864634      105.34946894169822
C          102.54355275399220      121.14432064958041      104.56631976527368
C          101.86010696213806      120.95086830824900      103.21247659178847
C          102.66260620832210      120.09498373888809      102.23500056179651
C          102.01852513640185      120.08647747990850      100.85027849761998
C          102.78698197496936      119.25344106600438       99.82319779080774
C          102.82216852844100      117.75194616205196      100.11086299437940
C          101.45104132636440      117.08262732783177      100.04337529299818
C          101.52349150135018      115.56267436315208      100.20108700576439
C          101.86565622208408      115.11656126706792      101.62126772260191
C          101.90593842945604      113.59522348636993      101.74195391935997
C          102.25959323094031      113.13634751689429      103.15487445304605
C          102.36915051071037      111.61636677322771      103.24287195642268
C          102.76169896649769      111.11141920959355      104.63124998762821
C          101.73406602118344      111.38218062819274      105.73147774674054
C          100.37807259038493      110.72179447200527      105.48384546606781
C           99.47925764439931      110.79041993491799      106.71766935907108
C           98.17645626755147      110.01990574493949      106.51858961001554
C           97.21930185194329      110.09544772167484      107.71012509619972
C           97.79044504511073      109.57000966957068      109.02849849941981
C           98.16840365788464      108.09167455342805      108.98513711522538
C           98.69558918963295      107.56099506335954      110.32040298877092
C           99.92267343065650      108.29495435934368      110.86495784621100
C          101.14783942692286      108.22780710362935      109.95666971630452
C          102.30423785085331      109.05857534637457      110.50867343321420
C          103.54069038624124      108.99679443196152      109.61550436958196
C          104.67495299826402      109.89232040550117      110.11117331729497
C          105.94066376345882      109.71408564542411      109.27540943249552
C          107.10321765503284      110.57824650477544      109.75939468344278
C          108.38725411490435      110.26959756048265      108.99126261203834
C          109.58910050436786      111.05976792259375      109.50410241752469
C          110.88470642857888      110.65080342988506      108.80358278597346
C          112.10265259392085      111.35407966282781      109.40033414955178
C          113.44001638632808      110.80835304751182      108.89577634323908
C          113.73899526824442      111.15534063705661      107.44024775863018
C          115.14272076187575      110.71863185933147      107.02606488136789
C          115.45312704134746      110.95416158016836      105.54555895433657
C          115.37005480145767      112.42406276527339      105.14324625822101
C          115.87551173971696      112.70311392909505      103.72573609597883
C          117.39508810407341      112.82287317111141      103.62491881092575
C          117.83902889411986      113.18263710539890      102.20485054815215
C          119.24400882349326      113.78256989020244      102.13809560319932
C          120.35168651256467      112.82067556720777      102.55842261050081
C          121.72356109131370      113.49224800645193      102.54793461163096
C          122.82301738511903      112.57966047373364      103.08773771858867
C          124.20559245889781      113.20852443272994      102.92592379166685
C          125.34516214904629      112.31175396238362      103.41363528018150
C          125.50509935692526      112.29451598719989      104.93174357150681
C          126.63832434332235      111.36655497035753      105.36640123199612
C          126.91552645800657      111.45327845597775      106.86522316167962
C          127.93718631918416      110.41089614174479      107.31826101923296
C          128.30002597930405      110.53162904799984      108.79969870754245
C          127.15438460484282      110.12190909271736      109.72253707678132
C          127.47569722135637      110.26306123756140      111.21205844469181
C          127.88612338310659      111.67091870362846      111.65121067732741
C          126.87495669598738      112.75029500178276      111.27204710908629
C          127.30999553729414      114.12893419897945      111.76526085927361
C          126.39137670292605      115.25751410558966      111.29435469622400
C          126.45908024613666      115.49462482498066      109.78649341386087
C          125.65643497524368      116.72327023263701      109.36534629110726
C          125.63175251995078      116.93910405033596      107.85016832970206
C          124.83159709126576      115.88972942220141      107.07517940492599
C          123.32391124984449      116.01102144934897      107.28544755810263
C          122.56581344691062      114.81488710107931      106.71479717308286
C          121.06178515452643      114.95065572231108      106.93844233828953
C          120.25806170830978      113.72473554347552      106.50610168383378
C          120.50811775611037      112.50467602090259      107.39030548472623
C          119.50450979080109      111.37878678282674      107.14181145560349
C          119.58276788932569      110.31431595250791      108.23437178043720
C          118.67091266267546      109.11940309812925      107.96595776585205
C          118.57749868127222      108.18891744945397      109.17427832859799
C          117.58641787640822      107.04841728459655      108.95197348073270
C          117.30890058554166      106.26921099009934      110.23448452165630
C          116.45949470206716      105.01293681818277      110.03316715513452
C          115.07756387322559      105.27251901560790      109.43458953729716
C          114.16085155298889      104.05582410383626      109.57073554318501
C          112.84483105452004      104.23048258706250      108.81611699450173
C          111.85483659961791      103.09519561852395      109.06787577647107
C          110.57607830219402      103.26893121859300      108.25006453881126
C          109.56951999464471      102.14730811534716      108.49753295053954
C          108.21787834585176      102.37892956816198      107.81866154768979
C          108.29465644361233      102.40275605347105      106.29466170973501
C          106.91972803457340      102.52210241796671      105.64094843366763
C          107.02861069118995      102.48705418582841      104.11826301279378
C          105.68334468713144      102.55707871135975      103.39558060658393
C          104.99905290709076      103.91679902666195      103.51416772196318
C          103.79873263721929      104.04111776946405      102.57669790145236
C          103.23237476420660      105.45837918324433      102.56699296971370
C          102.05893559862429      105.60471247069704      101.60191518655135
C          101.40340526772367      106.98583434546391      101.64999206077808
C          102.32134749732865      108.11134642035691      101.18755061391956
H          100.51860218422046      106.96968526186870      101.00922081485567
H          101.06592619220477      107.19319263291540      102.66856802319059
H          102.40326174279888      105.40717603502630      100.58359464769102
H          101.30536780534371      104.84998021265004      101.84328785150110
H          102.90780516802492      105.72052556510758      103.57456508969140
H          104.02474637903259      106.15034817822250      102.27893521858100
H          104.10165013741815      103.77229169135674      101.56124958959906
H          103.02179657186971      103.33706489552833      102.88374083118759
H          104.66884796415282      104.07904716746694      104.54145261637575
H          105.72423479201858      104.69928205156481      103.27528795668944
H          105.85581521124092      102.34857631767831      102.33610791459166
H          105.01902882530806      101.77909853973394      103.77804078040691
H          107.65664462739325      103.31685978024645      103.78390082411617
H          107.53143405529948      101.56102570879074      103.82677433025967
H          106.28247166821559      101.70192938971159      105.97690323383907
H          106.45250768120782      103.45668150621385      105.95798269948195
H          108.90590756025756      103.24754823436596      105.97222617943468
H          108.77921658809157      101.48923370773232      105.94501217864273
H          107.53547061200048      101.58044463314425      108.12392289657063
H          107.79637815676912      103.32222840664089      108.16998237730461
H          109.99235658257291      101.20057046930341      108.15338684103820
H          109.40184431961835      102.05888690993085      109.57494082695463
H          110.11596808697836      104.22651902049590      108.50185211059926
H          110.84084789837493      103.29395827591647      107.19131496134840
H          112.32076487557060      102.14080939753607      108.80934032404411
H          111.60325412060078      103.06317549989700      110.13141605968575
H          112.38381235101726      105.17607351127170      109.10672710285287
H          113.05481036041854      104.28206112638431      107.74677080410925
H          114.67559709640692      103.17218408672238      109.18522197823376
H          113.95082881188166      103.88515700575269      110.63009270996318
H          114.61680783769226      106.12556349019827      109.93614358371318
H          115.18393398717586      105.51919303982460      108.37815601355577
H          116.99365063707515      104.31296127795984      109.38529957057797
H          116.33476523615722      104.53620138115494      111.00880191982306
H          118.26155884226793      105.97386103353516      110.68237640170270
H          116.80327365677425      106.93003466288580      110.94012156821839
H          116.64909972085847      107.46694806645181      108.57918049912290
H          117.98362688172571      106.37380093835566      108.19039042391741
H          119.56311928303468      107.77347588855307      109.39898710889098
H          118.26130217890835      108.77210805701056      110.04186734894790
H          117.67105105071606      109.48515984431744      107.72369193892484
H          119.03472941976274      108.56316226836374      107.09847090934500
H          120.61551602829302      109.97648674063258      108.33070537998152
H          119.29872904652964      110.76421417575857      109.18961593289309
H          118.49295450089724      111.79193458873702      107.11630607352635
H          119.69663789853703      110.92059344035125      106.16911723670405
H          121.51719892342869      112.12137725679618      107.22667767324720
H          120.44204795877276      112.81506559763920      108.43548439047879
H          119.19564317087379      113.97692575930579      106.55829598601598
H          120.49183753647465      113.48586495734847      105.46791399467111
H          120.87274635934583      115.14103278622389      107.99864545877810
H          120.70530283770961      115.82021242455360      106.38115403365451
H          122.76948117706984      114.72335465029481      105.64561911926963
H          122.93048000369626      113.90778131741403      107.20009816129121
H          123.10677470512445      116.07922075191495      108.35303639624837
H          122.96506819628736      116.93232072532822      106.81970493499855
H          125.04917765916777      115.99780910841746      106.00943109932274
H          125.15546615161026      114.89010688813013      107.37029171704563
H          125.20687424543226      117.92421032750070      107.64106388731349
H          126.66138077587878      116.94066885899881      107.48361310725132
H          124.63632154258028      116.63415192797230      109.74350156864830
H          126.09922689420364      117.60509886599027      109.83237505983007
H          127.50200801145607      115.62779676527127      109.48846066406340
H          126.07456498142700      114.61616404786450      109.26852209405678
H          125.36086611648219      115.02782650414460      111.57728257231869
H          126.67617650636350      116.17866490513809      111.80936798796635
H          127.33466128486087      114.12424904031377      112.85729497891278
H          128.32545295827555      114.33028799313108      111.41470646191115
H          126.77409852447124      112.77653252831895      110.18800363998265
H          125.89787314698130      112.50319386481344      111.69428448268799
H          128.01536953176264      111.66704424940282      112.73625140530723
H          128.85450576525346      111.92102282308586      111.21353328352124
H          126.59186507011437      109.96041960585364      111.78048563359638
H          128.28333399719722      109.57353713323367      111.47096855504583
H          126.26955705754082      110.71557547266269      109.49490562172164
H          126.90516651489946      109.07604690141542      109.52285332647502
H          129.16496132988254      109.89723827284612      109.00921623294410
H          128.59070170418627      111.56347436167955      109.00134626893407
H          127.54554180956514      109.41008345945912      107.11907322733656
H          128.84534685540797      110.53209895621175      106.72239104649407
H          127.28880190778129      112.45234863501935      107.10471288950285
H          125.97874900770670      111.30923379142595      107.40478736702812
H          126.37969338994905      110.33655241200245      105.10852213328555
H          127.54740786001767      111.62303706922712      104.81687078296662
H          125.71343520718302      113.30853538962452      105.28101160278773
H          124.57452222421917      111.96661264579650      105.39813339448462
H          125.17674042790291      111.29161824315783      103.05984902766464
H          126.28265209709350      112.65983896548606      102.97253380473542
H          124.36131431428545      113.42909148124239      101.86631166288839
H          124.24077373604604      114.15963678523832      103.46294756124247
H          122.63291601780459      112.36775924305566      104.14160425624267
H          122.79670132723105      111.63025296691798      102.54826050589209
H          121.97184516491241      113.78456060071753      101.52550511395026
H          121.68464077895469      114.40505120616346      103.14887920032902
H          120.14309402666815      112.45023642240758      103.56386449315129
H          120.36539551243384      111.96262541398748      101.88247457383210
H          119.43316101436714      114.11651723009874      101.11417771054236
H          119.27799700184676      114.66580513219743      102.78163643875156
H          117.78704644200855      112.29741922386974      101.56661090869825
H          117.14134290629617      113.91893454328809      101.79705354057239
H          117.72915133932771      113.60602510532759      104.30986237451187
H          117.86128418583215      111.88787954662227      103.93776008719033
H          115.52343940643185      111.91576861847777      103.05455532528543
H          115.44302279637697      113.64792325197047      103.38579157624055
H          114.32791426289327      112.74114246784652      105.20385804121993
H          115.94361685362557      113.02406193063189      105.85358451356514
H          116.45758815956147      110.57685451700296      105.34024241664584
H          114.75260790205677      110.38351801292374      104.93057194464029
H          115.87479244702465      111.25453479552127      107.63616661949473
H          115.25250085598663      109.65159069709411      107.23850342131784
H          113.01086700814157      110.66457406377494      106.79219426759050
H          113.64035678685553      112.23409772646178      107.31071513471531
H          114.23891110818550      111.21681942148645      109.51948906448408
H          113.44856496853767      109.72297268562015      109.01460961702199
H          112.04266874427630      112.42490492676640      109.19464898676091
H          112.07215457363063      111.23097580109759      110.48663417798059
H          111.01412737890375      109.57002001623211      108.90050265436589
H          110.80459561234987      110.88197112847054      107.74000106682082
H          109.41691109084016      112.12871758273889      109.35918983778861
H          109.69316092282193      110.88998611205123      110.57907888909027
H          108.60424484586611      109.20199132747251      109.07885656777461
H          108.23423260308378      110.48377203397820      107.93084371468136
H          106.84932145916417      111.63395514436769      109.63975114676012
H          107.26762862290363      110.39650799926541      110.82418320291592
H          106.24246240429396      108.66420585315537      109.31096633067062
H          105.72387043193257      109.95383516758875      108.23173172013890
H          104.35796264936931      110.93760106176320      110.07161543520172
H          104.89447632036033      109.65151384399732      111.15362464881153
H          103.89573795806251      107.96421731618049      109.57045169790875
H          103.26897372801804      109.29188188950737      108.59907242713273
H          101.97845309925695      110.09796022432124      110.60097664911470
H          102.56212604184073      108.70285034934999      111.50797035289774
H          101.46336048770985      107.18698529127771      109.85165329706429
H          100.89517310819586      108.59864602196326      108.96260426008546
H           99.66756156829408      109.34157242868716      111.04271332087286
H          100.18118762571012      107.85438611103098      111.83088891022589
H           97.90063382710589      107.62801044701706      111.06881645445615
H           98.94020924349348      106.50174200076863      110.20270053380479
H           97.28798535658221      107.50793007765232      108.70496873018131
H           98.92488999200059      107.92820422936397      108.21909016706424
H           98.66340300135394      110.16415698665715      109.29487567489060
H           97.04220863204779      109.71967525419730      109.80966700308318
H           96.92162226629739      111.13753045863378      107.85649803930329
H           96.31784310127196      109.52897059579803      107.46192191847705
H           97.66284559199447      110.41774870028210      105.63960116919878
H           98.40688661740511      108.97514827325868      106.30822103156149
H          100.02330283909701      110.37512343141174      107.56813022884782
H           99.25050754109066      111.83495537777314      106.94484146310585
H           99.87320720155998      111.20684623946458      104.64673853621798
H          100.53405985758619      109.67462935829562      105.21416734380207
H          102.14227056476170      111.00187463682414      106.67261227740654
H          101.59920276909904      112.45756002950105      105.85441609746672
H          102.93273537896819      110.03366530658680      104.57065356143511
H          103.70712319510899      111.57923509697652      104.91815032339640
H          101.42118553454628      111.16685882794818      102.94276924994712
H          103.12708250001782      111.27890898151503      102.53028238404028
H          103.21066699742236      113.58378629452662      103.45664545624236
H          101.49381043140923      113.49402031387265      103.84493409011918
H          100.93291465010677      113.18254805753793      101.46338843645493
H          102.64139996837031      113.20003918858660      101.03702857492448
H          102.83705749920776      115.51859843801631      101.91178129689244
H          101.11987788091642      115.51560276079239      102.31353324061571
H          100.55676460618967      115.13337915821674       99.92535864110263
H          102.26812221497450      115.16328807591955       99.50783727952270
H          100.80100905035476      117.48548120593075      100.82189687890913
H          100.99603336592078      117.31608217109407       99.07742100385528
H          103.47525280472945      117.28249032642492       99.36982032330508
H          103.26363665889049      117.58388229950791      101.09289041450053
H          102.33578922267878      119.41016175818871       98.84002696945113
[...]
  3011   6 C     3012   6 C                                       1.5286114
  3012   6 C     3013   6 C                                       1.5278552
  3013   6 C     3014   6 C                                       1.5273374
  3014   6 C     3015   6 C                                       1.5275968
  3015   6 C     3016   6 C                                       1.5234488
  3015   6 C     3017   1 H                                       1.0935822
  3015   6 C     3018   1 H                                       1.0920965
  3014   6 C     3019   1 H                                       1.0921508
  3014   6 C     3020   1 H                                       1.0924588
  3013   6 C     3021   1 H                                       1.0923721
  3013   6 C     3022   1 H                                       1.0920356
  3012   6 C     3023   1 H                                       1.0920111
  3012   6 C     3024   1 H                                       1.0929396
  3011   6 C     3025   1 H                                       1.0925267
  3011   6 C     3026   1 H                                       1.0919786
  3010   6 C     3027   1 H                                       1.0915577
  3010   6 C     3028   1 H                                       1.0938030
  3009   6 C     3029   1 H                                       1.0934668
  3009   6 C     3030   1 H                                       1.0918273
  3008   6 C     3031   1 H                                       1.0926945
  3008   6 C     3032   1 H                                       1.0908155
  3007   6 C     3033   1 H                                       1.0931149
  3007   6 C     3034   1 H                                       1.0928318
  3006   6 C     3035   1 H                                       1.0915626
  3006   6 C     3036   1 H                                       1.0916717
  3005   6 C     3037   1 H                                       1.0920808
  3005   6 C     3038   1 H                                       1.0931657
  3004   6 C     3039   1 H                                       1.0940315
  3004   6 C     3040   1 H                                       1.0918545
  3003   6 C     3041   1 H                                       1.0902573
  3003   6 C     3042   1 H                                       1.0922090
  3002   6 C     3043   1 H                                       1.0938112
  3002   6 C     3044   1 H                                       1.0930109
  3001   6 C     3045   1 H                                       1.0917641
  3001   6 C     3046   1 H                                       1.0930065
  3000   6 C     3047   1 H                                       1.0933449
  3000   6 C     3048   1 H                                       1.0902813
  2999   6 C     3049   1 H                                       1.0919382
  2999   6 C     3050   1 H                                       1.0925611
  2998   6 C     3051   1 H                                       1.0913595
  2998   6 C     3052   1 H                                       1.0908683
  2997   6 C     3053   1 H                                       1.0916833
  2997   6 C     3054   1 H                                       1.0934386
  2996   6 C     3055   1 H                                       1.0909940
  2996   6 C     3056   1 H                                       1.0916721
  2995   6 C     3057   1 H                                       1.0920576
  2995   6 C     3058   1 H                                       1.0918039
  2994   6 C     3059   1 H                                       1.0917238
  2994   6 C     3060   1 H                                       1.0928503
  2993   6 C     3061   1 H                                       1.0935886
  2993   6 C     3062   1 H                                       1.0932541
  2992   6 C     3063   1 H                                       1.0937697
  2992   6 C     3064   1 H                                       1.0919546
  2991   6 C     3065   1 H                                       1.0903538
  2991   6 C     3066   1 H                                       1.0930207
  2990   6 C     3067   1 H                                       1.0928450
  2990   6 C     3068   1 H                                       1.0914206
  2989   6 C     3069   1 H                                       1.0918193
  2989   6 C     3070   1 H                                       1.0928806
  2988   6 C     3071   1 H                                       1.0931120
  2988   6 C     3072   1 H                                       1.0922348
  2987   6 C     3073   1 H                                       1.0911561
  2987   6 C     3074   1 H                                       1.0927480
  2986   6 C     3075   1 H                                       1.0933769
  2986   6 C     3076   1 H                                       1.0918404
  2985   6 C     3077   1 H                                       1.0931968
  2985   6 C     3078   1 H                                       1.0912657
  2984   6 C     3079   1 H                                       1.0930924
  2984   6 C     3080   1 H                                       1.0936005
  2983   6 C     3081   1 H                                       1.0931605
  2983   6 C     3082   1 H                                       1.0916342
  2982   6 C     3083   1 H                                       1.0900358
  2982   6 C     3084   1 H                                       1.0929314
  2981   6 C     3085   1 H                                       1.0930530
  2981   6 C     3086   1 H                                       1.0923614
  2980   6 C     3087   1 H                                       1.0932095
  2980   6 C     3088   1 H                                       1.0928408
  2979   6 C     3089   1 H                                       1.0921208
  2979   6 C     3090   1 H                                       1.0914525
  2978   6 C     3091   1 H                                       1.0922472
  2978   6 C     3092   1 H                                       1.0926653
  2977   6 C     3093   1 H                                       1.0920094
  2977   6 C     3094   1 H                                       1.0925927
  2976   6 C     3095   1 H                                       1.0923277
  2976   6 C     3096   1 H                                       1.0927106
  2975   6 C     3097   1 H                                       1.0934273
  2975   6 C     3098   1 H                                       1.0912250
  2974   6 C     3099   1 H                                       1.0924672
  2974   6 C     3100   1 H                                       1.0928351
  2973   6 C     3101   1 H                                       1.0932551
  2973   6 C     3102   1 H                                       1.0928671
  2972   6 C     3103   1 H                                       1.0923706
  2972   6 C     3104   1 H                                       1.0929144
  2971   6 C     3105   1 H                                       1.0927453
  2971   6 C     3106   1 H                                       1.0918855
  2970   6 C     3107   1 H                                       1.0920832
  2970   6 C     3108   1 H                                       1.0930870
  2969   6 C     3109   1 H                                       1.0928998
  2969   6 C     3110   1 H                                       1.0925043
  2968   6 C     3111   1 H                                       1.0911707
  2968   6 C     3112   1 H                                       1.0923015
  2967   6 C     3113   1 H                                       1.0922838
  2967   6 C     3114   1 H                                       1.0932062
  2966   6 C     3115   1 H                                       1.0923710
  2966   6 C     3116   1 H                                       1.0925530
  2965   6 C     3117   1 H                                       1.0921664
  2965   6 C     3118   1 H                                       1.0933945
  2964   6 C     3119   1 H                                       1.0925761
  2964   6 C     3120   1 H                                       1.0924471
  2963   6 C     3121   1 H                                       1.0922317
  2963   6 C     3122   1 H                                       1.0935413
  2962   6 C     3123   1 H                                       1.0912642
  2962   6 C     3124   1 H                                       1.0924038
  2961   6 C     3125   1 H                                       1.0927430
  2961   6 C     3126   1 H                                       1.0917973
  2960   6 C     3127   1 H                                       1.0923865
  2960   6 C     3128   1 H                                       1.0929160
  2959   6 C     3129   1 H                                       1.0911198
  2959   6 C     3130   1 H                                       1.0913819
  2958   6 C     3131   1 H                                       1.0935241
  2958   6 C     3132   1 H                                       1.0927682
  2957   6 C     3133   1 H                                       1.0931918
  2957   6 C     3134   1 H                                       1.0928891
  2956   6 C     3135   1 H                                       1.0927786
  2956   6 C     3136   1 H                                       1.0913752
  2955   6 C     3137   1 H                                       1.0923141
  2955   6 C     3138   1 H                                       1.0916675
  2954   6 C     3139   1 H                                       1.0930124
  2954   6 C     3140   1 H                                       1.0926846
  2953   6 C     3141   1 H                                       1.0922272
  2953   6 C     3142   1 H                                       1.0926260
  2952   6 C     3143   1 H                                       1.0925160
  2952   6 C     3144   1 H                                       1.0927364
  2951   6 C     3145   1 H                                       1.0922112
  2951   6 C     3146   1 H                                       1.0922930
  2950   6 C     3147   1 H                                       1.0922258
  2950   6 C     3148   1 H                                       1.0929627
  2949   6 C     3149   1 H                                       1.0921861
  2949   6 C     3150   1 H                                       1.0920692
  2948   6 C     3151   1 H                                       1.0920850
  2948   6 C     3152   1 H                                       1.0929785
  2947   6 C     3153   1 H                                       1.0921940
  2947   6 C     3154   1 H                                       1.0919485
  2946   6 C     3155   1 H                                       1.0918202
  2946   6 C     3156   1 H                                       1.0932460
  2945   6 C     3157   1 H                                       1.0923700
  2945   6 C     3158   1 H                                       1.0917807
  2944   6 C     3159   1 H                                       1.0914335
  2944   6 C     3160   1 H                                       1.0933139
  2943   6 C     3161   1 H                                       1.0925973
  2943   6 C     3162   1 H                                       1.0913533
  2942   6 C     3163   1 H                                       1.0919682
  2942   6 C     3164   1 H                                       1.0936587
  2941   6 C     3165   1 H                                       1.0922689
  2941   6 C     3166   1 H                                       1.0920826
  2940   6 C     3167   1 H                                       1.0924362
  2940   6 C     3168   1 H                                       1.0916714
  2939   6 C     3169   1 H                                       1.0928505
  2939   6 C     3170   1 H                                       1.0929237
  2938   6 C     3171   1 H                                       1.0927567
  2938   6 C     3172   1 H                                       1.0918236
  2937   6 C     3173   1 H                                       1.0894562
  2937   6 C     3174   1 H                                       1.0926418
  2936   6 C     3175   1 H                                       1.0923798
  2936   6 C     3176   1 H                                       1.0927444
  2935   6 C     3177   1 H                                       1.0924493
  2935   6 C     3178   1 H                                       1.0921059
  2934   6 C     3179   1 H                                       1.0922006
  2934   6 C     3180   1 H                                       1.0916032
  2933   6 C     3181   1 H                                       1.0928467
  2933   6 C     3182   1 H                                       1.0918840
  2932   6 C     3183   1 H                                       1.0922022
  2932   6 C     3184   1 H                                       1.0938942
  2931   6 C     3185   1 H                                       1.0926581
  2931   6 C     3186   1 H                                       1.0921611
  2930   6 C     3187   1 H                                       1.0920193
  2930   6 C     3188   1 H                                       1.0935843
  2929   6 C     3189   1 H                                       1.0931905
  2929   6 C     3190   1 H                                       1.0922352
  2928   6 C     3191   1 H                                       1.0917387
  2928   6 C     3192   1 H                                       1.0932625
  2927   6 C     3193   1 H                                       1.0930940
  2927   6 C     3194   1 H                                       1.0920134
  2926   6 C     3195   1 H                                       1.0915619
  2926   6 C     3196   1 H                                       1.0924005
  2925   6 C     3197   1 H                                       1.0933602
  2925   6 C     3198   1 H                                       1.0921534
  2924   6 C     3199   1 H                                       1.0918497
  2924   6 C     3200   1 H                                       1.0929982
  2923   6 C     3201   1 H                                       1.0931773
  2923   6 C     3202   1 H                                       1.0926359
  2922   6 C     3203   1 H                                       1.0923044
  2922   6 C     3204   1 H                                       1.0932021
  2921   6 C     3205   1 H                                       1.0925557
  2921   6 C     3206   1 H                                       1.0926924
  2920   6 C     3207   1 H                                       1.0926633
  2920   6 C     3208   1 H                                       1.0918260
  2919   6 C     3209   1 H                                       1.0913373
  2919   6 C     3210   1 H                                       1.0929493
  2918   6 C     3211   1 H                                       1.0932057
  2918   6 C     3212   1 H                                       1.0913795
  2917   6 C     3213   1 H                                       1.0936424
  2917   6 C     3214   1 H                                       1.0929828
  2916   6 C     3215   1 H                                       1.0914120
  2916   6 C     3216   1 H                                       1.0941442
  2915   6 C     3217   1 H                                       1.0933123
  2915   6 C     3218   1 H                                       1.0901475
  2914   6 C     3219   1 H                                       1.0907709
  2914   6 C     3220   1 H                                       1.0929481
  2913   6 C     3221   1 H                                       1.0918806
  2913   6 C     3222   1 H                                       1.0922275
  2912   6 C     3223   1 H                                       1.0929058
  2912   6 C     3224   1 H                                       1.0917860
  2911   6 C     3225   1 H                                       1.0919310
  2911   6 C     3226   1 H                                       1.0917993
  2910   6 C     3227   1 H                                       1.0904029
  2910   6 C     3228   1 H                                       1.0908248
  2909   6 C     3229   1 H                                       1.0932646
  2909   6 C     3230   1 H                                       1.0922460
  2908   6 C     3231   1 H                                       1.0915253
  2908   6 C     3232   1 H                                       1.0911333
  2907   6 C     3233   1 H                                       1.0904419
  2907   6 C     3234   1 H                                       1.0919317
  2906   6 C     3235   1 H                                       1.0920559
  2906   6 C     3236   1 H                                       1.0926486
  2905   6 C     3237   1 H                                       1.0931768
  2905   6 C     3238   1 H                                       1.0921497
  2904   6 C     3239   1 H                                       1.0913553
  2904   6 C     3240   1 H                                       1.0933651
  2903   6 C     3241   1 H                                       1.0917160
  2903   6 C     3242   1 H                                       1.0918865
  2902   6 C     3243   1 H                                       1.0912424
  2902   6 C     3244   1 H                                       1.0928116
  2901   6 C     3245   1 H                                       1.0930160
  2901   6 C     3246   1 H                                       1.0927197
  2900   6 C     3247   1 H                                       1.0914331
  2900   6 C     3248   1 H                                       1.0913543
  2899   6 C     3249   1 H                                       1.0932811
  2899   6 C     3250   1 H                                       1.0923247
  2898   6 C     3251   1 H                                       1.0930001
  2898   6 C     3252   1 H                                       1.0919565
  2897   6 C     3253   1 H                                       1.0879572
  2897   6 C     3254   1 H                                       1.0869601
  2897   6 C     3255   1 H                                       1.0870025
  3016   6 C     3256   1 H                                       1.0888790
  3016   6 C     3257   1 H                                       1.0875957
  3016   6 C     3258   1 H                                       1.0880233

 * 2 distinct bonds (by element types)

   Z      Z             #   av. dist./Å        max./Å        min./Å
   1 H    6 C        2178     1.0922624     1.0944512     1.0863056
   6 C    6 C        1071     1.5275176     1.5334322     1.5225010


optimized geometry written to: xtbopt.xyz


           -------------------------------------------------
          | TOTAL ENERGY            -3427.521013276350 Eh   |
          | GRADIENT NORM               0.000900992388 Eh/α |
          | HOMO-LUMO GAP              11.530283427195 eV   |
           -------------------------------------------------

------------------------------------------------------------------------
 * finished run on 2024/10/04 at 03:35:42.279     
------------------------------------------------------------------------
 total:
 * wall-time:     0 d,  6 h, 14 min, 29.637 sec
 *  cpu-time:     1 d,  7 h,  3 min, 32.748 sec
 * ratio c/w:     4.976 speedup
 SCF:
 * wall-time:     0 d,  0 h, 14 min, 17.430 sec
 *  cpu-time:     0 d,  1 h, 28 min, 44.052 sec
 * ratio c/w:     6.209 speedup
 ANC optimizer:
 * wall-time:     0 d,  5 h, 59 min, 26.214 sec
 *  cpu-time:     1 d,  5 h, 33 min, 46.208 sec
 * ratio c/w:     4.935 speedup

