3864
 energy: -5104.194202746767 gnorm: 0.000971450124 xtb: 6.6.1 (8d0f1dd)
C           58.74093409550773       50.21113189000079       62.11357764721095
C           59.87388178758613       50.94088387426683       61.77339972479557
C           60.52886597794794       50.62930390532739       60.58704167724241
C           60.08255688630940       49.59498491980560       59.78363464265254
C           58.96270462154696       48.86375814602065       60.14374228615392
C           58.28228588407773       49.18553885506078       61.30489939841746
C           60.41396334292747       51.98524538877803       62.71916793639137
C           61.75673602672800       51.50823938102795       63.28342491873550
C           60.57897334307270       53.36760216152285       62.07469652616085
C           59.25572000564472       53.96201342121356       61.57437723956640
C           58.23141295753547       53.99032752850511       62.68237708576351
C           58.40829872058194       54.80881609871235       63.79344081268574
C           57.47547559064492       54.83076354520522       64.81398252804439
C           56.34675636951059       54.03100827924817       64.74288967182449
C           56.15229794074926       53.21980475987954       63.63823081719073
C           57.08649151720572       53.20652317904540       62.61673668296520
C           59.44816321873898       55.38141611268593       61.00495756764987
C           59.75779517867191       55.42310582518923       59.50488055444249
C           61.12025508430860       54.87723636229777       59.16041237462467
C           62.28176521668843       55.41513842974476       59.70268299663321
C           63.52475216493284       54.94704255721005       59.31610357485733
C           63.62877244931661       53.94726569953179       58.36357876399425
C           62.48009277694808       53.39731823428294       57.82204728587519
C           61.23874979268194       53.85587401682070       58.22569799653868
C           59.65915125034377       56.86099570020494       58.95890305151109
C           58.22569760477804       57.38539391522170       58.77812376637382
C           58.25169675019205       58.83725852606590       58.35873044036578
C           57.48189074805202       59.77070849984749       59.04157369926639
C           57.47407189485698       61.10264304469269       58.66693672172442
C           58.23942795879416       61.52594473760879       57.59504915997453
C           59.00146424749751       60.60447052727664       56.89718173970062
C           59.00426231229946       59.27418910942716       57.27416700597819
C           57.42293291663690       56.56411978143030       57.74655073482695
C           56.47969851238173       55.49988182425969       58.35139399973014
C           56.64760225593714       54.17568207262650       57.64416605718997
C           57.05340817944774       53.04394093052805       58.33961483477558
C           57.24776645256625       51.83515552530544       57.69292463218027
C           57.02022848747858       51.73795646964430       56.33146566622123
C           56.58861643733216       52.85240134585494       55.63200184214859
C           56.40157828704904       54.05888218698944       56.28023956491153
C           55.00445710260406       55.92114494769665       58.26569794205013
C           54.56136509452317       56.95061110926888       59.31993040678982
C           53.33789572966023       57.67384185269081       58.81182805944359
C           52.26338419417486       56.96685376508193       58.28140125714393
C           51.18118461882435       57.62941957010792       57.73429530595266
C           51.14219835256877       59.01146391924870       57.72754327409226
C           52.19003371868087       59.72875499017270       58.27566142504846
C           53.28257531245448       59.06192215867431       58.80605491843694
C           54.28707323599009       56.26104302471174       60.66640464663770
C           54.00484564356648       57.24057747724904       61.81351215835371
C           55.14212621433956       58.20838510464730       62.02893818657898
C           56.42564957718466       57.74797679641771       62.30436772088812
C           57.45590917563183       58.63067676963266       62.57290735464711
C           57.21885791352560       59.99480959407045       62.57961676495201
C           55.94477508837299       60.46524458266531       62.31178993506386
C           54.91630083548025       59.57941318890586       62.03788398391156
C           53.78791876068946       56.51349760374332       63.15356243921040
C           52.49550460785614       55.68779216469336       63.25832386718785
C           51.28889526678029       56.58952179147349       63.18984809906327
C           50.89040485166758       57.35920672785566       64.27700516399391
C           49.79402694457680       58.19856523824899       64.18924098324464
C           49.07544406630533       58.28933928509255       63.00976531586262
C           49.46868207987854       57.53773340092541       61.91759853032742
C           50.56508251411702       56.70006354990613       62.00794785557842
C           52.56117714181069       54.85754759988506       64.54887209985661
C           51.33470898932701       53.96496953165198       64.83019375136881
C           51.04072215159255       53.95432387146037       66.30959616936143
C           49.82028285181983       54.40245624546935       66.79726107255172
C           49.54625826248192       54.38125478317900       68.15403910533784
C           50.49274272580791       53.91015608383167       69.04676384565899
C           51.71484405641624       53.46167086376849       68.57316578410786
C           51.98450614136497       53.48387182277539       67.21707966175795
C           51.53701064762459       52.51628755201375       64.34848586494846
C           51.23936407114235       52.32451199154790       62.84894552369803
C           52.14041533490662       51.25146279167363       62.29060005511619
C           53.32047700289652       51.61882256870571       61.65182536515475
C           54.20700253823511       50.66558875354607       61.18708947110928
C           53.91931904776856       49.32137536211008       61.34104840615915
C           52.74336239149797       48.94235162327884       61.96225788906741
C           51.86939586301629       49.89921133957108       62.44585196402165
C           49.74659912640698       52.05850945371984       62.63612665405623
C           49.35396117200090       51.96747760199784       61.15575019645734
C           47.98149029857360       51.36530337492470       60.98720546496690
C           46.88214190425148       51.91382748287187       61.63947272552683
C           45.60562046145650       51.43786406106196       61.40216461950119
C           45.40775441638817       50.39808947124070       60.51054450551640
C           46.49597529162387       49.81834405818342       59.88324384565840
C           47.77181537605409       50.29983626782094       60.12159968161043
C           49.36299882203797       53.34915447203511       60.48354967546743
C           49.29016705737939       53.23222096231323       58.96211998969774
C           50.54548531965228       52.67759235271115       58.32567191651062
C           50.43221709666469       51.85745521020068       57.20827335514719
C           51.54801645406180       51.45818193317626       56.49505877045490
C           52.80955722272463       51.86769171838729       56.89406714114124
C           52.94196707375038       52.64347549267857       58.03100587933097
C           51.82064410816175       53.05279380660713       58.73087014666243
C           49.05263570075360       54.58849981254177       58.27867178444933
C           47.75801318748552       55.34556714608498       58.62321540665014
C           47.61457162923003       56.47776900204156       57.63218582756413
C           47.41364285618486       56.21252251650964       56.28089794501295
C           47.27200389068024       57.23809453991650       55.36577020749665
C           47.34142029486834       58.55494615644700       55.78579955891246
C           47.55244307848164       58.83457770399593       57.12362225403268
C           47.68738861900852       57.80404724751718       58.03776311294775
C           46.50613588560532       54.45607571309154       58.60935905094615
C           45.23001184470772       55.28619336996260       58.81563416124062
C           45.27721377861140       56.01954452029563       60.13529278825462
C           45.38764011346289       55.32796037154684       61.33620192832977
C           45.46073620350542       56.00217498998711       62.54123037737406
C           45.42644402885217       57.38561941823973       62.56952045752575
C           45.30422411473358       58.08531619771460       61.38213000301044
C           45.22146662621641       57.40739001050628       60.17787841360605
C           43.95573002771867       54.43059640437797       58.75861779940850
C           43.71122782525409       53.65634199615070       57.44785292881492
C           42.31641869175787       53.08341464565400       57.49778126480710
C           42.12462673185571       51.72108006820013       57.69396287399437
C           40.85272187375792       51.18438700051247       57.77817775184887
C           39.74759904245550       52.01051978945061       57.67235034140464
C           39.92532760816866       53.36830089316585       57.47384331323271
C           41.19762336289799       53.90068505107474       57.38750485622806
C           43.93336095534011       54.52842001750995       56.20671874263534
C           43.52159809303313       53.86837367882596       54.87756564891831
C           43.81933266426329       52.39063603454515       54.83322691062476
C           45.11364239426155       51.90115727212200       54.96717371837571
C           45.36512099371232       50.54170456438396       54.91591453024284
C           44.32737235712109       49.64474146462224       54.72387383739624
C           43.03548987508583       50.11959358311658       54.58165470246700
C           42.78938177827428       51.48003736994907       54.63476897715580
C           44.22500511770912       54.57570027957066       53.70551180906837
C           43.59602812476071       55.93961542744443       53.37480094621963
C           44.61098025418330       56.90142142640047       52.81453468687589
C           44.68628926667172       58.20178951032646       53.29758937201701
C           45.60921428158495       59.09662045795764       52.78335181714828
C           46.47392344635099       58.70485344421181       51.77546769902757
C           46.40449179450817       57.41202358154385       51.28449358216732
C           45.47918106485631       56.51988835914623       51.79624895902358
C           42.44669800442725       55.75396355270665       52.37551022850003
C           41.53115307973087       56.97741710146980       52.27820773265026
C           40.77686759839658       57.18732489428934       53.56760367213609
C           39.95379934119680       56.19697986141504       54.09086081592784
C           39.28910845903759       56.38787204227327       55.28759665829197
C           39.41520604256237       57.58311152652908       55.97481124440595
C           40.19823205652341       58.59185000070747       55.44311229305134
C           40.88371052910537       58.38746282671112       54.25919491230886
C           40.55667303945746       56.82442822247206       51.09881003389956
C           41.20928050503785       57.08768392067103       49.73184153527758
H           59.71145773993035       52.08234646094888       63.55596626753838
H           61.01673407777499       54.03725005720417       62.81934141014059
H           61.27623907022746       53.30565743423270       61.23786247430143
H           58.88424667898740       53.30770274990375       60.77921315025645
H           58.52748921861304       55.94450488651891       61.16891466896870
H           60.23836316105615       55.89283786086565       61.55731734722401
H           59.01854934991596       54.81012695444553       58.98327375328157
H           60.19614861834882       57.53886682617311       59.62776187691998
H           60.17551620806260       56.89128295570053       57.99607761229074
H           57.71345160385378       57.34025399354631       59.74431104416298
H           58.13113177807824       56.07890417008962       57.07124350909005
H           56.73572313804638       55.35222168495471       59.40510606525346
H           54.81078007547536       56.32915536602887       57.27062745464704
H           54.38504778297899       55.02947442679803       58.37248237349640
H           55.35960433584589       57.68585376268025       59.45678295592820
H           53.42502275265298       55.60335579581424       60.54271224751086
H           55.14248599421362       55.63596052991919       60.93206354793681
H           53.10115392935612       57.81171882864891       61.57109774843190
H           54.63885719248336       55.85169415325115       63.33359310551104
H           53.78290510797615       57.26235841543113       63.95108202205181
H           52.46283681416793       55.00435483630665       62.40647389506014
H           50.46667262227286       54.39295934967221       64.31871051593704
H           52.56586736327867       52.21280870517310       64.55635366579074
H           50.88934560208696       51.85023642014625       64.92477439742360
H           51.49431722260552       53.25658165988473       62.34211371270401
H           49.46809631277459       51.12558271113144       63.13146412540452
H           49.18550473063626       52.86429382719007       63.11521522023961
H           50.08443686946863       51.32626078836087       60.64874621577903
H           48.50898347868048       53.92477381130668       60.84442681075965
H           50.25744592118529       53.89806979850373       60.77111101637465
H           48.45958212115300       52.56536012785364       58.70956658701078
H           49.89359183657186       55.24303803207410       58.51864273682061
H           49.07531328934446       54.41006153872934       57.20061996064880
H           47.85411281340102       55.77660899118555       59.62580426030678
H           46.44620278174185       53.92820205998037       57.65804967772407
H           46.57835037081882       53.70572083473988       59.39709333267530
H           45.17486412753394       56.04084941092503       58.02646638026427
H           43.98494959225236       53.70244997467300       59.57221618129505
H           43.10280527582568       55.09084078719858       58.94268821856598
H           44.41451863985908       52.81779676204488       57.40997383523007
H           43.37902727805218       55.46199192843112       56.31653437215330
H           44.99057544686489       54.78766462446482       56.15381954261584
H           42.43878375240382       53.98755875618697       54.76121262053982
H           45.27925739269080       54.71246431624246       53.95588243573878
H           44.18190922041404       53.93244880611923       52.82305875773040
H           43.18774340691467       56.37482705995059       54.29269598232102
H           42.87564741796862       55.54659249496272       51.39441552775821
H           41.85313765078649       54.88781722683895       52.67153209759282
H           58.21380652935672       50.44319621787002       63.02943366249561
H           57.39963891293616       48.63275450590347       61.59378698687653
H           58.62881266114714       48.04094845642262       59.52768253809140
H           60.62004641334165       49.34977244102951       58.87915958063738
H           61.40399390260757       51.19029443384823       60.29013168750971
H           59.28625805340939       55.43409147256442       63.86482270902050
H           57.62929727729986       55.47202357669538       65.67027239834509
H           55.62813649720052       54.04368621275096       65.54987121747384
H           55.27707089213660       52.58901927057236       63.56797766061940
H           56.92822133494722       52.56194745947435       61.76379851733281
H           62.21970068467025       56.21261454457065       60.42919279515642
H           64.41941076145001       55.37109155187897       59.75211938746791
H           64.59896293085039       53.60268514085895       58.03825759091052
H           62.55768621198547       52.61864136096341       57.07670507397300
H           60.34243332111694       53.42318732607250       57.80403336025475
H           56.88796412427445       59.45750750980950       59.88778857613957
H           56.87194573173183       61.81078660760724       59.21977051863592
H           58.24750205166279       62.56780776652868       57.30888647731270
H           59.59759995356205       60.92177792647652       56.05372692171569
H           59.61230978133553       58.57855774465060       56.71676406024238
H           56.82909962868851       57.25082323867712       57.13954004919421
H           57.21995615855887       53.10694972557960       59.40640871288689
H           57.58511858310722       50.97611393987526       58.25767866052988
H           57.17736828525852       50.79968822615648       55.81903333557658
H           56.40724936410206       52.78457239362687       54.56948331283972
H           56.05988654241060       54.91940955642341       55.72354639269319
H           52.28278979865150       55.88685052982326       58.26677699912779
H           50.36207984730686       57.07564962459878       57.29963836059733
H           50.29618658452778       59.51637585933648       57.28705162572821
H           52.16073718948041       60.80913256541723       58.28209238149680
H           54.11304084784453       59.62760525401131       59.20844451974900
H           56.62293316161595       56.68574622022170       62.32884631291596
H           58.44662470397734       58.25376551916029       62.78221314425654
H           58.02089876804761       60.68705171756290       62.79066393126736
H           55.75555587472468       61.52974883834367       62.32017333984501
H           53.92248857043464       59.95597219980519       61.83402388705268
H           51.43584063418479       57.30629552001329       65.20803148002953
H           49.50047334650045       58.78718741622701       65.04759895479141
H           48.22045994674382       58.94568296637927       62.93917942219552
H           48.91977714497563       57.60814238962909       60.99070674054892
H           50.86436213469449       56.13215310356382       61.13842511883880
H           53.45442076330682       54.23347012039969       64.49807907857186
H           52.70010141336405       55.53971090105630       65.39088161938619
H           49.07569611613732       54.77314950017042       66.10665449052951
H           48.58941761870523       54.72700533112076       68.51633132739224
H           50.27964693879265       53.89026024372956       70.10590570586579
H           52.45848851135704       53.09070485569016       69.26450804992101
H           52.93976849848316       53.12856936543547       66.85987525277632
H           53.55506144311995       52.66721098411401       61.52526799538726
H           55.12359635887864       50.96837215598656       60.70128623831705
H           54.60950056533111       48.57556326120621       60.97418628614336
H           52.50970106196970       47.89598817284888       62.08543266615155
H           50.97028761469375       49.58494551797418       62.95385597010091
H           47.02487689989808       52.73155651716203       62.33221357666204
H           44.75715307357769       51.88061317523281       61.90510618599033
H           44.40533379476699       50.05210476383446       60.30742251194384
H           46.35424499909152       48.99325730498461       59.20063672726944
H           48.61761875543436       49.84780264539373       59.62299097741429
H           49.45229889417091       51.53698082740667       56.88331741890802
H           51.43337560822574       50.81907375144902       55.63164168578969
H           53.68420970452945       51.57327377510600       56.33245005828991
H           53.92862757707857       52.92894491134730       58.36837178089716
H           51.95119381173284       53.67756160644404       59.60194279927182
H           47.37152325990105       55.19047012257824       55.93229548894637
H           47.09834150045639       57.01266327551653       54.32370537631196
H           47.23245567922542       59.35694907984401       55.07284364312643
H           47.60479833652668       59.86272731576972       57.45597741951892
H           47.84730889437017       58.03675250277494       59.08166204992937
H           45.41999969129525       54.24946159578963       61.32905471488491
H           45.55144886049094       55.44949666010427       63.46655354457719
H           45.49257950206510       57.91445337144987       63.51028362934280
H           45.28037139809607       59.16678599364869       61.39626676607100
H           45.11739343817846       57.96721788082456       59.25863078718130
H           42.98326162203175       51.07014344611313       57.78295772831812
H           40.72856865328966       50.12142734181570       57.92956237129921
H           38.74967460472273       51.60229528268931       57.75189209996329
H           39.06924082221504       54.02431626330939       57.40214661580035
H           41.30685979274087       54.96545979061942       57.23696856721958
H           45.93403823753361       52.58880115814699       55.11573520468048
H           46.37588427639020       50.17539471283471       55.02854720259521
H           44.52641401961785       48.58268014217740       54.68588856774404
H           42.21291643470978       49.43303363663716       54.43597786074129
H           41.77414446714118       51.83831312223919       54.53527854305356
H           44.02154225472445       58.51481521393397       54.09119105427528
H           45.65154124688370       60.10172539630054       53.18075352620311
H           47.19631365553821       59.39636461461175       51.36628173436646
H           47.07687222491383       57.10337602640389       50.49696123816501
H           45.43663175597460       55.51327203484861       51.40569526591251
H           41.50924364430079       59.17850347650058       53.86996903149677
H           40.27936033938933       59.53896173050672       55.95578021548582
H           38.89974168665779       57.73341252484942       56.91323194050822
H           38.66400794970583       55.60181345101747       55.68616580747731
H           39.83040025468478       55.26616627958312       53.55801107014339
H           62.50286657813635       51.44227701042314       62.49468560405343
H           62.11833961540966       52.20039726278016       64.04117352369813
H           61.65059482864470       50.52499264483667       63.73815429087552
H           42.14846715779424       57.86375438285860       52.10607081448320
H           40.14288584181909       55.81197569901385       51.10041338949596
H           39.72000416980428       57.51530630371484       51.22778616030925
C           41.58190463658163       58.57163961212814       49.52747090361285
C           40.28654067048562       56.57823747687993       48.65285404642978
C           39.09629964796459       57.23236634795897       48.35795566406293
C           38.23921878942306       56.74021570517097       47.39085973247116
C           38.57620801039516       55.60160318793129       46.67968618674954
C           39.76490443759638       54.95087202810951       46.95503294944918
C           40.60445801723756       55.42578923579384       47.94643818579684
H           38.83209220412702       58.13966415710233       48.87949877963284
H           37.31093083532427       57.25578020006598       47.18648145566058
H           37.91780624987847       55.22179544869168       45.91283172918580
H           40.03406298293315       54.07766990182203       46.38078562590354
H           41.52355598615178       54.90098675506373       48.16680378322781
C           43.09962944137486       58.78501274189599       49.51335399421487
H           41.17251423977298       58.92251806299000       48.57757753218640
H           41.14190785311966       59.18752582111770       50.31409623830131
C           43.48342560354129       60.21727279273857       49.26874306702645
C           44.06306254675417       60.97604919851944       50.27722814450254
C           44.48519553801314       62.27187733098219       50.03746692515286
C           44.31771710217268       62.83735779941769       48.78505921739124
C           43.70755262208941       62.10217398737485       47.78216574569360
C           43.29708849102337       60.80260628222218       48.02158148003051
H           44.20572734992790       60.53403815342555       51.25279519255788
H           44.95212810841502       62.84361882180013       50.82645280955555
H           44.66684778120828       63.84240126790137       48.59389460968991
H           43.56852416237358       62.53453360862020       46.80013992759465
H           42.84507481867248       60.22990195378573       47.22381424895506
H           42.12725571962379       56.49457502478884       49.67903568607742
H           43.53170457958699       58.45140970284274       50.45905948668109
H           43.52743072686633       58.16735237751989       48.71896475217082
C           38.73277771160389       30.53246091397815       48.03705000680446
C           38.34953129458439       31.21146570910728       46.88598757318874
C           38.14075128956282       30.47650818056281       45.72585497361742
C           38.31299811665066       29.10327938604853       45.71214966838355
C           38.69905096124202       28.44035018758122       46.86422995070102
C           38.90830838851586       29.16092298192725       48.02795568771717
C           38.16148853861247       32.70765383483447       46.88647126247498
C           37.04587630335921       33.11351069002720       47.85312388970647
C           39.46519766778428       33.43229727217480       47.24307844814851
C           40.60727021140649       33.10372775160621       46.27217548402076
C           40.27442520478827       33.52952636579455       44.86425376312553
C           39.94386061819166       34.84728404477972       44.56962804687904
C           39.65320186675705       35.23476920684527       43.27454670941714
C           39.69903091363350       34.31092345659009       42.24512559366464
C           40.03110046073977       32.99693997769349       42.52294761213954
C           40.31382402379798       32.61219003705456       43.82196430221500
C           41.90861339557873       33.77092728222298       46.73859669826446
C           43.11416487061542       33.41874510406475       45.84036708884646
C           44.06356110684017       32.47968257534318       46.53541889167134
C           44.72545648167086       32.86558502012133       47.69495593753846
C           45.61669010057000       32.01424295428524       48.31824051988520
C           45.86218002045745       30.75582399950930       47.79624054982776
C           45.20040699360071       30.35528043134562       46.64888897430529
C           44.30879146437619       31.21159766320115       46.02581303638077
C           43.83456485645666       34.70030919298010       45.40370381458254
C           45.03434701485388       34.45408497602322       44.47873273065348
C           44.62251160312837       33.69362267444221       43.24651523656841
C           43.62593482773789       34.16659138406613       42.40066946237464
C           43.24184649934918       33.44312322167652       41.28700638561656
C           43.85008359345982       32.23479812204677       40.99453434719624
C           44.84685473443409       31.75483655603116       41.82695108459915
C           45.22557648748725       32.47897853897103       42.94315512304674
C           45.66277944785222       35.80965547995816       44.13214914203826
C           46.97373417298916       35.74052640601639       43.33481600508520
C           47.98011998048713       34.80911371603002       43.95814856175906
C           48.44497581524207       33.70397087890083       43.25650323245802
C           49.42088998476625       32.88094038972860       43.79146937838351
C           49.95844192751576       33.15804854022200       45.03633189220915
C           49.49564774235986       34.25055791386875       45.74969129077166
C           48.51031683187822       35.06112868328188       45.21811956412993
C           47.54614719264001       37.16473672552673       43.24790832402918
C           48.93865490092651       37.25747590357046       42.60505305082987
C           48.84931152314457       37.17904196924366       41.10455594013754
C           48.22297002418816       38.17712706267294       40.36487416946463
C           48.16060336047820       38.10222982052935       38.98502128440050
C           48.72134814846068       37.02588260742005       38.31799928256679
C           49.33738892827790       36.02121399363754       39.04406090117141
C           49.39901771919239       36.09945712997705       40.42460777506072
C           49.60751216879229       38.55787807873856       43.06682462819916
C           51.01780895682548       38.77409879518558       42.50250621315002
C           51.94037118678827       37.68877220566080       42.99188516917848
C           52.27174880117237       37.58445592820033       44.33697944966165
C           53.07229059806343       36.55533298848763       44.79602607715845
C           53.57565154581476       35.61816672212144       43.90955389184168
C           53.27224964686621       35.72343835289043       42.56306565570004
C           52.45803984691351       36.74734725481746       42.11104663318614
C           51.51445817290201       40.17443146012386       42.89714514884835
C           50.88799544843243       41.27275799700335       42.01997535589553
C           51.70829495234342       41.47826656314913       40.77172133087451
C           52.81315787576233       42.32194934789469       40.76497476291917
C           53.50200726420542       42.57793585048324       39.59363283401262