      -----------------------------------------------------------      
     |                   =====================                   |     
     |                           x T B                           |     
     |                   =====================                   |     
     |                         S. Grimme                         |     
     |          Mulliken Center for Theoretical Chemistry        |     
     |                    University of Bonn                     |     
      -----------------------------------------------------------      

   * xtb version 6.6.1 (8d0f1dd) compiled by 'stahn@M-Bot' on 2023-08-01

   xtb is free software: you can redistribute it and/or modify it under
   the terms of the GNU Lesser General Public License as published by
   the Free Software Foundation, either version 3 of the License, or
   (at your option) any later version.
   
   xtb is distributed in the hope that it will be useful,
   but WITHOUT ANY WARRANTY; without even the implied warranty of
   MERCHANTABILITY or FITNESS FOR A PARTICULAR PURPOSE.  See the
   GNU Lesser General Public License for more details.
   
   Cite this work as:
   * C. Bannwarth, E. Caldeweyher, S. Ehlert, A. Hansen, P. Pracht,
     J. Seibert, S. Spicher, S. Grimme, WIREs Comput. Mol. Sci., 2020, 11,
     e01493. DOI: 10.1002/wcms.1493
   
   for GFN2-xTB:
   * C. Bannwarth, S. Ehlert and S. Grimme., J. Chem. Theory Comput., 2019,
     15, 1652-1671. DOI: 10.1021/acs.jctc.8b01176
   for GFN1-xTB:
   * S. Grimme, C. Bannwarth, P. Shushkov, J. Chem. Theory Comput., 2017,
     13, 1989-2009. DOI: 10.1021/acs.jctc.7b00118
   for GFN0-xTB:
   * P. Pracht, E. Caldeweyher, S. Ehlert, S. Grimme, ChemRxiv, 2019, preprint.
     DOI: 10.26434/chemrxiv.8326202.v1
   for GFN-FF:
   * S. Spicher and S. Grimme, Angew. Chem. Int. Ed., 2020, 59, 15665-15673.
     DOI: 10.1002/anie.202004239
   
   for ALPB and GBSA implicit solvation:
   * S. Ehlert, M. Stahn, S. Spicher, S. Grimme, J. Chem. Theory Comput.,
     2021, 17, 4250-4261. DOI: 10.1021/acs.jctc.1c00471
   
   for DFT-D4:
   * E. Caldeweyher, C. Bannwarth and S. Grimme, J. Chem. Phys., 2017,
     147, 034112. DOI: 10.1063/1.4993215
   * E. Caldeweyher, S. Ehlert, A. Hansen, H. Neugebauer, S. Spicher,
     C. Bannwarth and S. Grimme, J. Chem. Phys., 2019, 150, 154122.
     DOI: 10.1063/1.5090222
   * E. Caldeweyher, J.-M. Mewes, S. Ehlert and S. Grimme, Phys. Chem. Chem. Phys.
     2020, 22, 8499-8512. DOI: 10.1039/D0CP00502A
   
   for sTDA-xTB:
   * S. Grimme and C. Bannwarth, J. Chem. Phys., 2016, 145, 054103.
     DOI: 10.1063/1.4959605
   
   in the mass-spec context:
   * V. Asgeirsson, C. Bauer and S. Grimme, Chem. Sci., 2017, 8, 4879.
     DOI: 10.1039/c7sc00601b
   * J. Koopman and S. Grimme, ACS Omega 2019, 4, 12, 15120-15133.
     DOI: 10.1021/acsomega.9b02011
   
   for metadynamics refer to:
   * S. Grimme, J. Chem. Theory Comput., 2019, 155, 2847-2862
     DOI: 10.1021/acs.jctc.9b00143
   
   for SPH calculations refer to:
   * S. Spicher and S. Grimme, J. Chem. Theory Comput., 2021, 17, 1701-1714
     DOI: 10.1021/acs.jctc.0c01306
   
   with help from (in alphabetical order)
   P. Atkinson, C. Bannwarth, F. Bohle, G. Brandenburg, E. Caldeweyher
   M. Checinski, S. Dohm, S. Ehlert, S. Ehrlich, I. Gerasimov, C. Hölzer
   A. Katbashev, J. Koopman, C. Lavigne, S. Lehtola, F. März, M. Müller,
   F. Musil, H. Neugebauer, J. Pisarek, C. Plett, P. Pracht, F. Pultar,
   J. Seibert, P. Shushkov, S. Spicher, M. Stahn, M. Steiner, T. Strunk,
   J. Stückrath, T. Rose, and J. Unsleber
   
 * started run on 2024/10/04 at 19:45:37.262     

           -------------------------------------------------
          |                Calculation Setup                |
           -------------------------------------------------

          program call               : /home/abt-grimme/AK-bin/xtb input.xyz --input input.inp --opt
          hostname                   : boar071.thch.uni-bonn.de
          coordinate file            : input.xyz
          omp threads                :                     8

   ID    Z sym.   atoms
    1    6 C      1-146, 294-300, 306, 309-314, 323-468, 616-622, 628,
                  631-636, 645-790, 938-944, 950, 953-958, 967-1112,
                  1260-1266, 1272, 1275-1280, 1289-1434, 1582-1588, 1594,
                  1597-1602, 1611-1756, 1904-1910, 1916, 1919-1924,
                  1933-2078, 2226-2232, 2238, 2241-2246, 2255-2400,
                  2548-2554, 2560, 2563-2568, 2577-2722, 2870-2876, 2882,
                  2885-2890, 2899-3044, 3192-3198, 3204, 3207-3212,
                  3221-3366, 3514-3520, 3526, 3529-3534, 3543-3688,
                  3836-3842, 3848, 3851-3856
    2    1 H      147-293, 301-305, 307, 308, 315-322, 469-615, 623-627, 629,
                  630, 637-644, 791-937, 945-949, 951, 952, 959-966,
                  1113-1259, 1267-1271, 1273, 1274, 1281-1288, 1435-1581,
                  1589-1593, 1595, 1596, 1603-1610, 1757-1903, 1911-1915,
                  1917, 1918, 1925-1932, 2079-2225, 2233-2237, 2239, 2240,
                  2247-2254, 2401-2547, 2555-2559, 2561, 2562, 2569-2576,
                  2723-2869, 2877-2881, 2883, 2884, 2891-2898, 3045-3191,
                  3199-3203, 3205, 3206, 3213-3220, 3367-3513, 3521-3525,
                  3527, 3528, 3535-3542, 3689-3835, 3843-3847, 3849, 3850,
                  3857-3864

molecular fragmentation (1/2 indicates fragments):
111111111111111111111111111111111111111111111111111111111111111111111111
111111111111111111111111111111111111111111111111111111111111111111111111
111111111111111111111111111111111111111111111111111111111111111111111111
111111111111111111111111111111111111111111111111111111111111111111111111
111111111111111111111111111111111122222222222222222222222222222222222222
222222222222222222222222222222222222222222222222222222222222222222222222
222222222222222222222222222222222222222222222222222222222222222222222222
222222222222222222222222222222222222222222222222222222222222222222222222
222222222222222222222222222222222222222222222222222222222222222222222222
222222222222222222222222222222222222222222222222222222222222222222222222
222222222222222222222222222222222222222222222222222222222222222222222222
222222222222222222222222222222222222222222222222222222222222222222222222
222222222222222222222222222222222222222222222222222222222222222222222222
222222222222222222222222222222222222222222222222222222222222222222222222
222222222222222222222222222222222222222222222222222222222222222222222222
222222222222222222222222222222222222222222222222222222222222222222222222
222222222222222222222222222222222222222222222222222222222222222222222222
222222222222222222222222222222222222222222222222222222222222222222222222
222222222222222222222222222222222222222222222222222222222222222222222222
222222222222222222222222222222222222222222222222222222222222222222222222
222222222222222222222222222222222222222222222222222222222222222222222222
222222222222222222222222222222222222222222222222222222222222222222222222
222222222222222222222222222222222222222222222222222222222222222222222222
222222222222222222222222222222222222222222222222222222222222222222222222
222222222222222222222222222222222222222222222222222222222222222222222222
222222222222222222222222222222222222222222222222222222222222222222222222
222222222222222222222222222222222222222222222222222222222222222222222222
222222222222222222222222222222222222222222222222222222222222222222222222
222222222222222222222222222222222222222222222222222222222222222222222222
222222222222222222222222222222222222222222222222222222222222222222222222
222222222222222222222222222222222222222222222222222222222222222222222222
222222222222222222222222222222222222222222222222222222222222222222222222
222222222222222222222222222222222222222222222222222222222222222222222222
222222222222222222222222222222222222222222222222222222222222222222222222
222222222222222222222222222222222222222222222222222222222222222222222222
222222222222222222222222222222222222222222222222222222222222222222222222
222222222222222222222222222222222222222222222222222222222222222222222222
222222222222222222222222222222222222222222222222222222222222222222222222
222222222222222222222222222222222222222222222222222222222222222222222222
222222222222222222222222222222222222222222222222222222222222222222222222
222222222222222222222222222222222222222222222222222222222222222222222222
222222222222222222222222222222222222222222222222222222222222222222222222
222222222222222222222222222222222222222222222222222222222222222222222222
222222222222222222222222222222222222222222222222222222222222222222222222
222222222222222222222222222222222222222222222222222222222222222222222222
222222222222222222222222222222222222222222222222222222222222222222222222
222222222222222222222222222222222222222222222222222222222222222222222222
222222222222222222222222222222222222222222222222222222222222222222222222
222222222222222222222222222222222222222222222222222222222222222222222222
222222222222222222222222222222222222222222222222222222222222222222222222
222222222222222222222222222222222222222222222222222222222222222222222222
222222222222222222222222222222222222222222222222222222222222222222222222
222222222222222222222222222222222222222222222222222222222222222222222222
222222222222222222222222222222222222222222222222
# atoms in fragment 1/2:   322  3542
 fragment masses (1/2) :     2085.00    22935.05
CMA distance (Bohr)    :  21.587
constraining FC (au)   :  0.0500

           -------------------------------------------------
          |                 G F N 2 - x T B                 |
           -------------------------------------------------

        Reference                      10.1021/acs.jctc.8b01176
      * Hamiltonian:
        H0-scaling (s, p, d)           1.850000    2.230000    2.230000
        zeta-weighting                 0.500000
      * Dispersion:
        s8                             2.700000
        a1                             0.520000
        a2                             5.000000
        s9                             5.000000
      * Repulsion:
        kExp                           1.500000    1.000000
        rExp                           1.000000
      * Coulomb:
        alpha                          2.000000
        third order                    shell-resolved
        anisotropic                    true
        a3                             3.000000
        a5                             4.000000
        cn-shift                       1.200000
        cn-exp                         4.000000
        max-rad                        5.000000


          ...................................................
          :                      SETUP                      :
          :.................................................:
          :  # basis functions                9624          :
          :  # atomic orbitals                9624          :
          :  # shells                         5784          :
          :  # electrons                      9624          :
          :  max. iterations                   250          :
          :  Hamiltonian                  GFN2-xTB          :
          :  restarted?                      false          :
          :  GBSA solvation                  false          :
          :  PC potential                    false          :
          :  electronic temp.          300.0000000     K    :
          :  accuracy                    1.0000000          :
          :  -> integral cutoff          0.2500000E+02      :
          :  -> integral neglect         0.1000000E-07      :
          :  -> SCF convergence          0.1000000E-05 Eh   :
          :  -> wf. convergence          0.1000000E-03 e    :
          :  Broyden damping             0.4000000          :
          ...................................................

 iter      E             dE          RMSdq      gap      omega  full diag
   1  -5195.6918668 -0.519569E+04  0.369E+00    4.26       0.0  T
   2  -5198.2628039 -0.257094E+01  0.217E+00    4.28       1.0  T
   3  -5198.1940231  0.687807E-01  0.494E-01    4.10       1.0  T
   4  -5198.3968767 -0.202854E+00  0.241E-01    4.01       1.0  T
   5  -5198.5487426 -0.151866E+00  0.459E-02    4.08       1.0  T
   6  -5198.5506072 -0.186466E-02  0.284E-02    4.08       1.0  T
   7  -5198.5517711 -0.116385E-02  0.110E-02    4.08       1.0  T
   8  -5198.5520903 -0.319165E-03  0.288E-03    4.08       1.0  T
   9  -5198.5521073 -0.170285E-04  0.126E-03    4.08       1.3  T
  10  -5198.5521091 -0.177381E-05  0.559E-04    4.08       2.9  T
  11  -5198.5521094 -0.387981E-06  0.294E-04    4.08       5.5  T
  12  -5198.5521096 -0.181551E-06  0.102E-04    4.08      15.7  T

   *** convergence criteria satisfied after 12 iterations ***

         #    Occupation            Energy/Eh            Energy/eV
      -------------------------------------------------------------
         1        2.0000           -0.6519713             -17.7410
       ...           ...                  ...                  ...
      4806        2.0000           -0.3814586             -10.3800
      4807        2.0000           -0.3814275             -10.3792
      4808        2.0000           -0.3812565             -10.3745
      4809        2.0000           -0.3807910             -10.3619
      4810        2.0000           -0.3801139             -10.3434
      4811        2.0000           -0.3798903             -10.3373
      4812        2.0000           -0.3793449             -10.3225 (HOMO)
      4813                         -0.2293260              -6.2403 (LUMO)
      4814                         -0.2274439              -6.1891
      4815                         -0.2273705              -6.1871
      4816                         -0.2270840              -6.1793
      4817                         -0.2269543              -6.1757
       ...                                ...                  ...
      9624                          0.6807839              18.5251
      -------------------------------------------------------------
                  HL-Gap            0.1500189 Eh            4.0822 eV
             Fermi-level           -0.3043354 Eh           -8.2814 eV

 SCC (total)                   0 d,  0 h, 48 min, 22.680 sec
 SCC setup                      ...        0 min,  0.729 sec (  0.025%)
 Dispersion                     ...        0 min,  6.927 sec (  0.239%)
 classical contributions        ...        0 min,  0.151 sec (  0.005%)
 integral evaluation            ...        0 min, 12.242 sec (  0.422%)
 iterations                     ...       42 min, 30.868 sec ( 87.880%)
 molecular gradient             ...        5 min,  5.117 sec ( 10.512%)
 printout                       ...        0 min, 26.646 sec (  0.918%)

         :::::::::::::::::::::::::::::::::::::::::::::::::::::
         ::                     SUMMARY                     ::
         :::::::::::::::::::::::::::::::::::::::::::::::::::::
         :: total energy           -5104.038390505945 Eh    ::
         :: gradient norm              0.022435042650 Eh/a0 ::
         :: HOMO-LUMO gap              4.082222346517 eV    ::
         ::.................................................::
         :: SCC energy             -5198.552109626769 Eh    ::
         :: -> isotropic ES            0.265598287821 Eh    ::
         :: -> anisotropic ES          0.791715838063 Eh    ::
         :: -> anisotropic XC          3.251718333042 Eh    ::
         :: -> dispersion             -6.993217084443 Eh    ::
         :: repulsion energy          93.377006508602 Eh    ::
         :: add. restraining           0.000000000000 Eh    ::
         :: total charge              -0.000000000027 e     ::
         :::::::::::::::::::::::::::::::::::::::::::::::::::::

      ----------------------------------------------------------- 
     |              Fast Inertial Relaxation Engine              |
      ----------------------------------------------------------- 

          ...................................................
          :                      SETUP                      :
          :.................................................:
          :   energy convergence        0.5000000E-05 Eh    :
          :   grad. convergence         0.1000000E-02 Eh/a0 :
          :   optimization log               true           :
          :   writing optlog all                1     steps :
          :   Hessian reset                    20     steps :
          :   time step scaling                 5     steps :
          :   maximium step len.        1.0000000     a0    :
          :   initial time step         0.2500000     fs    :
          :   maximum time step         1.2500000     fs    :
          :   power reset thr           0.0000000     au    :
          :   alpha parameter           0.1000000           :
          :   BFGS update                   false           :
          :   preconditioning               false           :
          ...................................................

........................................................................
.............................. CYCLE    1 ..............................
........................................................................

 iter      E             dE          RMSdq      gap      omega  full diag
   1  -5198.5532480 -0.519855E+04  0.312E-04    4.08       0.0  T
   2  -5198.5532480 -0.149666E-07  0.192E-04    4.08       8.4  T
   3  -5198.5532480  0.288301E-07  0.822E-05    4.08      19.6  T
     SCC iter.                  ...       10 min, 35.032 sec
     gradient                   ...        5 min,  5.216 sec
 * total energy  : -5104.0384476 Eh     change    :  -0.5714276E-04 Eh
   gradient norm :     0.0210478 Eh/a0  converged?    E=F G=F D=F
   time step     :     0.2500000 fs     power     :   0.2934958E-08
   step length   :     0.0026293 a0     speed     :   0.2544027E-03

........................................................................
.............................. CYCLE    2 ..............................
........................................................................

 iter      E             dE          RMSdq      gap      omega  full diag
   1  -5198.5549349 -0.519855E+04  0.458E-04    4.08       0.0  T
   2  -5198.5549349 -0.288255E-07  0.280E-04    4.08       5.7  T
   3  -5198.5549349  0.420368E-07  0.102E-04    4.08      15.8  T
     SCC iter.                  ...       10 min, 41.222 sec
     gradient                   ...        5 min,  3.479 sec
 * total energy  : -5104.0385250 Eh     change    :  -0.7730559E-04 Eh
   gradient norm :     0.0190887 Eh/a0  converged?    E=F G=F D=F
   time step     :     0.2500000 fs     power     :   0.3895948E-08
   step length   :     0.0038619 a0     speed     :   0.3736638E-03

........................................................................
.............................. CYCLE    3 ..............................
........................................................................

 iter      E             dE          RMSdq      gap      omega  full diag
   1  -5198.5571568 -0.519856E+04  0.589E-04    4.08       0.0  T
   2  -5198.5571569 -0.445389E-07  0.360E-04    4.08       4.5  T
   3  -5198.5571568  0.640212E-07  0.123E-04    4.08      13.1  T
     SCC iter.                  ...       10 min, 42.920 sec
     gradient                   ...        5 min,  3.905 sec
 * total energy  : -5104.0386134 Eh     change    :  -0.8844691E-04 Eh
   gradient norm :     0.0167531 Eh/a0  converged?    E=F G=F D=F
   time step     :     0.2500000 fs     power     :   0.4361866E-08
   step length   :     0.0049760 a0     speed     :   0.4814521E-03

........................................................................
.............................. CYCLE    4 ..............................
........................................................................

 iter      E             dE          RMSdq      gap      omega  full diag
   1  -5198.5599007 -0.519856E+04  0.702E-04    4.08       0.0  T
   2  -5198.5599008 -0.589862E-07  0.431E-04    4.08       3.7  T
   3  -5198.5599007  0.973332E-07  0.146E-04    4.08      11.0  T
     SCC iter.                  ...       10 min, 44.646 sec
     gradient                   ...        5 min,  3.796 sec
 * total energy  : -5104.0387035 Eh     change    :  -0.9012298E-04 Eh
   gradient norm :     0.0143007 Eh/a0  converged?    E=F G=F D=F
   time step     :     0.2500000 fs     power     :   0.4335714E-08
   step length   :     0.0059419 a0     speed     :   0.5749072E-03

........................................................................
.............................. CYCLE    5 ..............................
........................................................................

 iter      E             dE          RMSdq      gap      omega  full diag
   1  -5198.5631510 -0.519856E+04  0.794E-04    4.08       0.0  T
   2  -5198.5631511 -0.696200E-07  0.490E-04    4.08       3.3  T
   3  -5198.5631509  0.143689E-06  0.170E-04    4.08       9.4  T
     SCC iter.                  ...       10 min, 49.582 sec
     gradient                   ...        5 min,  6.011 sec
 * total energy  : -5104.0387873 Eh     change    :  -0.8372687E-04 Eh
   gradient norm :     0.0120538 Eh/a0  converged?    E=F G=F D=F
   time step     :     0.2500000 fs     power     :   0.3909453E-08
   step length   :     0.0067360 a0     speed     :   0.6517467E-03

........................................................................
.............................. CYCLE    6 ..............................
........................................................................

 iter      E             dE          RMSdq      gap      omega  full diag
   1  -5198.5672987 -0.519857E+04  0.956E-04    4.08       0.0  T
   2  -5198.5672988 -0.928603E-07  0.594E-04    4.09       2.7  T
   3  -5198.5672986  0.276046E-06  0.226E-04    4.09       7.1  T
     SCC iter.                  ...       10 min, 41.224 sec
     gradient                   ...        5 min,  5.036 sec
 * total energy  : -5104.0388658 Eh     change    :  -0.7857642E-04 Eh
   gradient norm :     0.0101938 Eh/a0  converged?    E=F G=F D=F
   time step     :     0.2750000 fs     power     :   0.3157082E-08
   step length   :     0.0081439 a0     speed     :   0.7163290E-03

........................................................................
.............................. CYCLE    7 ..............................
........................................................................

 iter      E             dE          RMSdq      gap      omega  full diag
   1  -5198.5724466 -0.519857E+04  0.111E-03    4.09       0.0  T
   2  -5198.5724467 -0.112765E-06  0.697E-04    4.09       2.3  T
   3  -5198.5724462  0.483920E-06  0.292E-04    4.09       5.5  T
     SCC iter.                  ...       10 min, 45.388 sec
     gradient                   ...        5 min,  4.875 sec
 * total energy  : -5104.0389324 Eh     change    :  -0.6658478E-04 Eh
   gradient norm :     0.0091176 Eh/a0  converged?    E=F G=F D=F
   time step     :     0.3025000 fs     power     :   0.2244970E-08
   step length   :     0.0095215 a0     speed     :   0.7613725E-03

........................................................................
.............................. CYCLE    8 ..............................
........................................................................

 iter      E             dE          RMSdq      gap      omega  full diag
   1  -5198.5785611 -0.519858E+04  0.124E-03    4.09       0.0  T
   2  -5198.5785612 -0.130287E-06  0.786E-04    4.09       2.0  T
   3  -5198.5785605  0.734130E-06  0.359E-04    4.09       4.5  T
     SCC iter.                  ...       10 min, 44.548 sec
     gradient                   ...        5 min,  4.411 sec
 * total energy  : -5104.0389837 Eh     change    :  -0.5131621E-04 Eh
   gradient norm :     0.0087258 Eh/a0  converged?    E=F G=F D=F
   time step     :     0.3327500 fs     power     :   0.1389097E-08
   step length   :     0.0107293 a0     speed     :   0.7799554E-03

........................................................................
.............................. CYCLE    9 ..............................
........................................................................

 iter      E             dE          RMSdq      gap      omega  full diag
   1  -5198.5853905 -0.519859E+04  0.133E-03    4.09       0.0  T
   2  -5198.5853907 -0.151330E-06  0.850E-04    4.09       1.9  T
   3  -5198.5853898  0.885893E-06  0.404E-04    4.09       4.0  T
     SCC iter.                  ...       10 min, 46.208 sec
     gradient                   ...        5 min,  4.307 sec
 * total energy  : -5104.0390200 Eh     change    :  -0.3629130E-04 Eh
   gradient norm :     0.0084832 Eh/a0  converged?    E=F G=F D=F
   time step     :     0.3660250 fs     power     :   0.7026062E-09
   step length   :     0.0116778 a0     speed     :   0.7717281E-03

........................................................................
.............................. CYCLE   10 ..............................
........................................................................

 iter      E             dE          RMSdq      gap      omega  full diag
   1  -5198.5924480 -0.519859E+04  0.139E-03    4.09       0.0  T
   2  -5198.5924481 -0.175526E-06  0.879E-04    4.09       1.8  T
   3  -5198.5924473  0.863283E-06  0.416E-04    4.09       3.9  T
     SCC iter.                  ...       10 min, 43.028 sec
     gradient                   ...        5 min,  6.289 sec
 * total energy  : -5104.0390424 Eh     change    :  -0.2234443E-04 Eh
   gradient norm :     0.0082068 Eh/a0  converged?    E=F G=F D=F
   time step     :     0.4026275 fs     power     :   0.1540668E-09
   step length   :     0.0123556 a0     speed     :   0.7422928E-03

........................................................................
.............................. CYCLE   11 ..............................
........................................................................

 iter      E             dE          RMSdq      gap      omega  full diag
   1  -5198.5990010 -0.519860E+04  0.140E-03    4.09       0.0  T
   2  -5198.5990012 -0.185180E-06  0.867E-04    4.09       1.9  T
   3  -5198.5990005  0.675413E-06  0.382E-04    4.09       4.2  T
     SCC iter.                  ...       10 min, 42.550 sec
     gradient                   ...        5 min,  7.001 sec
 * total energy  : -5104.0390516 Eh     change    :  -0.9266202E-05 Eh
   gradient norm :     0.0083351 Eh/a0  converged?    E=F G=F D=F
   time step     :     0.4428903 fs     power     :  -0.2704682E-09
   step length   :     0.0127391 a0     speed     :   0.6957559E-03

........................................................................
.............................. CYCLE   12 ..............................
........................................................................
 * reset velocities

 iter      E             dE          RMSdq      gap      omega  full diag
   1  -5198.5988365 -0.519860E+04  0.618E-05    4.09       0.0  T
   2  -5198.5988365 -0.562341E-08  0.550E-05    4.09      29.3  T
   3  -5198.5988365 -0.126638E-07  0.196E-05    4.09      82.3  T
     SCC iter.                  ...       10 min, 43.750 sec
     gradient                   ...        5 min,  4.932 sec
 * total energy  : -5104.0390556 Eh     change    :  -0.3987636E-05 Eh
   gradient norm :     0.0081912 Eh/a0  converged?    E=T G=F D=T
   time step     :     0.2214451 fs     power     :   0.1880816E-09
   step length   :     0.0003832 a0     speed     :   0.4186031E-04

........................................................................
.............................. CYCLE   13 ..............................
........................................................................

 iter      E             dE          RMSdq      gap      omega  full diag
   1  -5198.5984977 -0.519860E+04  0.743E-05    4.09       0.0  T
   2  -5198.5984977 -0.110776E-08  0.516E-05    4.09      31.2  T
   3  -5198.5984977  0.233922E-08  0.225E-05    4.09      71.6  T
     SCC iter.                  ...       10 min, 47.528 sec
     gradient                   ...        5 min,  4.528 sec
 * total energy  : -5104.0390617 Eh     change    :  -0.6099606E-05 Eh
   gradient norm :     0.0078668 Eh/a0  converged?    E=F G=F D=T
   time step     :     0.2214451 fs     power     :   0.3580474E-09
   step length   :     0.0007598 a0     speed     :   0.8299592E-04

........................................................................
.............................. CYCLE   14 ..............................
........................................................................

 iter      E             dE          RMSdq      gap      omega  full diag
   1  -5198.5979878 -0.519860E+04  0.106E-04    4.09       0.0  T
   2  -5198.5979878 -0.247292E-08  0.746E-05    4.09      21.6  T
   3  -5198.5979878  0.474665E-08  0.324E-05    4.09      49.7  T
     SCC iter.                  ...       10 min, 44.959 sec
     gradient                   ...        5 min,  3.625 sec
 * total energy  : -5104.0390703 Eh     change    :  -0.8537936E-05 Eh
   gradient norm :     0.0073968 Eh/a0  converged?    E=F G=F D=F
   time step     :     0.2214451 fs     power     :   0.4964211E-09
   step length   :     0.0011214 a0     speed     :   0.1224939E-03

........................................................................
.............................. CYCLE   15 ..............................
........................................................................

 iter      E             dE          RMSdq      gap      omega  full diag
   1  -5198.5973120 -0.519860E+04  0.138E-04    4.09       0.0  T
   2  -5198.5973120 -0.431737E-08  0.968E-05    4.09      16.6  T
   3  -5198.5973120  0.787622E-08  0.416E-05    4.09      38.7  T
     SCC iter.                  ...       10 min, 44.698 sec
     gradient                   ...        5 min,  4.468 sec
 * total energy  : -5104.0390806 Eh     change    :  -0.1035093E-04 Eh
   gradient norm :     0.0068033 Eh/a0  converged?    E=F G=F D=F
   time step     :     0.2214451 fs     power     :   0.5935081E-09
   step length   :     0.0014611 a0     speed     :   0.1595988E-03

........................................................................
.............................. CYCLE   16 ..............................
........................................................................

 iter      E             dE          RMSdq      gap      omega  full diag
   1  -5198.5964771 -0.519860E+04  0.167E-04    4.09       0.0  T
   2  -5198.5964771 -0.604450E-08  0.117E-04    4.09      13.8  T
   3  -5198.5964771  0.119699E-07  0.501E-05    4.09      32.1  T
     SCC iter.                  ...       10 min, 49.061 sec
     gradient                   ...        5 min,  4.100 sec
 * total energy  : -5104.0390920 Eh     change    :  -0.1137787E-04 Eh
   gradient norm :     0.0061165 Eh/a0  converged?    E=F G=F D=F
   time step     :     0.2214451 fs     power     :   0.6439558E-09
   step length   :     0.0017727 a0     speed     :   0.1936326E-03

........................................................................
.............................. CYCLE   17 ..............................
........................................................................

 iter      E             dE          RMSdq      gap      omega  full diag
   1  -5198.5954909 -0.519860E+04  0.192E-04    4.09       0.0  T
   2  -5198.5954909 -0.752425E-08  0.134E-04    4.09      12.0  T
   3  -5198.5954909  0.164000E-07  0.575E-05    4.09      28.0  T
     SCC iter.                  ...       10 min, 41.212 sec
     gradient                   ...        5 min,  4.337 sec
 * total energy  : -5104.0391036 Eh     change    :  -0.1159257E-04 Eh
   gradient norm :     0.0053762 Eh/a0  converged?    E=F G=F D=F
   time step     :     0.2214451 fs     power     :   0.6473691E-09
   step length   :     0.0020507 a0     speed     :   0.2240057E-03

........................................................................
.............................. CYCLE   18 ..............................
........................................................................

 iter      E             dE          RMSdq      gap      omega  full diag
   1  -5198.5942356 -0.519859E+04  0.234E-04    4.09       0.0  T
   2  -5198.5942356 -0.109121E-07  0.165E-04    4.09       9.8  T
   3  -5198.5942356  0.260425E-07  0.713E-05    4.09      22.6  T
     SCC iter.                  ...       10 min, 39.294 sec
     gradient                   ...        5 min,  4.547 sec
 * total energy  : -5104.0391158 Eh     change    :  -0.1226735E-04 Eh
   gradient norm :     0.0045586 Eh/a0  converged?    E=F G=F D=F
   time step     :     0.2435896 fs     power     :   0.6020626E-09
   step length   :     0.0025465 a0     speed     :   0.2528719E-03

........................................................................
.............................. CYCLE   19 ..............................
........................................................................

 iter      E             dE          RMSdq      gap      omega  full diag
   1  -5198.5926696 -0.519859E+04  0.278E-04    4.09       0.0  T
   2  -5198.5926696 -0.147338E-07  0.196E-04    4.09       8.2  T
   3  -5198.5926695  0.396076E-07  0.856E-05    4.09      18.8  T
     SCC iter.                  ...       10 min, 43.248 sec
     gradient                   ...        5 min,  5.814 sec
 * total energy  : -5104.0391277 Eh     change    :  -0.1185516E-04 Eh
   gradient norm :     0.0037634 Eh/a0  converged?    E=F G=F D=F
   time step     :     0.2679486 fs     power     :   0.5066275E-09
   step length   :     0.0030852 a0     speed     :   0.2785135E-03

........................................................................
.............................. CYCLE   20 ..............................
........................................................................

 iter      E             dE          RMSdq      gap      omega  full diag
   1  -5198.5907625 -0.519859E+04  0.319E-04    4.09       0.0  T
   2  -5198.5907625 -0.177370E-07  0.225E-04    4.09       7.2  T
   3  -5198.5907625  0.572609E-07  0.995E-05    4.09      16.2  T
     SCC iter.                  ...       10 min, 46.552 sec
     gradient                   ...        5 min,  4.469 sec
 * total energy  : -5104.0391381 Eh     change    :  -0.1039000E-04 Eh
   gradient norm :     0.0031873 Eh/a0  converged?    E=F G=F D=F
   time step     :     0.2947435 fs     power     :   0.3735189E-09
   step length   :     0.0036368 a0     speed     :   0.2984656E-03
 * RMSD in coord.:     0.0012508 a0     energy gain  -0.7475835E-03 Eh

........................................................................
.............................. CYCLE   21 ..............................
........................................................................

 iter      E             dE          RMSdq      gap      omega  full diag
   1  -5198.5890652 -0.519859E+04  0.269E-04    4.09       0.0  T
   2  -5198.5890652 -0.104656E-07  0.186E-04    4.09       8.6  T
   3  -5198.5890652  0.426444E-07  0.828E-05    4.09      19.4  T
     SCC iter.                  ...       10 min, 50.392 sec
     gradient                   ...        5 min,  3.665 sec
 * total energy  : -5104.0391446 Eh     change    :  -0.6511417E-05 Eh
   gradient norm :     0.0030331 Eh/a0  converged?    E=F G=F D=F
   time step     :     0.2500000 fs     power     :   0.2724261E-09
   step length   :     0.0031498 a0     speed     :   0.3047587E-03

........................................................................
.............................. CYCLE   22 ..............................
........................................................................

 iter      E             dE          RMSdq      gap      omega  full diag
   1  -5198.5873625 -0.519859E+04  0.254E-04    4.09       0.0  T
   2  -5198.5873625 -0.791442E-08  0.175E-04    4.09       9.2  T
   3  -5198.5873625  0.407099E-07  0.798E-05    4.09      20.2  T
     SCC iter.                  ...       10 min, 42.905 sec
     gradient                   ...        5 min,  6.479 sec
 * total energy  : -5104.0391496 Eh     change    :  -0.4949365E-05 Eh
   gradient norm :     0.0031075 Eh/a0  converged?    E=T G=F D=F
   time step     :     0.2500000 fs     power     :   0.2042064E-09
   step length   :     0.0031272 a0     speed     :   0.3025779E-03

........................................................................
.............................. CYCLE   23 ..............................
........................................................................

 iter      E             dE          RMSdq      gap      omega  full diag
   1  -5198.5857316 -0.519859E+04  0.238E-04    4.09       0.0  T
   2  -5198.5857316 -0.547607E-08  0.159E-04    4.09      10.1  T
   3  -5198.5857316  0.319524E-07  0.710E-05    4.09      22.6  T
     SCC iter.                  ...       10 min, 45.698 sec
     gradient                   ...        5 min,  5.611 sec
 * total energy  : -5104.0391537 Eh     change    :  -0.4142710E-05 Eh
   gradient norm :     0.0032656 Eh/a0  converged?    E=T G=F D=F
   time step     :     0.2500000 fs     power     :   0.1746087E-09
   step length   :     0.0030445 a0     speed     :   0.2945737E-03

........................................................................
.............................. CYCLE   24 ..............................
........................................................................

 iter      E             dE          RMSdq      gap      omega  full diag
   1  -5198.5842350 -0.519858E+04  0.223E-04    4.09       0.0  T
   2  -5198.5842350 -0.345790E-08  0.144E-04    4.09      11.2  T
   3  -5198.5842350  0.184036E-07  0.553E-05    4.09      29.1  T
     SCC iter.                  ...       10 min, 42.774 sec
     gradient                   ...        5 min,  4.545 sec
 * total energy  : -5104.0391577 Eh     change    :  -0.3958671E-05 Eh
   gradient norm :     0.0034006 Eh/a0  converged?    E=T G=F D=F
   time step     :     0.2500000 fs     power     :   0.1772819E-09
   step length   :     0.0029416 a0     speed     :   0.2846129E-03

........................................................................
.............................. CYCLE   25 ..............................
........................................................................

 iter      E             dE          RMSdq      gap      omega  full diag
   1  -5198.5829155 -0.519858E+04  0.213E-04    4.09       0.0  T
   2  -5198.5829155 -0.230648E-08  0.131E-04    4.09      12.3  T
   3  -5198.5829155  0.563432E-08  0.331E-05    4.09      48.6  T
     SCC iter.                  ...       10 min, 47.223 sec
     gradient                   ...        5 min,  5.996 sec
 * total energy  : -5104.0391619 Eh     change    :  -0.4249313E-05 Eh
   gradient norm :     0.0034614 Eh/a0  converged?    E=T G=F D=F
   time step     :     0.2500000 fs     power     :   0.2002615E-09
   step length   :     0.0028504 a0     speed     :   0.2757889E-03

........................................................................
.............................. CYCLE   26 ..............................
........................................................................

 iter      E             dE          RMSdq      gap      omega  full diag
   1  -5198.5816907 -0.519858E+04  0.230E-04    4.09       0.0  T
   2  -5198.5816907 -0.207274E-08  0.137E-04    4.09      11.8  T
   3  -5198.5816907  0.133332E-08  0.226E-05    4.09      71.2  T
     SCC iter.                  ...       10 min, 41.344 sec
     gradient                   ...        5 min,  5.323 sec
 * total energy  : -5104.0391672 Eh     change    :  -0.5251713E-05 Eh
   gradient norm :     0.0034272 Eh/a0  converged?    E=F G=F D=F
   time step     :     0.2750000 fs     power     :   0.2311583E-09
   step length   :     0.0030792 a0     speed     :   0.2708490E-03

........................................................................
.............................. CYCLE   27 ..............................
........................................................................

 iter      E             dE          RMSdq      gap      omega  full diag
   1  -5198.5806191 -0.519858E+04  0.254E-04    4.09       0.0  T
   2  -5198.5806191 -0.233467E-08  0.150E-04    4.09      10.7  T
   3  -5198.5806191  0.313230E-08  0.294E-05    4.09      54.6  T
     SCC iter.                  ...       10 min, 39.229 sec
     gradient                   ...        5 min,  4.210 sec
 * total energy  : -5104.0391735 Eh     change    :  -0.6389686E-05 Eh
   gradient norm :     0.0032872 Eh/a0  converged?    E=F G=F D=F
   time step     :     0.3025000 fs     power     :   0.2599729E-09
   step length   :     0.0033843 a0     speed     :   0.2706213E-03

........................................................................
.............................. CYCLE   28 ..............................
........................................................................

 iter      E             dE          RMSdq      gap      omega  full diag
   1  -5198.5797661 -0.519858E+04  0.288E-04    4.09       0.0  T
   2  -5198.5797661 -0.332693E-08  0.171E-04    4.09       9.4  T
   3  -5198.5797661  0.122927E-07  0.508E-05    4.09      31.7  T
     SCC iter.                  ...       10 min, 45.853 sec
     gradient                   ...        5 min,  6.343 sec
 * total energy  : -5104.0391811 Eh     change    :  -0.7583128E-05 Eh
   gradient norm :     0.0030531 Eh/a0  converged?    E=F G=F D=F
   time step     :     0.3327500 fs     power     :   0.2777540E-09
   step length   :     0.0037816 a0     speed     :   0.2748964E-03

........................................................................
.............................. CYCLE   29 ..............................
........................................................................

 iter      E             dE          RMSdq      gap      omega  full diag
   1  -5198.5792035 -0.519858E+04  0.330E-04    4.09       0.0  T
   2  -5198.5792035 -0.505679E-08  0.198E-04    4.09       8.1  T
   3  -5198.5792035  0.315904E-07  0.792E-05    4.09      20.3  T
     SCC iter.                  ...       10 min, 43.269 sec
     gradient                   ...        5 min,  4.410 sec
 * total energy  : -5104.0391896 Eh     change    :  -0.8465770E-05 Eh
   gradient norm :     0.0027628 Eh/a0  converged?    E=F G=F D=F
   time step     :     0.3660250 fs     power     :   0.2781041E-09
   step length   :     0.0042773 a0     speed     :   0.2826646E-03

........................................................................
.............................. CYCLE   30 ..............................
........................................................................

 iter      E             dE          RMSdq      gap      omega  full diag
   1  -5198.5790025 -0.519858E+04  0.373E-04    4.09       0.0  T
   2  -5198.5790025 -0.709497E-08  0.227E-04    4.09       7.1  T
   3  -5198.5790024  0.552000E-07  0.104E-04    4.09      15.5  T
     SCC iter.                  ...       10 min, 42.985 sec
     gradient                   ...        5 min,  3.975 sec
 * total energy  : -5104.0391985 Eh     change    :  -0.8893236E-05 Eh
   gradient norm :     0.0024872 Eh/a0  converged?    E=F G=F D=F
   time step     :     0.4026275 fs     power     :   0.2597649E-09
   step length   :     0.0048644 a0     speed     :   0.2922435E-03

........................................................................
.............................. CYCLE   31 ..............................
........................................................................

 iter      E             dE          RMSdq      gap      omega  full diag
   1  -5198.5792149 -0.519858E+04  0.412E-04    4.09       0.0  T
   2  -5198.5792149 -0.860746E-08  0.253E-04    4.09       6.4  T
   3  -5198.5792148  0.732680E-07  0.118E-04    4.09      13.6  T
     SCC iter.                  ...       10 min, 41.740 sec
     gradient                   ...        5 min,  5.530 sec
 * total energy  : -5104.0392074 Eh     change    :  -0.8904382E-05 Eh
   gradient norm :     0.0023077 Eh/a0  converged?    E=F G=F D=F
   time step     :     0.4428903 fs     power     :   0.2289707E-09
   step length   :     0.0055204 a0     speed     :   0.3015020E-03

........................................................................
.............................. CYCLE   32 ..............................
........................................................................

 iter      E             dE          RMSdq      gap      omega  full diag
   1  -5198.5798412 -0.519858E+04  0.439E-04    4.09       0.0  T
   2  -5198.5798412 -0.926320E-08  0.268E-04    4.09       6.0  T
   3  -5198.5798412  0.745622E-07  0.118E-04    4.09      13.6  T
     SCC iter.                  ...       10 min, 42.285 sec
     gradient                   ...        5 min,  5.780 sec
 * total energy  : -5104.0392160 Eh     change    :  -0.8635418E-05 Eh
   gradient norm :     0.0022541 Eh/a0  converged?    E=F G=F D=F
   time step     :     0.4871793 fs     power     :   0.1978435E-09
   step length   :     0.0062127 a0     speed     :   0.3084676E-03

........................................................................
.............................. CYCLE   33 ..............................
........................................................................

 iter      E             dE          RMSdq      gap      omega  full diag
   1  -5198.5808063 -0.519858E+04  0.449E-04    4.09       0.0  T
   2  -5198.5808063 -0.939144E-08  0.270E-04    4.09       6.0  T
   3  -5198.5808063  0.481414E-07  0.952E-05    4.09      16.9  T
     SCC iter.                  ...       10 min, 42.294 sec
     gradient                   ...        5 min,  4.618 sec
 * total energy  : -5104.0392246 Eh     change    :  -0.8619797E-05 Eh
   gradient norm :     0.0022885 Eh/a0  converged?    E=F G=F D=F
   time step     :     0.5358972 fs     power     :   0.1777808E-09
   step length   :     0.0069244 a0     speed     :   0.3125470E-03

........................................................................
.............................. CYCLE   34 ..............................
........................................................................

 iter      E             dE          RMSdq      gap      omega  full diag
   1  -5198.5819649 -0.519858E+04  0.442E-04    4.09       0.0  T
   2  -5198.5819649 -0.912678E-08  0.264E-04    4.09       6.1  T
   3  -5198.5819649  0.110977E-07  0.528E-05    4.09      30.5  T
     SCC iter.                  ...       10 min, 42.388 sec
     gradient                   ...        5 min,  2.987 sec
 * total energy  : -5104.0392337 Eh     change    :  -0.9081969E-05 Eh
   gradient norm :     0.0023545 Eh/a0  converged?    E=F G=F D=F
   time step     :     0.5894869 fs     power     :   0.1747690E-09
   step length   :     0.0076796 a0     speed     :   0.3151222E-03

........................................................................
.............................. CYCLE   35 ..............................
........................................................................

 iter      E             dE          RMSdq      gap      omega  full diag
   1  -5198.5831275 -0.519858E+04  0.426E-04    4.09       0.0  T
   2  -5198.5831275 -0.780165E-08  0.257E-04    4.09       6.3  T
   3  -5198.5831275  0.131904E-07  0.535E-05    4.09      30.1  T
     SCC iter.                  ...       10 min, 41.953 sec
     gradient                   ...        5 min,  5.582 sec
 * total energy  : -5104.0392442 Eh     change    :  -0.1046429E-04 Eh
   gradient norm :     0.0023611 Eh/a0  converged?    E=F G=F D=F
   time step     :     0.6484356 fs     power     :   0.1878639E-09
   step length   :     0.0085448 a0     speed     :   0.3187502E-03

........................................................................
.............................. CYCLE   36 ..............................
........................................................................

 iter      E             dE          RMSdq      gap      omega  full diag
   1  -5198.5840821 -0.519858E+04  0.418E-04    4.09       0.0  T
   2  -5198.5840821 -0.647287E-08  0.257E-04    4.09       6.3  T
   3  -5198.5840821  0.229329E-07  0.655E-05    4.09      24.6  T
     SCC iter.                  ...       10 min, 40.447 sec
     gradient                   ...        5 min,  4.568 sec
 * total energy  : -5104.0392565 Eh     change    :  -0.1233600E-04 Eh
   gradient norm :     0.0022320 Eh/a0  converged?    E=F G=F D=F
   time step     :     0.7132792 fs     power     :   0.2040157E-09
   step length   :     0.0096110 a0     speed     :   0.3259304E-03

........................................................................
.............................. CYCLE   37 ..............................
........................................................................

 iter      E             dE          RMSdq      gap      omega  full diag
   1  -5198.5846193 -0.519858E+04  0.424E-04    4.09       0.0  T
   2  -5198.5846193 -0.969067E-08  0.268E-04    4.09       6.0  T
   3  -5198.5846193  0.568343E-07  0.974E-05    4.09      16.5  T
     SCC iter.                  ...       10 min, 42.890 sec
     gradient                   ...        5 min,  4.658 sec
 * total energy  : -5104.0392707 Eh     change    :  -0.1413723E-04 Eh
   gradient norm :     0.0021478 Eh/a0  converged?    E=F G=F D=F
   time step     :     0.7846071 fs     power     :   0.2089482E-09
   step length   :     0.0109380 a0     speed     :   0.3372104E-03

........................................................................
.............................. CYCLE   38 ..............................
........................................................................

 iter      E             dE          RMSdq      gap      omega  full diag
   1  -5198.5845789 -0.519858E+04  0.453E-04    4.09       0.0  T
   2  -5198.5845789 -0.129112E-07  0.282E-04    4.09       5.7  T
   3  -5198.5845788  0.487980E-07  0.942E-05    4.09      17.1  T
     SCC iter.                  ...       10 min, 51.386 sec
     gradient                   ...        5 min,  5.960 sec
 * total energy  : -5104.0392868 Eh     change    :  -0.1617677E-04 Eh
   gradient norm :     0.0022640 Eh/a0  converged?    E=F G=F D=F
   time step     :     0.8630678 fs     power     :   0.2210574E-09
   step length   :     0.0125070 a0     speed     :   0.3505289E-03

........................................................................
.............................. CYCLE   39 ..............................
........................................................................

 iter      E             dE          RMSdq      gap      omega  full diag
   1  -5198.5840466 -0.519858E+04  0.524E-04    4.09       0.0  T
   2  -5198.5840466 -0.129085E-07  0.315E-04    4.09       5.1  T
   3  -5198.5840465  0.210366E-07  0.696E-05    4.09      23.1  T
     SCC iter.                  ...       10 min, 39.652 sec
     gradient                   ...        5 min,  5.040 sec
 * total energy  : -5104.0393068 Eh     change    :  -0.1993980E-04 Eh
   gradient norm :     0.0021985 Eh/a0  converged?    E=F G=F D=F
   time step     :     0.9493746 fs     power     :   0.2558817E-09
   step length   :     0.0143883 a0     speed     :   0.3665950E-03

........................................................................
.............................. CYCLE   40 ..............................
........................................................................

 iter      E             dE          RMSdq      gap      omega  full diag
   1  -5198.5835405 -0.519858E+04  0.607E-04    4.09       0.0  T
   2  -5198.5835405 -0.160171E-07  0.368E-04    4.09       4.4  T
   3  -5198.5835405  0.437976E-07  0.936E-05    4.09      17.2  T
     SCC iter.                  ...       10 min, 44.080 sec
     gradient                   ...        5 min,  4.818 sec
 * total energy  : -5104.0393306 Eh     change    :  -0.2383184E-04 Eh
   gradient norm :     0.0019482 Eh/a0  converged?    E=F G=F D=F
   time step     :     1.0443120 fs     power     :   0.2719857E-09
   step length   :     0.0168106 a0     speed     :   0.3893748E-03

........................................................................
.............................. CYCLE   41 ..............................
........................................................................

 iter      E             dE          RMSdq      gap      omega  full diag
   1  -5198.5840145 -0.519858E+04  0.644E-04    4.09       0.0  T
   2  -5198.5840145 -0.181371E-07  0.394E-04    4.09       4.1  T
   3  -5198.5840144  0.607197E-07  0.109E-04    4.09      14.8  T
     SCC iter.                  ...       10 min, 39.837 sec
     gradient                   ...        5 min,  5.291 sec
 * total energy  : -5104.0393568 Eh     change    :  -0.2617661E-04 Eh
   gradient norm :     0.0020576 Eh/a0  converged?    E=F G=F D=F
   time step     :     1.1487432 fs     power     :   0.2653662E-09
   step length   :     0.0197496 a0     speed     :   0.4158642E-03

........................................................................
.............................. CYCLE   42 ..............................
........................................................................

 iter      E             dE          RMSdq      gap      omega  full diag
   1  -5198.5857985 -0.519859E+04  0.698E-04    4.09       0.0  T
   2  -5198.5857985 -0.136797E-07  0.414E-04    4.09       3.9  T
   3  -5198.5857985  0.156306E-07  0.667E-05    4.09      24.1  T
     SCC iter.                  ...       10 min, 49.753 sec
     gradient                   ...        5 min,  3.445 sec
 * total energy  : -5104.0393876 Eh     change    :  -0.3080489E-04 Eh
   gradient norm :     0.0021169 Eh/a0  converged?    E=F G=F D=F
   time step     :     1.2500000 fs     power     :   0.3051497E-09
   step length   :     0.0227528 a0     speed     :   0.4402908E-03
 * RMSD in coord.:     0.0025006 a0     energy gain  -0.2495040E-03 Eh

........................................................................
.............................. CYCLE   43 ..............................
........................................................................

 iter      E             dE          RMSdq      gap      omega  full diag
   1  -5198.5861328 -0.519859E+04  0.137E-04    4.09       0.0  T
   2  -5198.5861328 -0.689397E-09  0.808E-05    4.09      19.9  T
   3  -5198.5861328  0.155615E-08  0.189E-05    4.09      85.3  T
     SCC iter.                  ...       10 min, 38.008 sec
     gradient                   ...        5 min,  6.361 sec
 * total energy  : -5104.0393939 Eh     change    :  -0.6352891E-05 Eh
   gradient norm :     0.0020439 Eh/a0  converged?    E=F G=F D=F
   time step     :     0.2500000 fs     power     :   0.3321277E-09
   step length   :     0.0044654 a0     speed     :   0.4320476E-03

........................................................................
.............................. CYCLE   44 ..............................
........................................................................

 iter      E             dE          RMSdq      gap      omega  full diag
   1  -5198.5864258 -0.519859E+04  0.145E-04    4.09       0.0  T
   2  -5198.5864258 -0.819455E-09  0.871E-05    4.09      18.5  T
   3  -5198.5864258  0.369891E-08  0.277E-05    4.09      58.0  T
     SCC iter.                  ...       10 min, 42.053 sec
     gradient                   ...        5 min,  5.316 sec
 * total energy  : -5104.0394006 Eh     change    :  -0.6669759E-05 Eh
   gradient norm :     0.0018652 Eh/a0  converged?    E=F G=F D=F
   time step     :     0.2500000 fs     power     :   0.3466340E-09
   step length   :     0.0044263 a0     speed     :   0.4282705E-03

........................................................................
.............................. CYCLE   45 ..............................
........................................................................

 iter      E             dE          RMSdq      gap      omega  full diag
   1  -5198.5866644 -0.519859E+04  0.160E-04    4.09       0.0  T
   2  -5198.5866644 -0.122418E-08  0.968E-05    4.09      16.6  T
   3  -5198.5866644  0.460022E-08  0.306E-05    4.09      52.5  T
     SCC iter.                  ...       10 min, 43.381 sec
     gradient                   ...        5 min,  5.218 sec
 * total energy  : -5104.0394073 Eh     change    :  -0.6691603E-05 Eh
   gradient norm :     0.0016519 Eh/a0  converged?    E=F G=F D=F
   time step     :     0.2500000 fs     power     :   0.3438638E-09
   step length   :     0.0044332 a0     speed     :   0.4289311E-03

........................................................................
.............................. CYCLE   46 ..............................
........................................................................

 iter      E             dE          RMSdq      gap      omega  full diag
   1  -5198.5868438 -0.519859E+04  0.171E-04    4.09       0.0  T
   2  -5198.5868438 -0.161072E-08  0.104E-04    4.09      15.4  T
   3  -5198.5868438  0.523869E-08  0.321E-05    4.09      50.1  T
     SCC iter.                  ...       10 min, 42.407 sec
     gradient                   ...        5 min,  5.921 sec
 * total energy  : -5104.0394138 Eh     change    :  -0.6498272E-05 Eh
   gradient norm :     0.0015014 Eh/a0  converged?    E=F G=F D=F
   time step     :     0.2500000 fs     power     :   0.3277767E-09
   step length   :     0.0044747 a0     speed     :   0.4329559E-03

........................................................................
.............................. CYCLE   47 ..............................
........................................................................

 iter      E             dE          RMSdq      gap      omega  full diag
   1  -5198.5869681 -0.519859E+04  0.174E-04    4.09       0.0  T
   2  -5198.5869682 -0.150158E-08  0.106E-04    4.09      15.2  T
   3  -5198.5869681  0.461205E-08  0.299E-05    4.09      53.9  T
     SCC iter.                  ...       10 min, 45.529 sec
     gradient                   ...        5 min,  7.155 sec
 * total energy  : -5104.0394199 Eh     change    :  -0.6062438E-05 Eh
   gradient norm :     0.0014777 Eh/a0  converged?    E=F G=F D=F
   time step     :     0.2500000 fs     power     :   0.3093154E-09
   step length   :     0.0045244 a0     speed     :   0.4377572E-03

........................................................................
.............................. CYCLE   48 ..............................
........................................................................

 iter      E             dE          RMSdq      gap      omega  full diag
   1  -5198.5870571 -0.519859E+04  0.182E-04    4.09       0.0  T
   2  -5198.5870571 -0.140244E-08  0.110E-04    4.09      14.7  T
   3  -5198.5870571  0.382261E-08  0.270E-05    4.09      59.5  T
     SCC iter.                  ...       10 min, 43.168 sec
     gradient                   ...        5 min,  4.646 sec
 * total energy  : -5104.0394263 Eh     change    :  -0.6429454E-05 Eh
   gradient norm :     0.0015579 Eh/a0  converged?    E=F G=F D=F
   time step     :     0.2750000 fs     power     :   0.2981062E-09
   step length   :     0.0050130 a0     speed     :   0.4409376E-03

........................................................................
.............................. CYCLE   49 ..............................
........................................................................

 iter      E             dE          RMSdq      gap      omega  full diag
   1  -5198.5871185 -0.519859E+04  0.181E-04    4.09       0.0  T
   2  -5198.5871185 -0.104865E-08  0.108E-04    4.09      14.9  T
   3  -5198.5871185  0.195178E-08  0.204E-05    4.09      79.0  T
     SCC iter.                  ...       10 min, 43.402 sec
     gradient                   ...        5 min,  4.148 sec
 * total energy  : -5104.0394333 Eh     change    :  -0.7004563E-05 Eh
   gradient norm :     0.0016578 Eh/a0  converged?    E=F G=F D=F
   time step     :     0.3025000 fs     power     :   0.3003207E-09
   step length   :     0.0055216 a0     speed     :   0.4415259E-03

........................................................................
.............................. CYCLE   50 ..............................
........................................................................

 iter      E             dE          RMSdq      gap      omega  full diag
   1  -5198.5871555 -0.519859E+04  0.178E-04    4.09       0.0  T
   2  -5198.5871555 -0.574801E-09  0.105E-04    4.09      15.3  T
   3  -5198.5871555  0.569344E-09  0.147E-05    4.09     109.2  T
     SCC iter.                  ...       10 min, 42.711 sec
     gradient                   ...        5 min,  4.662 sec
 * total energy  : -5104.0394412 Eh     change    :  -0.7933587E-05 Eh
   gradient norm :     0.0016924 Eh/a0  converged?    E=F G=F D=F
   time step     :     0.3327500 fs     power     :   0.3129383E-09
   step length   :     0.0060738 a0     speed     :   0.4415296E-03

........................................................................
.............................. CYCLE   51 ..............................
........................................................................

 iter      E             dE          RMSdq      gap      omega  full diag
   1  -5198.5871579 -0.519859E+04  0.183E-04    4.09       0.0  T
   2  -5198.5871579 -0.764885E-09  0.109E-04    4.09      14.8  T
   3  -5198.5871579  0.131149E-08  0.174E-05    4.09      92.4  T
     SCC iter.                  ...       10 min, 44.357 sec
     gradient                   ...        5 min,  6.227 sec
 * total energy  : -5104.0394503 Eh     change    :  -0.9059355E-05 Eh
   gradient norm :     0.0016261 Eh/a0  converged?    E=F G=F D=F
   time step     :     0.3660250 fs     power     :   0.3264833E-09
   step length   :     0.0067132 a0     speed     :   0.4436428E-03

........................................................................
.............................. CYCLE   52 ..............................
........................................................................

 iter      E             dE          RMSdq      gap      omega  full diag
   1  -5198.5870968 -0.519859E+04  0.204E-04    4.09       0.0  T
   2  -5198.5870968 -0.114778E-08  0.123E-04    4.09      13.1  T
   3  -5198.5870968  0.417549E-08  0.291E-05    4.09      55.3  T
     SCC iter.                  ...       10 min, 47.258 sec
     gradient                   ...        5 min,  4.463 sec
 * total energy  : -5104.0394606 Eh     change    :  -0.1031057E-04 Eh
   gradient norm :     0.0014998 Eh/a0  converged?    E=F G=F D=F
   time step     :     0.4026275 fs     power     :   0.3314647E-09
   step length   :     0.0074838 a0     speed     :   0.4496078E-03

........................................................................
.............................. CYCLE   53 ..............................
........................................................................

 iter      E             dE          RMSdq      gap      omega  full diag
   1  -5198.5869261 -0.519859E+04  0.232E-04    4.09       0.0  T
   2  -5198.5869261 -0.208638E-08  0.142E-04    4.09      11.3  T
   3  -5198.5869261  0.841828E-08  0.398E-05    4.09      40.4  T
     SCC iter.                  ...       10 min, 41.884 sec
     gradient                   ...        5 min,  5.316 sec
 * total energy  : -5104.0394719 Eh     change    :  -0.1127297E-04 Eh
   gradient norm :     0.0014297 Eh/a0  converged?    E=F G=F D=F
   time step     :     0.4428903 fs     power     :   0.3266457E-09
   step length   :     0.0084111 a0     speed     :   0.4593796E-03

........................................................................
.............................. CYCLE   54 ..............................
........................................................................

 iter      E             dE          RMSdq      gap      omega  full diag
   1  -5198.5866106 -0.519859E+04  0.258E-04    4.09       0.0  T
   2  -5198.5866106 -0.231285E-08  0.157E-04    4.09      10.3  T
   3  -5198.5866106  0.869386E-08  0.406E-05    4.09      39.6  T
     SCC iter.                  ...       10 min, 43.793 sec
     gradient                   ...        5 min, 13.022 sec
 * total energy  : -5104.0394842 Eh     change    :  -0.1227970E-04 Eh
   gradient norm :     0.0014727 Eh/a0  converged?    E=F G=F D=F
   time step     :     0.4871793 fs     power     :   0.3226355E-09
   step length   :     0.0094726 a0     speed     :   0.4703231E-03

........................................................................
.............................. CYCLE   55 ..............................
........................................................................

 iter      E             dE          RMSdq      gap      omega  full diag
   1  -5198.5861811 -0.519859E+04  0.275E-04    4.09       0.0  T
   2  -5198.5861811 -0.181626E-08  0.164E-04    4.09       9.8  T
   3  -5198.5861811  0.410728E-08  0.304E-05    4.09      52.9  T
     SCC iter.                  ...       10 min, 44.631 sec
     gradient                   ...        5 min,  4.910 sec
 * total energy  : -5104.0394977 Eh     change    :  -0.1357949E-04 Eh
   gradient norm :     0.0015351 Eh/a0  converged?    E=F G=F D=F
   time step     :     0.5358972 fs     power     :   0.3289693E-09
   step length   :     0.0106346 a0     speed     :   0.4800153E-03

........................................................................
.............................. CYCLE   56 ..............................
........................................................................

 iter      E             dE          RMSdq      gap      omega  full diag
   1  -5198.5857632 -0.519859E+04  0.294E-04    4.09       0.0  T
   2  -5198.5857632 -0.161435E-08  0.173E-04    4.09       9.3  T
   3  -5198.5857632  0.319142E-08  0.286E-05    4.09      56.3  T
     SCC iter.                  ...       10 min, 46.553 sec
     gradient                   ...        5 min,  5.541 sec
 * total energy  : -5104.0395131 Eh     change    :  -0.1536179E-04 Eh
   gradient norm :     0.0015282 Eh/a0  converged?    E=F G=F D=F
   time step     :     0.5894869 fs     power     :   0.3428895E-09
   step length   :     0.0119394 a0     speed     :   0.4899193E-03

........................................................................
.............................. CYCLE   57 ..............................
........................................................................

 iter      E             dE          RMSdq      gap      omega  full diag
   1  -5198.5855638 -0.519859E+04  0.326E-04    4.09       0.0  T
   2  -5198.5855638 -0.215550E-08  0.195E-04    4.09       8.3  T
   3  -5198.5855638  0.103000E-07  0.439E-05    4.09      36.7  T
     SCC iter.                  ...       10 min, 42.622 sec
     gradient                   ...        5 min,  7.536 sec
 * total energy  : -5104.0395308 Eh     change    :  -0.1769649E-04 Eh
   gradient norm :     0.0014470 Eh/a0  converged?    E=F G=F D=F
   time step     :     0.6484356 fs     power     :   0.3549321E-09
   step length   :     0.0134748 a0     speed     :   0.5026538E-03

........................................................................
.............................. CYCLE   58 ..............................
........................................................................

 iter      E             dE          RMSdq      gap      omega  full diag
   1  -5198.5857918 -0.519859E+04  0.373E-04    4.09       0.0  T
   2  -5198.5857918 -0.340515E-08  0.225E-04    4.09       7.2  T
   3  -5198.5857918  0.202999E-07  0.607E-05    4.09      26.5  T
     SCC iter.                  ...       10 min, 52.331 sec
     gradient                   ...        5 min,  5.974 sec
 * total energy  : -5104.0395506 Eh     change    :  -0.1981377E-04 Eh
   gradient norm :     0.0014055 Eh/a0  converged?    E=F G=F D=F
   time step     :     0.7132792 fs     power     :   0.3586398E-09
   step length   :     0.0153163 a0     speed     :   0.5194077E-03

........................................................................
.............................. CYCLE   59 ..............................
........................................................................

 iter      E             dE          RMSdq      gap      omega  full diag
   1  -5198.5864631 -0.519859E+04  0.407E-04    4.09       0.0  T
   2  -5198.5864631 -0.292675E-08  0.242E-04    4.09       6.6  T
   3  -5198.5864631  0.925684E-08  0.438E-05    4.09      36.7  T
     SCC iter.                  ...       10 min, 41.880 sec
     gradient                   ...        5 min,  5.196 sec
 * total energy  : -5104.0395728 Eh     change    :  -0.2216762E-04 Eh
   gradient norm :     0.0014749 Eh/a0  converged?    E=F G=F D=F
   time step     :     0.7846071 fs     power     :   0.3668072E-09
   step length   :     0.0174473 a0     speed     :   0.5378884E-03

........................................................................
.............................. CYCLE   60 ..............................
........................................................................

 iter      E             dE          RMSdq      gap      omega  full diag
   1  -5198.5872936 -0.519859E+04  0.442E-04    4.09       0.0  T
   2  -5198.5872936 -0.311138E-08  0.261E-04    4.09       6.2  T
   3  -5198.5872936  0.127875E-07  0.512E-05    4.09      31.4  T
     SCC iter.                  ...       10 min, 39.857 sec
     gradient                   ...        5 min,  5.891 sec
 * total energy  : -5104.0395982 Eh     change    :  -0.2540765E-04 Eh
   gradient norm :     0.0014355 Eh/a0  converged?    E=F G=F D=F
   time step     :     0.8630678 fs     power     :   0.3846471E-09
   step length   :     0.0198474 a0     speed     :   0.5562539E-03

........................................................................
.............................. CYCLE   61 ..............................
........................................................................

 iter      E             dE          RMSdq      gap      omega  full diag
   1  -5198.5878998 -0.519859E+04  0.505E-04    4.09       0.0  T
   2  -5198.5878998 -0.495129E-08  0.300E-04    4.09       5.4  T
   3  -5198.5878998  0.222008E-07  0.644E-05    4.09      25.0  T
     SCC iter.                  ...       10 min, 46.039 sec
     gradient                   ...        5 min,  5.443 sec
 * total energy  : -5104.0396271 Eh     change    :  -0.2894518E-04 Eh
   gradient norm :     0.0013783 Eh/a0  converged?    E=F G=F D=F
   time step     :     0.9493746 fs     power     :   0.3952515E-09
   step length   :     0.0227131 a0     speed     :   0.5787017E-03

........................................................................
.............................. CYCLE   62 ..............................
........................................................................

 iter      E             dE          RMSdq      gap      omega  full diag
   1  -5198.5880521 -0.519859E+04  0.562E-04    4.09       0.0  T
   2  -5198.5880521 -0.584350E-08  0.332E-04    4.09       4.8  T
   3  -5198.5880520  0.171021E-07  0.609E-05    4.09      26.4  T
     SCC iter.                  ...       10 min, 46.022 sec
     gradient                   ...        5 min,  4.644 sec
 * total energy  : -5104.0396598 Eh     change    :  -0.3263857E-04 Eh
   gradient norm :     0.0014491 Eh/a0  converged?    E=F G=F D=F
   time step     :     1.0443120 fs     power     :   0.4071822E-09
   step length   :     0.0260928 a0     speed     :   0.6043747E-03

........................................................................
.............................. CYCLE   63 ..............................
........................................................................

 iter      E             dE          RMSdq      gap      omega  full diag
   1  -5198.5878056 -0.519859E+04  0.623E-04    4.09       0.0  T
   2  -5198.5878056 -0.681757E-08  0.368E-04    4.09       4.4  T
   3  -5198.5878056  0.284927E-07  0.762E-05    4.09      21.1  T
     SCC iter.                  ...       10 min, 48.546 sec
     gradient                   ...        5 min,  5.091 sec
 * total energy  : -5104.0396975 Eh     change    :  -0.3777462E-04 Eh
   gradient norm :     0.0013886 Eh/a0  converged?    E=F G=F D=F
   time step     :     1.1487432 fs     power     :   0.4291044E-09
   step length   :     0.0299307 a0     speed     :   0.6302451E-03

........................................................................
.............................. CYCLE   64 ..............................
........................................................................

 iter      E             dE          RMSdq      gap      omega  full diag
   1  -5198.5875468 -0.519859E+04  0.717E-04    4.09       0.0  T
   2  -5198.5875468 -0.101236E-07  0.427E-04    4.09       3.8  T
   3  -5198.5875467  0.629198E-07  0.106E-04    4.09      15.1  T
     SCC iter.                  ...       10 min, 40.436 sec
     gradient                   ...        5 min,  4.145 sec
 * total energy  : -5104.0397400 Eh     change    :  -0.4250148E-04 Eh
   gradient norm :     0.0013818 Eh/a0  converged?    E=F G=F D=F
   time step     :     1.2500000 fs     power     :   0.4396117E-09
   step length   :     0.0341608 a0     speed     :   0.6610476E-03

........................................................................
.............................. CYCLE   65 ..............................
........................................................................

 iter      E             dE          RMSdq      gap      omega  full diag
   1  -5198.5879926 -0.519859E+04  0.740E-04    4.09       0.0  T
   2  -5198.5879926 -0.760429E-08  0.436E-04    4.09       3.7  T
   3  -5198.5879926  0.309174E-07  0.832E-05    4.09      19.3  T
     SCC iter.                  ...       10 min, 40.576 sec
     gradient                   ...        5 min,  4.159 sec
 * total energy  : -5104.0397842 Eh     change    :  -0.4414195E-04 Eh
   gradient norm :     0.0013904 Eh/a0  converged?    E=F G=F D=F
   time step     :     1.2500000 fs     power     :   0.4604502E-09
   step length   :     0.0356611 a0     speed     :   0.6900810E-03

........................................................................
.............................. CYCLE   66 ..............................
........................................................................

 iter      E             dE          RMSdq      gap      omega  full diag
   1  -5198.5885444 -0.519859E+04  0.770E-04    4.09       0.0  T
   2  -5198.5885444 -0.114715E-07  0.457E-04    4.09       3.5  T
   3  -5198.5885443  0.478576E-07  0.991E-05    4.09      16.2  T
     SCC iter.                  ...       10 min, 47.031 sec
     gradient                   ...        5 min,  7.059 sec
 * total energy  : -5104.0398298 Eh     change    :  -0.4559855E-04 Eh
   gradient norm :     0.0013626 Eh/a0  converged?    E=F G=F D=F
   time step     :     1.2500000 fs     power     :   0.4716745E-09
   step length   :     0.0371499 a0     speed     :   0.7188896E-03

........................................................................
.............................. CYCLE   67 ..............................
........................................................................

 iter      E             dE          RMSdq      gap      omega  full diag
   1  -5198.5887267 -0.519859E+04  0.796E-04    4.09       0.0  T
   2  -5198.5887268 -0.134132E-07  0.469E-04    4.09       3.4  T
   3  -5198.5887267  0.365189E-07  0.972E-05    4.09      16.6  T
     SCC iter.                  ...       10 min, 41.096 sec
     gradient                   ...        5 min,  5.803 sec
 * total energy  : -5104.0398764 Eh     change    :  -0.4658652E-04 Eh
   gradient norm :     0.0015356 Eh/a0  converged?    E=F G=F D=F
   time step     :     1.2500000 fs     power     :   0.4813570E-09
   step length   :     0.0386031 a0     speed     :   0.7470115E-03
 * RMSD in coord.:     0.0061097 a0     energy gain  -0.4887788E-03 Eh

........................................................................
.............................. CYCLE   68 ..............................
........................................................................

 iter      E             dE          RMSdq      gap      omega  full diag
   1  -5198.5887761 -0.519859E+04  0.157E-04    4.09       0.0  T
   2  -5198.5887761 -0.534783E-09  0.921E-05    4.09      17.5  T
   3  -5198.5887761  0.215823E-08  0.231E-05    4.09      69.5  T
     SCC iter.                  ...       10 min, 43.389 sec
     gradient                   ...        5 min,  4.691 sec
 * total energy  : -5104.0398858 Eh     change    :  -0.9455425E-05 Eh
   gradient norm :     0.0014072 Eh/a0  converged?    E=F G=F D=F
   time step     :     0.2500000 fs     power     :   0.4982593E-09
   step length   :     0.0076282 a0     speed     :   0.7380708E-03

........................................................................
.............................. CYCLE   69 ..............................
........................................................................

 iter      E             dE          RMSdq      gap      omega  full diag
   1  -5198.5888490 -0.519859E+04  0.171E-04    4.09       0.0  T
   2  -5198.5888490 -0.240289E-08  0.102E-04    4.09      15.8  T
   3  -5198.5888490  0.441560E-08  0.380E-05    4.09      42.3  T
     SCC iter.                  ...       10 min, 40.038 sec
     gradient                   ...        5 min,  5.055 sec
 * total energy  : -5104.0398953 Eh     change    :  -0.9464919E-05 Eh
   gradient norm :     0.0012753 Eh/a0  converged?    E=F G=F D=F
   time step     :     0.2500000 fs     power     :   0.4909894E-09
   step length   :     0.0076157 a0     speed     :   0.7368555E-03

........................................................................
.............................. CYCLE   70 ..............................
........................................................................

 iter      E             dE          RMSdq      gap      omega  full diag
   1  -5198.5889337 -0.519859E+04  0.172E-04    4.09       0.0  T
   2  -5198.5889337 -0.189993E-08  0.103E-04    4.09      15.6  T
   3  -5198.5889337  0.336513E-08  0.314E-05    4.09      51.2  T
     SCC iter.                  ...       10 min, 43.434 sec
     gradient                   ...        5 min,  6.065 sec
 * total energy  : -5104.0399045 Eh     change    :  -0.9246663E-05 Eh
   gradient norm :     0.0013407 Eh/a0  converged?    E=F G=F D=F
   time step     :     0.2500000 fs     power     :   0.4807961E-09
   step length   :     0.0076548 a0     speed     :   0.7406465E-03

........................................................................
.............................. CYCLE   71 ..............................
........................................................................

 iter      E             dE          RMSdq      gap      omega  full diag
   1  -5198.5890141 -0.519859E+04  0.162E-04    4.09       0.0  T
   2  -5198.5890141 -0.620275E-09  0.969E-05    4.09      16.6  T
[...]
  3615   6 C     3616   6 C                                       1.5320777
  3617   6 C     3618   6 C                                       1.3869976
  3618   6 C     3619   6 C                                       1.3864021
  3619   6 C     3620   6 C                                       1.3824135
  3620   6 C     3621   6 C                                       1.3855626
  3617   6 C     3622   6 C                                       1.3949105
  3621   6 C     3622   6 C                                       1.3806920
  3623   6 C     3624   6 C                                       1.5376698
  3625   6 C     3626   6 C                                       1.3902653
  3626   6 C     3627   6 C                                       1.3829605
  3627   6 C     3628   6 C                                       1.3847932
  3628   6 C     3629   6 C                                       1.3831190
  3625   6 C     3630   6 C                                       1.3887710
  3629   6 C     3630   6 C                                       1.3835198
  3631   6 C     3632   6 C                                       1.5367598
  3633   6 C     3634   6 C                                       1.3900788
  3634   6 C     3635   6 C                                       1.3825505
  3635   6 C     3636   6 C                                       1.3840256
  3636   6 C     3637   6 C                                       1.3834239
  3633   6 C     3638   6 C                                       1.3890630
  3637   6 C     3638   6 C                                       1.3835538
  3632   6 C     3639   6 C                                       1.5323592
  3639   6 C     3640   6 C                                       1.5350736
  3641   6 C     3642   6 C                                       1.3897612
  3642   6 C     3643   6 C                                       1.3835125
  3643   6 C     3644   6 C                                       1.3836844
  3644   6 C     3645   6 C                                       1.3836553
  3641   6 C     3646   6 C                                       1.3900764
  3645   6 C     3646   6 C                                       1.3836969
  3640   6 C     3647   6 C                                       1.5338881
  3647   6 C     3648   6 C                                       1.5348779
  3649   6 C     3650   6 C                                       1.3891652
  3650   6 C     3651   6 C                                       1.3834913
  3651   6 C     3652   6 C                                       1.3834831
  3652   6 C     3653   6 C                                       1.3838291
  3649   6 C     3654   6 C                                       1.3904095
  3653   6 C     3654   6 C                                       1.3823052
  3648   6 C     3655   6 C                                       1.5361594
  3655   6 C     3656   6 C                                       1.5354073
  3657   6 C     3658   6 C                                       1.3892761
  3658   6 C     3659   6 C                                       1.3840774
  3659   6 C     3660   6 C                                       1.3841982
  3660   6 C     3661   6 C                                       1.3838593
  3657   6 C     3662   6 C                                       1.3898237
  3661   6 C     3662   6 C                                       1.3831974
  3656   6 C     3663   6 C                                       1.5330261
  3663   6 C     3664   6 C                                       1.5315723
  3665   6 C     3666   6 C                                       1.3898955
  3666   6 C     3667   6 C                                       1.3822820
  3667   6 C     3668   6 C                                       1.3841343
  3668   6 C     3669   6 C                                       1.3837326
  3665   6 C     3670   6 C                                       1.3885588
  3669   6 C     3670   6 C                                       1.3839246
  3664   6 C     3671   6 C                                       1.5358165
  3671   6 C     3672   6 C                                       1.5368260
  3673   6 C     3674   6 C                                       1.3895534
  3674   6 C     3675   6 C                                       1.3838141
  3675   6 C     3676   6 C                                       1.3844429
  3676   6 C     3677   6 C                                       1.3839225
  3673   6 C     3678   6 C                                       1.3902414
  3677   6 C     3678   6 C                                       1.3832407
  3672   6 C     3679   6 C                                       1.5385521
  3679   6 C     3680   6 C                                       1.5380784
  3681   6 C     3682   6 C                                       1.3884739
  3682   6 C     3683   6 C                                       1.3849876
  3683   6 C     3684   6 C                                       1.3841990
  3684   6 C     3685   6 C                                       1.3838948
  3681   6 C     3686   6 C                                       1.3888006
  3685   6 C     3686   6 C                                       1.3810075
  3680   6 C     3687   6 C                                       1.5337533
  3687   6 C     3688   6 C                                       1.5343079
  3549   6 C     3689   1 H                                       1.0961594
  3551   6 C     3690   1 H                                       1.0912113
  3551   6 C     3691   1 H                                       1.0915414
  3552   6 C     3692   1 H                                       1.0930129
  3559   6 C     3693   1 H                                       1.0909897
  3559   6 C     3694   1 H                                       1.0924006
  3560   6 C     3695   1 H                                       1.0965311
  3567   6 C     3696   1 H                                       1.0902333
  3567   6 C     3697   1 H                                       1.0907579
  3568   6 C     3698   1 H                                       1.0947221
  3575   6 C     3699   1 H                                       1.0923166
  3576   6 C     3700   1 H                                       1.0938844
  3583   6 C     3701   1 H                                       1.0905814
  3583   6 C     3702   1 H                                       1.0897465
  3584   6 C     3703   1 H                                       1.0949000
  3591   6 C     3704   1 H                                       1.0918835
  3591   6 C     3705   1 H                                       1.0933425
  3592   6 C     3706   1 H                                       1.0921041
  3599   6 C     3707   1 H                                       1.0895417
  3599   6 C     3708   1 H                                       1.0922616
  3600   6 C     3709   1 H                                       1.0940653
  3608   6 C     3710   1 H                                       1.0950623
  3615   6 C     3711   1 H                                       1.0903029
  3615   6 C     3712   1 H                                       1.0921215
  3616   6 C     3713   1 H                                       1.0969353
  3623   6 C     3714   1 H                                       1.0907392
  3623   6 C     3715   1 H                                       1.0926577
  3624   6 C     3716   1 H                                       1.0948064
  3631   6 C     3717   1 H                                       1.0902644
  3631   6 C     3718   1 H                                       1.0925457
  3632   6 C     3719   1 H                                       1.0966347
  3639   6 C     3720   1 H                                       1.0904531
  3639   6 C     3721   1 H                                       1.0904292
  3640   6 C     3722   1 H                                       1.0958285
  3647   6 C     3723   1 H                                       1.0914461
  3647   6 C     3724   1 H                                       1.0929895
  3648   6 C     3725   1 H                                       1.0953888
  3655   6 C     3726   1 H                                       1.0917768
  3655   6 C     3727   1 H                                       1.0924643
  3656   6 C     3728   1 H                                       1.0953176
  3663   6 C     3729   1 H                                       1.0896199
  3663   6 C     3730   1 H                                       1.0916946
  3664   6 C     3731   1 H                                       1.0966602
  3671   6 C     3732   1 H                                       1.0894694
  3671   6 C     3733   1 H                                       1.0917539
  3672   6 C     3734   1 H                                       1.0946914
  3679   6 C     3735   1 H                                       1.0918234
  3679   6 C     3736   1 H                                       1.0927142
  3543   6 C     3737   1 H                                       1.0784485
  3548   6 C     3738   1 H                                       1.0813494
  3547   6 C     3739   1 H                                       1.0803573
  3546   6 C     3740   1 H                                       1.0812646
  3545   6 C     3741   1 H                                       1.0818540
  3554   6 C     3742   1 H                                       1.0813745
  3555   6 C     3743   1 H                                       1.0806564
  3556   6 C     3744   1 H                                       1.0802231
  3557   6 C     3745   1 H                                       1.0810081
  3558   6 C     3746   1 H                                       1.0804431
  3562   6 C     3747   1 H                                       1.0808628
  3563   6 C     3748   1 H                                       1.0802126
  3564   6 C     3749   1 H                                       1.0796079
  3565   6 C     3750   1 H                                       1.0808295
  3566   6 C     3751   1 H                                       1.0807407
  3570   6 C     3752   1 H                                       1.0802481
  3571   6 C     3753   1 H                                       1.0803126
  3572   6 C     3754   1 H                                       1.0804117
  3573   6 C     3755   1 H                                       1.0806819
  3574   6 C     3756   1 H                                       1.0808478
  3575   6 C     3757   1 H                                       1.0924507
  3578   6 C     3758   1 H                                       1.0812779
  3579   6 C     3759   1 H                                       1.0809144
  3580   6 C     3760   1 H                                       1.0799035
  3581   6 C     3761   1 H                                       1.0802655
  3582   6 C     3762   1 H                                       1.0805781
  3586   6 C     3763   1 H                                       1.0811235
  3587   6 C     3764   1 H                                       1.0803839
  3588   6 C     3765   1 H                                       1.0799865
  3589   6 C     3766   1 H                                       1.0809701
  3590   6 C     3767   1 H                                       1.0807171
  3594   6 C     3768   1 H                                       1.0812533
  3595   6 C     3769   1 H                                       1.0805929
  3596   6 C     3770   1 H                                       1.0800775
  3597   6 C     3771   1 H                                       1.0804245
  3598   6 C     3772   1 H                                       1.0802664
  3602   6 C     3773   1 H                                       1.0804113
  3603   6 C     3774   1 H                                       1.0800258
  3604   6 C     3775   1 H                                       1.0803091
  3605   6 C     3776   1 H                                       1.0804798
  3606   6 C     3777   1 H                                       1.0819925
  3607   6 C     3778   1 H                                       1.0894560
  3607   6 C     3779   1 H                                       1.0922315
  3610   6 C     3780   1 H                                       1.0785664
  3611   6 C     3781   1 H                                       1.0798043
  3612   6 C     3782   1 H                                       1.0803998
  3613   6 C     3783   1 H                                       1.0810413
  3614   6 C     3784   1 H                                       1.0810813
  3618   6 C     3785   1 H                                       1.0781334
  3619   6 C     3786   1 H                                       1.0809323
  3620   6 C     3787   1 H                                       1.0802134
  3621   6 C     3788   1 H                                       1.0809518
  3622   6 C     3789   1 H                                       1.0811071
  3626   6 C     3790   1 H                                       1.0811612
  3627   6 C     3791   1 H                                       1.0793681
  3628   6 C     3792   1 H                                       1.0805560
  3629   6 C     3793   1 H                                       1.0805625
  3630   6 C     3794   1 H                                       1.0804255
  3634   6 C     3795   1 H                                       1.0800198
  3635   6 C     3796   1 H                                       1.0804562
  3636   6 C     3797   1 H                                       1.0799233
  3637   6 C     3798   1 H                                       1.0804752
  3638   6 C     3799   1 H                                       1.0811597
  3642   6 C     3800   1 H                                       1.0810694
  3643   6 C     3801   1 H                                       1.0803034
  3644   6 C     3802   1 H                                       1.0798670
  3645   6 C     3803   1 H                                       1.0817759
  3646   6 C     3804   1 H                                       1.0807276
  3650   6 C     3805   1 H                                       1.0812734
  3651   6 C     3806   1 H                                       1.0805573
  3652   6 C     3807   1 H                                       1.0798074
  3653   6 C     3808   1 H                                       1.0804423
  3654   6 C     3809   1 H                                       1.0803893
  3658   6 C     3810   1 H                                       1.0810491
  3659   6 C     3811   1 H                                       1.0808186
  3660   6 C     3812   1 H                                       1.0802076
  3661   6 C     3813   1 H                                       1.0807589
  3662   6 C     3814   1 H                                       1.0799634
  3666   6 C     3815   1 H                                       1.0794381
  3667   6 C     3816   1 H                                       1.0811117
  3668   6 C     3817   1 H                                       1.0799849
  3669   6 C     3818   1 H                                       1.0804069
  3670   6 C     3819   1 H                                       1.0805094
  3674   6 C     3820   1 H                                       1.0806371
  3675   6 C     3821   1 H                                       1.0803889
  3676   6 C     3822   1 H                                       1.0810463
  3677   6 C     3823   1 H                                       1.0814136
  3678   6 C     3824   1 H                                       1.0827380
  3686   6 C     3825   1 H                                       1.0786032
  3685   6 C     3826   1 H                                       1.0806841
  3684   6 C     3827   1 H                                       1.0800642
  3683   6 C     3828   1 H                                       1.0805752
  3682   6 C     3829   1 H                                       1.0817057
  3550   6 C     3830   1 H                                       1.0879138
  3550   6 C     3831   1 H                                       1.0878022
  3550   6 C     3832   1 H                                       1.0858347
  3680   6 C     3833   1 H                                       1.0953184
  3687   6 C     3834   1 H                                       1.0898695
  3687   6 C     3835   1 H                                       1.0914502
  3688   6 C     3836   6 C                                       1.5334969
  3837   6 C     3838   6 C                                       1.3908828
  3838   6 C     3839   6 C                                       1.3828252
  3839   6 C     3840   6 C                                       1.3853691
  3840   6 C     3841   6 C                                       1.3838485
  3837   6 C     3842   6 C                                       1.3890449
  3841   6 C     3842   6 C                                       1.3841266
  3838   6 C     3843   1 H                                       1.0806783
  3839   6 C     3844   1 H                                       1.0811163
  3840   6 C     3845   1 H                                       1.0803241
  3841   6 C     3846   1 H                                       1.0804587
  3842   6 C     3847   1 H                                       1.0813761
  3836   6 C     3848   6 C                                       1.5315318
  3836   6 C     3849   1 H                                       1.0911783
  3836   6 C     3850   1 H                                       1.0921327
  3851   6 C     3852   6 C                                       1.3889295
  3852   6 C     3853   6 C                                       1.3841476
  3853   6 C     3854   6 C                                       1.3845929
  3854   6 C     3855   6 C                                       1.3846021
  3851   6 C     3856   6 C                                       1.3901840
  3855   6 C     3856   6 C                                       1.3835087
  3852   6 C     3857   1 H                                       1.0814904
  3853   6 C     3858   1 H                                       1.0807391
  3854   6 C     3859   1 H                                       1.0807688
  3855   6 C     3860   1 H                                       1.0800976
  3856   6 C     3861   1 H                                       1.0816439
  3688   6 C     3862   1 H                                       1.0968628
  3848   6 C     3863   1 H                                       1.0926356
  3848   6 C     3864   1 H                                       1.0922240

 * 2 distinct bonds (by element types)

   Z      Z             #   av. dist./Å        max./Å        min./Å
   1 H    6 C        1944     1.0850750     1.0975845     1.0771230
   6 C    6 C        1854     1.4191637     1.5409706     1.3800663


optimized geometry written to: xtbopt.xyz


           -------------------------------------------------
          | TOTAL ENERGY            -5104.047534636721 Eh   |
          | GRADIENT NORM               0.000959918707 Eh/α |
          | HOMO-LUMO GAP               4.074164887394 eV   |
           -------------------------------------------------

------------------------------------------------------------------------
 * finished run on 2024/10/09 at 22:04:34.069     
------------------------------------------------------------------------
 total:
 * wall-time:     5 d,  2 h, 18 min, 56.806 sec
 *  cpu-time:    33 d,  6 h,  6 min, 53.576 sec
 * ratio c/w:     6.525 speedup
 SCF:
 * wall-time:     0 d,  0 h, 48 min, 22.909 sec
 *  cpu-time:     0 d,  5 h, 57 min, 16.720 sec
 * ratio c/w:     7.385 speedup
 ANC optimizer:
 * wall-time:     5 d,  1 h, 29 min, 15.893 sec
 *  cpu-time:    33 d,  0 h,  7 min, 55.448 sec
 * ratio c/w:     6.520 speedup

