3795
 energy: -5103.011399330182 gnorm: 0.000880546304 xtb: 6.6.1 (8d0f1dd)
C          129.33502545718926      128.03968648646654      126.50996030096307
C          129.61314693576605      127.24986636726263      127.76136867144831
C          130.19965123886800      127.62818152561888      125.32021768629100
C          129.96430928906716      126.16955751692980      124.94114861403362
H          129.95770433926521      128.27372817004513      124.47420381768336
H          131.25203979247240      127.77452866853187      125.56921370353288
C          130.81240197538449      125.73561876793406      123.74992624230558
H          130.22083596135766      125.53139949833309      125.78743738545478
H          128.91028834526097      126.01088135052672      124.71260374235349
C          130.71052434773870      124.23702034196847      123.53102884319937
H          130.49262780392419      126.24534012059540      122.83863992875020
H          131.86009576582600      125.99019069974480      123.92714787447470
N          131.61335337532461      123.75040102100016      122.65814482681660
O          130.81779588716813      126.75081153966185      127.85490861359828
O          128.77028591089586      127.10558102406269      128.63328536402872
H          130.93070711273003      126.18442379851999      128.67577030500962
H          129.50833671160288      129.09139697790863      126.75509661328212
H          128.27365943188028      127.93500392089243      126.27790596542688
C          131.73960781408809      122.34517061553464      122.34991936899149
H          132.22076128393263      124.38614259165149      122.16633864553835
C          131.53341804278332      122.05656078208808      120.86602569465305
H          132.73540299627615      122.00116892496624      122.65554917918175
H          130.99007494607693      121.82734638583489      122.95243081785154
C          131.84386338347684      120.59842834516705      120.54331963861824
H          130.50626867583532      122.29276095873745      120.58751606579058
H          132.19398355261552      122.69610024384369      120.27641093854795
C          131.78008114729585      120.33595816584135      119.04268420728275
H          132.84917359879660      120.36499869745700      120.90292765383927
H          131.14538510219955      119.94494654197821      121.07015694144560
C          132.29796322826630      118.94565777221136      118.68057513834928
H          130.75044976798830      120.44372234713370      118.69981080881612
H          132.38258546480526      121.08859011886412      118.53130637076822
C          132.48222272877675      118.79009383656110      117.17966320223189
H          133.26347161256555      118.78171292550380      119.16326272466560
H          131.60740643365887      118.17957510523105      119.04095999887154
N          131.20967899433398      118.87076195009503      116.49141965824083
H          133.13210448653294      119.58350544383939      116.79537693417576
H          132.96731362386859      117.83569812510598      116.94413774624739
C          131.13368965497611      118.67919373791491      115.17123170748954
H          130.35939846176370      118.80986002905669      117.04091492936850
O          129.91004654254027      123.52316064802041      124.10772932331162
C          129.73971903125491      118.77049612901300      114.57995373830708
C          129.75703959960282      119.67081419667531      113.34673854026627
H          129.44598710803234      117.75984562007041      114.28406486821565
H          129.03036802964934      119.11844903542186      115.32813140513591
C          128.45911269266108      119.59710794514564      112.54845192249577
H          129.94448957994445      120.70323236255767      113.64976272296560
H          130.59314468878216      119.36271048795281      112.71422439104998
C          128.62093695398514      120.30088024281399      111.19988453296618
H          128.19515714747081      118.55049400315177      112.37654803940001
H          127.64814403660338      120.06021380069214      113.11354923486758
C          127.40370425846763      120.11955905614424      110.31536123236242
H          128.80434084810912      121.36471842376855      111.35775572648014
H          129.47655772896400      119.87705858368518      110.67107838249011
N          126.38980723158744      120.96176397053604      110.55835231343625
C          125.21416306619851      120.95626167347184      109.71198787531000
H          126.32565993906120      121.45683699790500      111.44109611966852
O          132.12215506766975      118.45355289311648      114.47975717763757
C          124.11075010968761      121.83238279096346      110.28008450746668
H          125.50033980364229      121.30639952802498      108.71348673972983
H          124.85784894075691      119.92762801394286      109.59240671152334
C          122.93474896775425      121.87011044416539      109.31136695420741
H          123.79388223059487      121.43036110329074      111.24291662241711
H          124.49995037051515      122.83821849357989      110.44700329868837
C          121.68608340054863      122.54178229855371      109.87351790355551
H          123.24988586479483      122.35985303328417      108.39104486743807
H          122.67017623507778      120.84632909003022      109.04596505219003
C          121.85627339814137      124.00695266054203      110.26555392347200
H          120.89720937524174      122.46675657672570      109.12144102557512
H          121.35758491463004      121.99292016517937      110.75809568964149
C          122.33925416398820      124.87565061851585      109.10707175260208
N          122.11568596753062      126.28091996575326      109.37694508948900
H          123.40850167111367      124.71553859685916      108.93212419417583
H          121.79779812660321      124.62792903952680      108.19112970765592
C          121.51415331289544      127.07197449963424      108.49164944671631
H          122.23600277881555      126.55545107081707      110.35493487238435
O          127.36245366774244      119.28342771479440      109.42284267654603
C          121.34146626069045      128.53975684423594      108.84949676153315
C          121.07244797379819      128.94121650793332      110.29961369939754
H          122.26664536072386      129.02681204301905      108.52180497433825
H          120.54248168238207      128.93084789471018      108.21692036101332
C          119.71683519186328      128.48494458496168      110.85246129071089
H          121.87835769283033      128.59567662012296      110.94620164357353
H          121.09584450931993      130.03282283877596      110.32561051991991
C          119.72406921266575      127.06358782667814      111.42948799189992
H          119.42071605381200      129.16044869930144      111.65759688636311
H          118.96148826693182      128.55086924064796      110.06615579506428
C          120.83008477113415      126.98167032147178      112.46144627315972
H          118.76572556872649      126.85788046889506      111.90359553384233
H          119.89240313383847      126.33239034524145      110.64096172377928
N          120.50103641606179      127.45235781249812      113.65886338258009
C          121.48023787551008      127.72872400893870      114.68606792955055
H          119.56104707579797      127.80979877140057      113.80763707804029
H          120.88780410124149      124.37685601730779      110.60890146490064
H          122.55084746809506      124.10396607036868      111.09957255892661
O          121.18259500427560      126.67591886600745      107.37115647991608
O          121.95915907685384      126.57152942585397      112.17697239889634
C          121.59670177905362      129.23254252719903      114.94259080773281
H          121.19877387701808      127.21386426292271      115.60659456706405
H          122.43349189312868      127.33330223341045      114.32964011225884
C          120.45005893759732      129.78752308430347      115.78721300690697
H          122.54269672784407      129.43557381050590      115.44588587247067
H          121.62555552769537      129.74228534706137      113.97655314202754
C          120.48578763417269      129.25449656088344      117.21651679551627
H          120.54632247575510      130.87443299909776      115.81813060668564
H          119.49223397480081      129.54633138868266      115.32247491468708
C          119.48844385956950      129.94418484268951      118.14512147441523
H          120.26368089868417      128.18647267656843      117.22989239484629
H          121.49261620260089      129.38183175792611      117.61366381243819
C          119.82391212691186      131.38996690077482      118.48464235441256
H          118.49189239101565      129.91706863174889      117.69867122347314
H          119.45874358876488      129.38952252869024      119.08110396289914
N          121.15830777273707      131.49738733464375      119.03399595605201
H          119.76671754734362      132.03772878591653      117.60311842776764
H          119.09240773022640      131.76099346443041      119.21077661957312
C          121.67915518079340      132.67996633723055      119.39165357755800
H          121.61030700602269      130.64715904315770      119.34988569766401
C          123.14726124477271      132.61488471463613      119.76925797960499
C          123.99875095756117      133.07679615125434      118.57820268794515
H          123.33053255095795      133.28611606624168      120.60950774768790
H          123.41098628066310      131.59855546842553      120.06034768466824
C          123.75194218759555      132.25895082514847      117.31152773288650
H          123.77115418473538      134.12456206502716      118.37061813639542
H          125.05379389247683      133.01077137147493      118.85308000197585
C          124.65646247488324      132.72842694701586      116.16657371950799
H          123.94141478738177      131.20256172378677      117.51192154130486
H          122.70945223766171      132.36681964886233      117.00565280289395
C          124.36863256180635      131.94723604968388      114.90083340035672
H          124.49570018041177      133.79110076295103      115.98622452182607
H          125.69989548943516      132.56250694554322      116.44152329865686
N          123.65396237181572      132.60716147382882      113.98440819097205
C          123.27840066044202      132.02437931729096      112.71844280255782
H          123.24243526380924      133.51001407658492      114.22948155571608
O          121.04372215942108      133.72507806210109      119.34997394517681
C          123.33858730501505      133.04592818305093      111.58323735977606
H          123.96054722244044      131.19181990404823      112.52862838478228
H          122.25866373971468      131.62146641930860      112.78180132193278
C          122.64392653004835      132.50966841417687      110.33255716315460
H          122.84182817064705      133.96248129182365      111.90830939845353
H          124.37731044972813      133.29563433849836      111.36363971824545
C          122.54722119827333      133.55137288453949      109.22014929245390
H          123.18207612884147      131.63267026061780      109.96556877413805
H          121.63715651204521      132.19748007282371      110.61339610556041
C          121.80053214551738      133.04997043907034      107.98132298378252
H          122.03856491524928      134.43767836276695      109.60540745496434
H          123.55407594689375      133.85312404639700      108.92467866434842
C          120.33534527325935      132.72082909742917      108.26341094013800
H          121.83513140174027      133.82751948102381      107.21580332916066
H          122.29748233472061      132.16531530143993      107.57776774771783
N          119.57746599642415      132.60867063532623      107.03640214145372
H          120.25438559028288      131.78481019882076      108.82850475704804
H          119.87074211242941      133.51738551748062      108.85109358270519
O          124.76260613995990      130.79635755692880      114.73488117321644
C          118.31446438833574      133.03079155254952      106.93492904830528
H          120.00418863104950      132.10781124657458      106.25723175685238
C          117.71620223457330      132.88106609207944      105.54602223225015
C          116.19174457526664      132.96583853701952      105.57044111839234
H          118.12139954629640      133.69052795120464      104.93393085843800
H          118.05318118011935      131.94132689405652      105.10843846544488
C          115.57023847468214      131.78312221621371      106.31945942095716
H          115.90429980055880      133.90472982586027      106.04581031964460
H          115.81262150980373      132.98620654612739      104.54686358126578
C          114.11892526215031      132.03290352944094      106.71927120798033
H          115.60240368846060      130.90333223507261      105.67347188606054
H          116.15942209713465      131.55331422279457      107.20957932100998
C          113.87491456750779      132.91810114055070      107.92734326360195
H          113.57778412373493      132.48572717036731      105.88295742874264
H          113.62390636106427      131.08082389966788      106.92881315508703
N          114.89273221095380      133.57174207044650      108.47000508760533
O          117.69611745695032      133.51484638208882      107.87871104861053
C          114.71642509051979      134.46716338163421      109.59462838839043
H          115.85320076320347      133.47837874686823      108.14134574190054
C          115.51920184301773      135.75173898214450      109.41675126494867
H          113.65023290974769      134.69480935747910      109.66773739604027
H          115.02857208716297      133.95739656881230      110.50775983284065
C          115.26127227981090      136.74147196539167      110.55643363372296
H          116.58091161865320      135.50876062048158      109.35684279432392
H          115.22659713098035      136.21469190622867      108.47179618040835
C          116.05357418895863      136.45578300354637      111.83418185968721
H          115.51928239566742      137.74638434472502      110.21394395159150
H          114.19365760324722      136.74204439082928      110.78795114429525
C          115.60044728346116      137.38309611186375      112.96538407640446
H          115.91531188735749      135.42251534869277      112.14786593626944
H          117.11590861530792      136.60907019318833      111.63276173182864
C          116.62848006259952      137.55996002163815      114.07934112211443
H          115.39577642702734      138.37484805381564      112.55478735860029
H          114.67299075887928      137.00102434559577      113.39419749606711
N          116.87342296770713      136.32984608614819      114.79609004482234
H          117.56910061886008      137.92811536755022      113.65089445930174
H          116.25561574372401      138.32669654105376      114.77186803996830
C          117.68752943074780      136.16458886821002      115.84093501685771
H          116.33764173456734      135.50305033376759      114.52196259393290
O          112.72523571864885      133.01450867471351      108.38039468051099
C          118.45159242018346      137.36910884294770      116.35409292773309
C          119.77786060526071      137.56516873819263      115.59035407768043
H          117.83149126273911      138.26109039516570      116.27433696882305
H          118.66285178265949      137.19658475008123      117.40991035250438
C          121.00758957774507      137.20179005311971      116.42545447736092
H          119.77657539003430      136.96096823463310      114.67991276229783
H          119.86923532964929      138.61063840502408      115.28799218726608
C          121.07238252217513      135.71722758692223      116.79486189187583
H          121.90470004214998      137.45486369977908      115.85522508630916
H          121.00978936328610      137.79866002572271      117.33974363013860
C          121.27579925338638      134.88464992899662      115.55040503121523
H          121.92177490005724      135.55381297500415      117.45890406224288
H          120.17206695993414      135.40127729095371      117.31789865690718
N          120.22421857252014      134.13967499673575      115.19154600681657
C          120.17663356074026      133.38715272868203      113.96043732589349
H          119.35945507903196      134.22088296130508      115.72109136306103
O          117.83086413599530      135.05555320419805      116.35163303859098
C          118.85428710917881      133.57524471363178      113.22406984221460
H          121.00705352279419      133.73051628649600      113.33814597537621
H          120.32196767315180      132.32079375215395      114.17466152992552
C          118.86222960099995      132.80698920824372      111.90036388275061
H          118.03766167187101      133.23845374332853      113.86146557930621
H          118.69402032029959      134.63645094472992      113.02528323287066
C          117.46484826268872      132.66074465165784      111.28405516126693
H          119.51583102999193      133.33571032324747      111.20433701801268
H          119.29457310251001      131.81598792831383      112.05853928722098
C          116.83001118053838      131.29099207710723      111.52830720716952
H          116.81893592354427      133.42555267495140      111.71461895392856
H          117.51631699664459      132.83235830928464      110.20788004422418
C          116.67739251683462      131.00090859676357      113.02246753720594
H          115.84406547179923      131.26604061006299      111.05641955494453
H          117.43846284821193      130.50967349061631      111.06724538909945
N          115.98788160113546      129.75949925751038      113.29503005798234
H          117.66306029366145      130.92048600982312      113.48541867247741
H          116.12449722386130      131.81643898589513      113.49015308441354
C          116.63451714482022      128.67495625048289      113.73058538471088
H          114.97375880481147      129.75875217247889      113.19864094937782
O          122.32712292807433      134.90127356064087      114.91247121371789
C          115.75931861766161      127.50566054719729      114.13045587329452
C          115.48218573515976      127.55889030201246      115.64199465249584
H          114.82708823076365      127.51360391510013      113.56748593810424
H          116.30680665773180      126.58679443251307      113.90789730258169
C          114.54850004136351      128.69127621916158      116.07043431417428
H          115.05008329941258      126.60651482329585      115.95548117046572
H          116.43824810380761      127.67013013684048      116.15884529769143
C          113.11950877762150      128.50301038799518      115.56770455246726
H          114.53553938278124      128.73537640881489      117.16262217651931
H          114.93043672506818      129.64490169235177      115.70778756004430
C          112.17863773766702      129.59284323648475      116.03678325819874
H          113.09691306876752      128.54195235501237      114.47725914178214
H          112.72202949908996      127.53684175378781      115.87928796368470
N          110.87916650760467      129.29179208032397      115.88505474490961
O          117.85867557803005      128.63272301557643      113.83478352289171
C          109.82173256963178      130.23301229449399      116.17827020692745
H          110.62116168703102      128.39063898811966      115.49064326106084
C          108.87566831066280      130.43206164931158      114.99562939287975
H          109.24667912640824      129.88539306069359      117.04305997429132
H          110.30645224002717      131.17719973075154      116.44253031567128
C          107.93038130836428      131.60806885961196      115.23270865008158
H          109.46669301192557      130.61446259874558      114.09936055477199
H          108.29833684154340      129.51996750552698      114.83709621779185
C          106.88780014868280      131.77748177748154      114.12761622104520
H          107.41271077911749      131.46456209188401      116.18402811690467
H          108.51787200973871      132.52548342626295      115.31354051746855
C          107.50633481869690      132.01891253209229      112.75168809051007
H          106.25279431146933      130.89093784044044      114.08485959210272
H          106.24615772845134      132.62433002403606      114.37859755213707
C          106.47521877568987      132.51190271532823      111.73729255981222
H          108.29672782344639      132.76785523633509      112.82906582615323
H          107.94877174059947      131.09337848417982      112.37908129881659
N          105.40333890350598      131.56341614796892      111.54768936368509
H          106.01203075740489      133.44039487891666      112.07995183290252
H          106.97096776807577      132.70053260711595      110.77619956139887
C          104.10774504653656      131.89207027221801      111.72683768897430
H          105.66551409046717      130.62004528400561      111.29159808734465
O          112.55854514947823      130.65883228317728      116.50783211300561
C          103.13279060680803      130.76939075130596      111.38963608387068
C          101.79949341001461      130.95683690603630      112.11414668268607
H          102.97376426072098      130.81283228292551      110.30841345218634
H          103.58416228496158      129.80415385467532      111.61805422465790
C          101.81764823538614      130.42515871995050      113.54778711087731
H          101.59072278915669      132.02792000791837      112.13200508747121
H          100.99977379012749      130.46327189791242      111.55797778876483
C          101.66258445061445      128.90831568940106      113.60044539298622
H          102.74799851188835      130.71468147121021      114.03858760182294
H          100.99974722907314      130.87707604058846      114.11157770148621
C          101.80893194520986      128.34465248103311      115.00550842940447
H          100.69229696202810      128.60893289414841      113.20049935649799
H          102.43075430678300      128.43054351420250      112.98581101634663
N          101.39265232180148      127.07144674163969      115.09853018809497
C          101.45121559499317      126.29549955015496      116.31524865480412
H          100.88617833439427      126.65195837220793      114.32146731423300
O          103.75010423739342      132.99933306442742      112.07878310379506
C          100.11363737789684      125.61889442353861      116.61212471964986
H          102.23191156948546      125.52922168019198      116.22262429418342
H          101.74044382953504      126.96969486257119      117.12368534679474
C          100.28752020385967      124.49143173043602      117.62573733432285
H           99.40774780873073      126.35772979478325      116.99559953774487
H           99.70807664725625      125.23308091628971      115.67518812012656
C           98.97124312028653      123.83386128157363      118.03871571309736
H          100.96599817776520      123.73783797803209      117.22450310389880
H          100.76309516696908      124.89923320390841      118.51573014130005
C           98.31887209229011      122.97681325773182      116.95077319228551
H           99.15348524262173      123.21042461636181      118.91732039943597
H           98.26292562290578      124.61124834489982      118.33341235614564
C           99.17078842834670      121.77970451711471      116.52095964437449
H           97.36067874558888      122.60934100945322      117.32667366188571
H           98.11573391224141      123.58430814424061      116.06850204069789
N           99.56765059414734      120.96574804532229      117.64764766886226
H           98.60443257287949      121.16105243872681      115.81832795827869
H          100.08703835536291      122.10930284312791      116.03058986850334
C          100.83775617511307      120.76234677148391      118.01310308511509
H           98.82422396397659      120.56486905361197      118.19797902230533
O          102.31316546974445      128.95550755096747      115.93511508654849
C          101.01668330309114      119.95693192095352      119.28239210884846
C          101.18538295189970      120.88893767109946      120.49167217143074
H          100.15856965655678      119.30222507708909      119.43731608392481
H          101.91357465849494      119.34238725788191      119.18310599743322
C          102.46221560717777      121.72122524485088      120.40425754326708
H          100.32215878514170      121.55133738597713      120.57571224060601
H          101.22076955587578      120.27887952098548      121.39621221187591
C          102.67442939152753      122.56289215995267      121.66367077471899
H          103.31496804269099      121.04629999293550      120.29415553776894
H          102.43067684871092      122.36701135503107      119.52514313240519
C          101.65469563413900      123.68326962553587      121.79754729212894
H          102.59323739588729      121.92047876645839      122.53979653149496
H          103.67316623534188      123.00239254212870      121.64496530842905
N          101.86534803016978      124.73201173114364      120.98819131448793
O          101.78851401859184      121.20558208337448      117.37629465392020
C          101.00808755062917      125.90165205874456      121.02116976949192
H          102.62388947250652      124.75017143035717      120.31713910607480
C          101.70256565011175      127.05347813503366      120.31156993624735
H          100.04606884119522      125.67579603822996      120.54423663250141
H          100.79887759676069      126.14153170830770      122.06890500950287
C          100.83404974086588      128.29999289556193      120.18032835770545
H          102.61252580822033      127.29785195066934      120.85846957270400
H          102.00538359496069      126.71902423113967      119.31859916889562
C          101.52749092257615      129.34900883165159      119.31337991011475
H           99.87300142004331      128.03380953578940      119.73527936450944
H          100.63307123923599      128.71384144886434      121.17167296890263
C          100.82309828797293      130.70222305303497      119.34536986615606
H          102.55020535073125      129.47926796836558      119.66872550547332
H          101.57666605947610      129.00246196081639      118.27965416517175
C          101.38254055627405      131.65713732521317      118.28895824928684
H           99.75610135725617      130.56697263389393      119.15629699382274
H          100.93773782164989      131.15203387879671      120.33372570236125
N          102.82051544164942      131.84534457002184      118.47228112571207
H          101.14181830437072      131.26018945182983      117.29186923073323
H          100.89688463839146      132.63141244861322      118.39517345833657
H          103.13203874330115      132.61683991590382      117.89080133020845
H          103.29389106732810      131.01523615347642      118.12817852802917
O          100.73156709314785      123.63937043093301      122.59308537616029
C          121.93825832212326      106.65148550334331      119.27619178316932
C          120.92185758159314      105.55686851571674      119.04154234021277
C          121.43435006717476      107.64717606575151      120.32602483521589
C          121.55174119688333      107.12701345746801      121.75601781282690
H          122.01403312221699      108.56597536999068      120.23299586801203
H          120.39089752468674      107.87820148903538      120.10508445780211
C          121.02627864643534      108.16237506897164      122.75978963335595
H          120.98726411027381      106.19918923828605      121.86254021524184
H          122.60082073088458      106.91503960971650      121.97572082082098
C          121.46948580357245      107.79642974757357      124.16443482489838
H          121.42743080830505      109.14345459077484      122.50366711795540
H          119.93799236733773      108.19905474257695      122.71867576680562
N          120.68016154249945      106.90924854002607      124.76889507033223
O          121.36709559849815      104.36381881239240      119.38111508407650
O          119.81528160211431      105.76032489922345      118.59545066944953
H          120.66332479365643      103.65231760910123      119.28801315294268
H          122.07673123764087      107.19197322047437      118.33780455915166
H          122.88513110600645      106.20770922587570      119.58056572977218
C          120.94646980784711      106.37852421853351      126.08834733762612
H          119.77008470776586      106.70160814192801      124.37276329092792
C          119.98122406985031      105.24718801735723      126.42850979898537
H          121.98518491615769      106.03459017809674      126.12292659783165
H          120.84421792271476      107.18124489411596      126.83045878140683
C          120.29086622822588      103.91962603059244      125.73406834298200
H          120.00858294695760      105.09060461861658      127.50915555239759
H          118.97385294600161      105.56715183737867      126.15654959473476
C          120.09516259838215      103.96824496376382      124.21973719945207
H          121.31924690850511      103.62620687254032      125.95834139851067
H          119.63494075588781      103.15170998791299      126.15298651381642
C          120.21096656439722      102.58380488140828      123.58292745594092
H          119.11774571659289      104.39532579537806      123.99042594180014
H          120.85705550077408      104.61542064108471      123.78455398879476
C          120.18628806399218      102.66012898495815      122.06219828213484
H          121.15236445096410      102.12351411329858      123.89115550080034
H          119.39402645241707      101.94227464082118      123.92051788913271
N          118.85388240617164      102.95593682589528      121.57328551195113
H          120.88119414442461      103.43433692394943      121.71549637534550
H          120.51450950723645      101.71222659259693      121.62066066825128