3258
 energy: -3427.473953539254 gnorm: 0.000718292881 xtb: 6.6.1 (8d0f1dd)
C          109.41924838310302      124.02039308191264      119.17974020949265
C          108.52338317547533      124.32657283764209      117.98677702267068
C          107.43369500619922      125.33371576669767      118.34505246798842
C          106.50932936465362      125.67295999843959      117.17488287877983
C          105.52586281881484      124.55646283802453      116.83105406740437
C          104.59851093249843      124.95398349170681      115.68498567508050
C          103.55778274389601      123.88004763269025      115.37917475620551
C          102.68350801198901      124.25141220494561      114.18368816887731
C          101.60568112777685      123.20591714899268      113.91086441645425
C          100.80319201251751      123.50611982877098      112.64670443649676
C           99.69755423792719      122.47772686730002      112.42377080726469
C           98.97836790449279      122.65470678932911      111.08799907820429
C           97.86952027090321      121.61791262830047      110.92456263874318
C           97.14661680677305      121.67155387817617      109.57864128839265
C           98.06069378099511      121.38262952280816      108.38634143991186
C           97.27801211118751      120.91409092404852      107.16094813904803
C           98.18725579387316      120.70866444177209      105.95034333602200
C           97.50736217075830      119.97175105739748      104.79402344810184
C           97.31007001380578      118.48619341994564      105.08849375517013
C           96.85667664627795      117.68500179495997      103.86984355920283
C           96.64958432141556      116.21699167120035      104.23586505070486
C           96.20634630535345      115.35040989958461      103.05907543903216
C           95.84589601107881      113.92452007007365      103.48604386190752
C           97.05840539009067      113.06097464659268      103.83239269154535
C           96.64987163604565      111.74881372209758      104.50121229702445
C           97.78106271245719      110.71954217604210      104.57015833294120
C           97.98859785074826      110.00623698552720      103.23520210419586
C           98.92004346156307      108.79686625262642      103.31480467246904
C          100.40892199222014      109.12594593474803      103.42174418633512
C          101.03330027992773      109.63946391461307      102.12427727771694
C          102.55444311077285      109.70035331018181      102.23937221091471
C          103.24353975998424      110.22546422522007      100.98238025232337
C          104.76142032952983      110.27015085887464      101.15238753874716
C          105.47479186486022      110.88179845859555       99.94922770271988
C          106.99175453812028      110.89862908260370      100.12830122448921
C          107.71327816976152      111.56505025850629       98.95867039189632
C          109.23249642307756      111.49267397667833       99.10057109534381
C          109.96042265208123      112.15271743241078       97.93190031709715
C          111.46818715898891      111.89213130431493       97.93070267171294
C          112.25286662216064      112.68486830260528       98.97453972108841
C          113.74464844929381      112.36225225486601       98.90727928093295
C          114.58955481794079      113.18525265036942       99.87449844157895
C          116.06097302391146      112.77934394835385       99.82531765365039
C          116.90027213125624      113.51264705998942      100.86778784775615
C          118.35917083465574      113.06201393012509      100.86279175202677
C          119.16714061096204      113.74136228647295      101.96532315335564
C          120.62374387692952      113.28423579170388      101.99800346262367
C          121.42826147865398      114.02806715345091      103.06123523279631
C          122.85764820690999      113.50284338681955      103.17930544446853
C          123.73398462526045      114.31155310912276      104.13988010013247
C          123.10872339552506      114.46854742380221      105.52401716697401
C          124.08645622262777      114.99329078590836      106.57470917294619
C          123.34235259312467      115.33690128607236      107.86318080583747
C          124.24434379041855      115.62726847956532      109.05921377613291
C          123.41331657507173      116.08318631057861      110.25756655845581
C          124.23315604605817      116.23812022147558      111.53536107458531
C          123.39277184267080      116.75319600142424      112.70632684970549
C          122.48598775552973      115.69052187426020      113.32451822021352
C          121.54402393193665      116.28369603474876      114.36976346450830
C          120.74104115887506      115.21079940519969      115.10458044748422
C          119.64243366473660      115.79780336657558      115.99579156458923
C          118.40534574793402      116.20331531169830      115.19745287770827
C          117.35985331961716      116.96528520864148      116.01188515467540
C          116.71056898099511      116.13758804327874      117.12336553514962
C          115.30701621600706      116.63276338750590      117.48049015638918
C          115.29024769948379      118.04146189762938      118.06911763646185
C          113.88355272342801      118.53764235366897      118.41155412735777
C          112.99959669330056      118.71569178695475      117.17849902388282
C          111.72331903421914      119.50747737438344      117.45704976619982
C          110.82333896490421      119.56547983961789      116.22438918935637
C          109.60952966103004      120.47185257230149      116.40497035965161
C          108.67367884071659      120.41380794230895      115.19823767120644
C          107.56664354800370      121.45982202076659      115.28446483213568
C          106.63139982586375      121.47421153378561      114.07365815504382
C          105.54083651908955      120.40759248657109      114.11259501116373
C          104.59899507319572      120.52366214055347      112.91528870481163
C          103.39644963512907      119.59062973287676      113.02739341418753
C          102.54086900601189      119.58680146731584      111.76299282745340
C          101.33755829470174      118.65484259870293      111.89093946388270
C          100.57885824453770      118.49850905047806      110.57592799180377
C           99.44832784176872      117.47537287291144      110.67092717940872
C           98.75724190100617      117.25787446959465      109.32624067641315
C           97.87272306972679      116.01175039810424      109.30371072780288
C           97.21534502683326      115.83672046904388      107.93626575371039
C           96.58675472857239      114.46518108465459      107.69584981794638
C           95.34448084796936      114.17260323846195      108.53457428670421
C           94.62906584306421      112.92832558425260      108.00812769457974
C           93.40163578041609      112.51887037401731      108.82235463531983
C           93.77794719405230      111.87823960059337      110.15464597664686
C           92.58228849680376      111.34347373498179      110.94186030738807
C           91.54576438516938      112.39506554374562      111.34731671696933
C           92.12250330543752      113.64431337234018      112.01463511760116
C           92.94479257766500      113.35204783000161      113.26770833466328
C           93.42076286186735      114.62697685619469      113.96592946684414
C           94.51732886332493      115.35380776696701      113.18857010860502
C           94.82007286289006      116.73275090253414      113.76832788524986
C           95.84310134951565      117.49225198730687      112.92491668608957
C           95.92991455177699      118.97548542274663      113.28541437967823
C           96.62046478452186      119.26109967922855      114.62033337718847
C           98.14356750693931      119.22010376007235      114.52285283656182
C           98.80409290667151      119.53630152050070      115.86226548227482
C          100.31837490913775      119.68664350657750      115.74643065886593
C          100.97349846722769      119.96911139360920      117.09645612588886
C          102.47995757947729      120.18239086064790      116.97306630740691
C          103.15683954985451      120.37367531356077      118.32877870613125
C          104.66994813263941      120.52544079416892      118.19089585511283
C          105.39004066531102      120.57331407332794      119.53768573311152
C          106.90496296520723      120.50125992817844      119.36410382206405
C          107.66677439070097      120.46177763165781      120.68726754353044
C          109.15917136299130      120.23029621284722      120.46045015194768
C          109.96288631210095      120.14326156794201      121.75584772947261
C          111.45039079702957      119.93595536217865      121.46937944831463
C          112.26706355077205      119.51271456880576      122.69013548902696
C          112.47917899966923      120.63217529732539      123.70671260678816
C          113.08076463456452      120.13773260032727      125.02477219714440
C          114.47775543106385      119.52314465688816      124.91571971111489
C          115.56762161805918      120.53656948291298      124.57365452272595
C          116.94574233113174      119.88289074715905      124.49942241415276
C          118.05011524162164      120.88473625280839      124.17058999786866
C          119.41031396404713      120.20805729538347      124.05074014160652
H          117.81249415456166      121.38849643036089      123.23086833174085
H          118.09143325379313      121.64795132634057      124.95171087043447
H          117.17040076566373      119.40045400320948      125.45449061257536
H          116.93129067525911      119.10405330299581      123.73396970406790
H          115.34611174625930      121.00769102625782      123.61437725544596
H          115.57939723794576      121.32426247736930      125.33179493845051
H          114.72349592039281      119.05961666348841      125.87526769820771
H          114.47199299006256      118.72968942419399      124.16697359997896
H          113.12141673365672      120.97442766130126      125.72783832663629
H          112.40680206656192      119.38794932634435      125.44747198575774
H          113.11683332219302      121.40374386120058      123.27058520754346
H          111.51670774214435      121.09564317536038      123.93422395722719
H          111.76280470069055      118.67689937675769      123.18051448667416
H          113.23902241757469      119.15636624308129      122.34355528394937
H          111.54604669305198      119.15297560091285      120.71430156175715
H          111.87200913451272      120.85052379133005      121.04625048011250
H          109.81389509440061      121.05575149957127      122.33739824277865
H          109.59069334024561      119.30740488401860      122.35265355662783
H          109.28780368137306      119.29626376719754      119.90698721589659
H          109.56032122803153      121.03631218019893      119.84240008185735
H          107.51518954686250      121.39999999412831      121.22721383687025
H          107.26899043102128      119.65806644927389      121.31018174756120
H          107.14484865376772      119.59955217991767      118.79359326853543
H          107.24458399358963      121.36041790027321      118.78085727009611
H          105.12183313919019      121.49006444804425      120.06937029113178
H          105.06234754864190      119.72885220351547      120.14821475342021
H          105.05584066419597      119.67801603498641      117.61852591742463
H          104.89174733946444      121.43528526111140      117.62738827973433
H          102.74169823963140      121.25417820172524      118.82701760847235
H          102.94009553240625      119.50761704763485      118.95855222250725
H          102.92171050733248      119.31521035477482      116.47680094070024
H          102.66939861464732      121.05754656070960      116.34686605918120
H          100.51632141804421      120.85649638547754      117.54374008463030
H          100.78204196974474      119.12903517189250      117.76813983379385
H          100.74114965398070      118.77146970524718      115.32624662743601
H          100.54242941104405      120.50572655758059      115.05863226249872
H           98.38260626474866      120.46382333440323      116.26102965100807
H           98.57032214043296      118.73972160508148      116.57246853418626
H           98.46860537210577      118.23407767064943      114.18588236104988
H           98.46807915662393      119.95285444389776      113.77979906614952
H           96.32406153284965      120.25641213677460      114.96356756586108
H           96.28127146345015      118.54547192568128      115.37126528490978
H           96.46849552272323      119.50341561533131      112.49532779365168
H           94.91500006876369      119.38152630632267      113.31282015166235
H           96.82229636479522      117.02249362680490      113.02819814018692
H           95.55031270887450      117.41446418982711      111.87399298438370
H           93.89141917828985      117.30940749560712      113.80491400705476
H           95.18015627108825      116.62641054656407      114.79311043293140
H           95.42724670356912      114.74870372506273      113.18738417969345
H           94.20495909855921      115.47930468013455      112.15001580332256
H           92.56906144622450      115.29983942457952      114.10096455304793
H           93.79848037631614      114.37492444604752      114.96033780002497
H           92.33179784142513      112.76821591767889      113.95884045744002
H           93.81452401903292      112.74696098258536      113.01217378222148
H           92.73338233195742      114.18277016452518      111.29000280382792
H           91.29001395136893      114.30005398512540      112.28670244719882
H           90.98471832563834      112.70794151825054      110.46327113054485
H           90.83242634753005      111.92287509242831      112.02908156949277
H           92.07639902655326      110.58139376011667      110.34220009622913
H           92.95608607299849      110.84971899659855      111.84020571815505
H           94.44813977025491      111.03943549888425      109.95123873205395
H           94.32770432416855      112.59551182504646      110.76378770306974
H           92.77291759567450      113.39576171016103      108.98798249623222
H           92.81676880069030      111.79934656614243      108.24248845767580
H           94.31953809323058      113.11932817530503      106.97619725684869
H           95.33527904180899      112.09450638688081      107.99000588100921
H           95.62991437705074      114.02798776469747      109.57730382792403
H           94.66243666933855      115.02615387911843      108.48847823215920
H           96.31072710877704      114.40266186405258      106.64057316236382
H           97.33137912255145      113.68637336079432      107.87978085916070
H           96.45561540340373      116.61019606942898      107.79863058182185
H           97.97839794044845      115.99329272488139      107.16947142320819
H           98.49083644276408      115.13624794615130      109.51884360187869
H           97.11219369643945      116.08206149724104      110.08430302506467
H           98.15608462101392      118.13518503125518      109.07587721097640
H           99.52043970105041      117.15393574905941      108.54994631220154
H           99.86459352985246      116.52394924249430      111.01137214196940
H           98.71582789937409      117.80015271048782      111.41404584650729
H          100.17765384561562      119.46697824060257      110.26750477724104
H          101.27850240170584      118.17691942093948      109.79989531890676
H          101.68751138513190      117.67174165328301      112.21254153071500
H          100.66117056087371      119.03096148876509      112.66236138486133
H          102.20162136452156      120.60211639989690      111.54484533606941
H          103.15528440858814      119.26364859205441      110.91861456017882
H          103.75002627286818      118.57449209124627      113.21542041643708
H          102.78337797219807      119.88668034256862      113.88203175621373
H          104.24836992799132      121.55493656650231      112.83017869775858
H          105.15180244118447      120.29192446188173      112.00236261327953
H          105.99465102018583      119.41433857383269      114.11593097880946
H          104.96638116165038      120.51313714598656      115.03666535483067
H          106.14757209795803      122.45194550175400      114.02189609697956
H          107.21875515186152      121.35386322459865      113.16019227676794
H          106.98173193958164      121.28956521100869      116.19181601205520
H          108.03658365312614      122.44311548578554      115.36953469290951
H          109.25271029822940      120.58468771707706      114.28646125459532
H          108.23621085898749      119.41653022843177      115.13343452737948
H          109.06194159981256      120.17767153159336      117.30231410712366
H          109.94847753928467      121.50117071259065      116.55103776482594
H          111.40750383813362      119.92591618119461      115.37521203452071
H          110.48048306802531      118.55603022052360      115.98475628911787
H          111.17645252730213      119.04720716332601      118.28298071127706
H          111.98601281186161      120.52268737016031      117.76716746211881
H          113.57081882386670      119.23574166338788      116.40562423902759
H          112.72541844652966      117.73378732381138      116.78745072629431
H          113.41009956868983      117.83745457737980      119.10456184547029
H          113.96812881552046      119.49741532827170      118.92889821473345
H          115.89729974342940      118.05225630125234      118.97857522934484
H          115.74405445078013      118.73702576163461      117.35957849872231
H          114.69431808306784      116.61260245254739      116.57738280094753
H          114.85753199516807      115.94453447787187      118.20174258891649
H          116.63227421891925      115.09952873347969      116.78984954552726
H          117.34241847179524      116.14835670357471      118.01484442586758
H          117.82072335936640      117.85998792198147      116.43751723045841
H          116.57613399465293      117.28938593799130      115.32317874621128
H          118.71239535853108      116.83627872087982      114.36172206000776
H          117.94464620321911      115.30648665789012      114.77439213471257
H          119.35447062628866      115.05740480337860      116.74598256621684
H          120.03892007166513      116.66747482976145      116.52441518146266
H          120.28594628528332      114.53425720721486      114.37660277681029
H          121.42812470035028      114.61947108097617      115.71578636477163
H          122.12621875226471      116.85296882962621      115.09842340433438
H          120.86523632309823      116.98132424129953      113.87501234207461
H          121.89039970125239      115.21274628235240      112.54403586569333
H          123.10628390176275      114.92099588461613      113.79015558353670
H          124.05814740838407      117.13702827282731      113.48484135944703
H          122.78056590929427      117.58859177747993      112.35797311776260
H          124.68083568068857      115.27812032540321      111.80280292946919
H          125.04964098392955      116.94076473044809      111.34618908398519
H          122.94388352537680      117.04102726055409      110.01853490450324
H          122.61494700915696      115.35871626881357      110.42503525764879
H          124.80560785337286      114.72689218623509      109.32303982390194
H          124.97030939932269      116.40149399960443      108.79746451214054
H          122.71208692613594      116.20977743685121      107.68321913875664
H          122.67730035609142      114.50693982797581      108.11605301000264
H          124.84962246629766      114.23735821609991      106.77468222230929
H          124.59647320867663      115.88307448456321      106.19634451758634
H          122.26469612006942      115.15753784140990      105.45989811504045
H          122.72463663066496      113.50125238579550      105.85473001096059
H          124.70041184899833      113.80792205926505      104.23480787134967
H          123.92597390357432      115.29997460085210      103.71485405237834
H          122.82443739268265      112.46362699000106      103.51794215043027
H          123.32567473075959      113.50572904808958      102.19047265445489
H          121.44622004649945      115.09244165010176      102.81869796205963
H          120.92406257913312      113.91653444941822      104.02276220219835
H          120.66214731900335      112.21157471907672      102.20686680899367
H          121.07987008845021      113.44356851288599      101.01669088264832
H          119.13385412562607      114.82372131520987      101.82195748458552
H          118.70492895858136      113.52043196891368      102.93148511700355
H          118.40185932165626      111.97901541232461      100.99988955086285
H          118.80789018394283      113.28788709175909       99.89133865761258
H          116.85170976478527      114.58790040174988      100.68419858411201
H          116.47600344409230      113.33002772274216      101.85915501493372
H          116.13800710336514      111.70251465589438       99.99821397721094
H          116.46011005679510      112.98163477399355       98.82752179211751
H          114.49527775915254      114.24596519921641       99.63283428033482
H          114.21359246447570      113.04399151499935      100.89113328186779
H          113.88837045590132      111.30173953714166       99.13202863999294
H          114.10495509723627      112.53595362246070       97.88895099542354
H          112.10506462536267      113.75336663759850       98.80040294862529
H          111.88021413189963      112.45410023704109       99.97492731367994
H          111.64444632995419      110.82315644136510       98.08022604660172
H          111.86324431344087      112.15278558323199       96.94506749930810
H          109.54496020508039      111.75760541616692       97.00068976786071
H          109.77644097670382      113.22995379140293       97.94552258199172
H          109.53005645681191      111.96734258504706      100.03776384630223
H          109.53208817790890      110.44384030516808       99.15295996923125
H          107.41907865284732      111.06959915527742       98.02981588263656
H          107.40230684135568      112.61100735290027       98.89178515475427
H          107.23861905868453      111.42822409914476      101.05257727416389
H          107.35229060182827      109.87273842457292      100.23348537664610
H          105.22554427840208      110.30588924128075       99.05492187599137
H          105.11559234145989      111.90350691332863       99.79829865519162
H          105.00180295856767      110.85579492957378      102.04405352996555
H          105.13568040263733      109.25591168805681      101.31547657156281
H          102.99107463608090      109.58341948664946      100.13449818836604
H          102.87487704255727      111.22972405281487      100.75706377022433
H          102.81309341618369      110.34346212359968      103.08291476791493
H          102.93463484325108      108.69872505648978      102.46052590727665
H          100.75952190902285      108.97551722966341      101.29942149381958
H          100.64801725703187      110.63423630469910      101.89016617720456
H          100.56573040214977      109.86188696567018      104.21239026062968
H          100.93650221504198      108.21311833449194      103.71354453815081
H           98.63077913134617      108.19248321900439      104.17868685038515
H           98.76781069318534      108.18168219503292      102.42395924599403
H           97.01197795648919      109.65544789929352      102.89169615994287
H           98.36403159371760      110.70782041699766      102.49112990144503
H           98.70066139528163      111.21349610667896      104.88878736455578
H           97.52685588381885      109.97395351290210      105.32756158757415
H           96.30143461730979      111.97057200772608      105.51264664642045
H           95.80772883851496      111.31183233197966      103.95736993321964
H           97.61943511063058      112.85411282125430      102.91930835413849
H           97.71777936017136      113.60744334437325      104.50824684687423
H           95.17892350350149      113.97455933079542      104.35130382270629
H           95.29055603625058      113.43923436245882      102.67858409942814
H           95.32928632828371      115.81046455724383      102.59593027842280
H           96.99633313452131      115.31782092370679      102.30478384876180
H           97.58149048908449      115.82581234461792      104.64777172688925
H           95.89113805523094      116.15839583566301      105.02027959506009
H           95.92376001960712      118.10199610530879      103.48169716879013
H           97.60752496252920      117.76613464818752      103.08055040658007
H           98.25339866417923      118.07190712370091      105.45131895506047
H           96.57102564437319      118.36372680761926      105.88206880406398
H           96.54399812233548      120.43888440150869      104.57581856815676
H           98.12815002723912      120.06948719033591      103.89999451766708
H           98.53502652395655      121.68542179202861      105.60322016540457
H           99.06599264290440      120.13660321928083      106.25960660760525
H           96.77773027457556      119.97537184075483      107.40579505600374
H           96.50464316599748      121.64615482610769      106.91520377339948
H           98.63040150351969      122.27817083330127      108.13055152907137
H           98.77376483411402      120.60113284007832      108.66059936158447
H           96.34704834282627      120.92555110266566      109.59727290401948
H           96.67628411634048      122.64942305431873      109.45112887285649
H           98.29859869781660      120.62068895446158      111.05018346502241
H           97.13510934417086      121.76334867607711      111.72182960389247
H           98.55274809320464      123.65950785844736      111.02706252575315
H           99.70175204265304      122.55116489506973      110.27705351044622
H          100.13240202826400      121.47622470735219      112.45721876845687
H           98.97153981863661      122.54952209619363      113.23829526303442
H          100.36162268762125      124.50314415874865      112.71876964877340
H          101.47629350037469      123.50949840827018      111.78540992524007
H          102.07650445225187      122.22621611144406      113.80635586690869
H          100.92714064667983      123.15751499684147      114.76689918684352
H          102.20867616920815      125.21828744466617      114.36968959995981
H          103.31356334134077      124.36411706772785      113.29757641577689
H          104.06422373551813      122.93466671838551      115.17382345086753
H          102.92488206857576      123.73217448501494      116.25838122146705
H          104.08578796468240      125.88491867432677      115.94244802166457
H          105.19476538562070      125.14859856012502      114.78970990291488
H          106.07131677063241      123.65512211181887      116.54961816290309
H          104.92670301676327      124.32190306758145      117.71507436481352
H          105.93668666258050      126.56904051202069      117.43098823578745
H          107.11305225269990      125.91011232758581      116.29542179650713
H          106.83725584118447      124.94253170423482      119.17340559463420
H          107.91211741785348      126.25349123498798      118.69443829172376
H          109.12927819908542      124.72994414044527      117.17127034367073
H          108.06759940013107      123.39890622371642      117.63835385171919
H          110.20548473678383      123.32278358107268      118.90049639625539
H          109.88703800027447      124.92961926835282      119.55242050637145
H          108.83953290522088      123.58111320017505      119.98870955386165
H          119.39173566556724      119.45355501424055      123.26703776113303
H          120.18187247297688      120.93510045377096      123.80777846315432
H          119.67879929691287      119.72298281434516      124.98734780714139
C          106.76573166662627       94.02956985676799      110.49066919804741
C          106.54611244450425       93.31472457167713      111.81635335952784
C          105.22854744607635       93.73097538998665      112.46505363497779
C          105.01861455260972       93.05127984009353      113.81527634895957
C          103.62659070320841       93.28574859848220      114.40030254928925
C          103.35976596311248       94.73603014757910      114.79745126393583
C          101.99598585897145       94.87721499513836      115.46802069801304
C          101.70093940947879       96.30118558185356      115.93072421590135
C          100.34901669210926       96.38494827049877      116.63362914225351
C          100.03755897415675       97.78311267724906      117.16018230628890
C           98.69431029395896       97.81096963418622      117.88599125460821
C           98.37993055914389       99.15105031193642      118.54987245608544
C           98.17078822993962      100.28323613356710      117.54833568421755
C           97.64406154439408      101.54957063835262      118.21844975984466
C           97.53632795591005      102.70875244135171      117.23227747872801
C           96.91568386979340      103.94961241906996      117.86918369137103
C           96.85683125484901      105.14290603196426      116.91521149329452
C           98.22462513830560      105.76572299642517      116.64856430927715
C           98.13340446110008      106.93964425698964      115.68079730482901
C           99.48973593167298      107.59492339145896      115.43212095104552
C           99.43068426081865      108.58165744537220      114.26911731875671