      -----------------------------------------------------------      
     |                   =====================                   |     
     |                           x T B                           |     
     |                   =====================                   |     
     |                         S. Grimme                         |     
     |          Mulliken Center for Theoretical Chemistry        |     
     |                    University of Bonn                     |     
      -----------------------------------------------------------      

   * xtb version 6.6.1 (8d0f1dd) compiled by 'stahn@M-Bot' on 2023-08-01

   xtb is free software: you can redistribute it and/or modify it under
   the terms of the GNU Lesser General Public License as published by
   the Free Software Foundation, either version 3 of the License, or
   (at your option) any later version.
   
   xtb is distributed in the hope that it will be useful,
   but WITHOUT ANY WARRANTY; without even the implied warranty of
   MERCHANTABILITY or FITNESS FOR A PARTICULAR PURPOSE.  See the
   GNU Lesser General Public License for more details.
   
   Cite this work as:
   * C. Bannwarth, E. Caldeweyher, S. Ehlert, A. Hansen, P. Pracht,
     J. Seibert, S. Spicher, S. Grimme, WIREs Comput. Mol. Sci., 2020, 11,
     e01493. DOI: 10.1002/wcms.1493
   
   for GFN2-xTB:
   * C. Bannwarth, S. Ehlert and S. Grimme., J. Chem. Theory Comput., 2019,
     15, 1652-1671. DOI: 10.1021/acs.jctc.8b01176
   for GFN1-xTB:
   * S. Grimme, C. Bannwarth, P. Shushkov, J. Chem. Theory Comput., 2017,
     13, 1989-2009. DOI: 10.1021/acs.jctc.7b00118
   for GFN0-xTB:
   * P. Pracht, E. Caldeweyher, S. Ehlert, S. Grimme, ChemRxiv, 2019, preprint.
     DOI: 10.26434/chemrxiv.8326202.v1
   for GFN-FF:
   * S. Spicher and S. Grimme, Angew. Chem. Int. Ed., 2020, 59, 15665-15673.
     DOI: 10.1002/anie.202004239
   
   for ALPB and GBSA implicit solvation:
   * S. Ehlert, M. Stahn, S. Spicher, S. Grimme, J. Chem. Theory Comput.,
     2021, 17, 4250-4261. DOI: 10.1021/acs.jctc.1c00471
   
   for DFT-D4:
   * E. Caldeweyher, C. Bannwarth and S. Grimme, J. Chem. Phys., 2017,
     147, 034112. DOI: 10.1063/1.4993215
   * E. Caldeweyher, S. Ehlert, A. Hansen, H. Neugebauer, S. Spicher,
     C. Bannwarth and S. Grimme, J. Chem. Phys., 2019, 150, 154122.
     DOI: 10.1063/1.5090222
   * E. Caldeweyher, J.-M. Mewes, S. Ehlert and S. Grimme, Phys. Chem. Chem. Phys.
     2020, 22, 8499-8512. DOI: 10.1039/D0CP00502A
   
   for sTDA-xTB:
   * S. Grimme and C. Bannwarth, J. Chem. Phys., 2016, 145, 054103.
     DOI: 10.1063/1.4959605
   
   in the mass-spec context:
   * V. Asgeirsson, C. Bauer and S. Grimme, Chem. Sci., 2017, 8, 4879.
     DOI: 10.1039/c7sc00601b
   * J. Koopman and S. Grimme, ACS Omega 2019, 4, 12, 15120-15133.
     DOI: 10.1021/acsomega.9b02011
   
   for metadynamics refer to:
   * S. Grimme, J. Chem. Theory Comput., 2019, 155, 2847-2862
     DOI: 10.1021/acs.jctc.9b00143
   
   for SPH calculations refer to:
   * S. Spicher and S. Grimme, J. Chem. Theory Comput., 2021, 17, 1701-1714
     DOI: 10.1021/acs.jctc.0c01306
   
   with help from (in alphabetical order)
   P. Atkinson, C. Bannwarth, F. Bohle, G. Brandenburg, E. Caldeweyher
   M. Checinski, S. Dohm, S. Ehlert, S. Ehrlich, I. Gerasimov, C. Hölzer
   A. Katbashev, J. Koopman, C. Lavigne, S. Lehtola, F. März, M. Müller,
   F. Musil, H. Neugebauer, J. Pisarek, C. Plett, P. Pracht, F. Pultar,
   J. Seibert, P. Shushkov, S. Spicher, M. Stahn, M. Steiner, T. Strunk,
   J. Stückrath, T. Rose, and J. Unsleber
   
 * started run on 2024/06/17 at 15:17:36.510     

           -------------------------------------------------
          |                Calculation Setup                |
           -------------------------------------------------

          program call               : /home/abt-grimme/AK-bin/xtb input.xyz --input input.inp --opt --gbsa water
          hostname                   : boar079.thch.uni-bonn.de
          coordinate file            : input.xyz
          omp threads                :                     8

   ID    Z sym.   atoms
    1    6 C      1-120, 363-482, 725-844, 1087-1206, 1449-1568, 1811-1930,
                  2173-2292, 2535-2654, 2897-3016
    2    1 H      121-362, 483-724, 845-1086, 1207-1448, 1569-1810,
                  1931-2172, 2293-2534, 2655-2896, 3017-3258

molecular fragmentation (1/2 indicates fragments):
111111111111111111111111111111111111111111111111111111111111111111111111
111111111111111111111111111111111111111111111111111111111111111111111111
111111111111111111111111111111111111111111111111111111111111111111111111
111111111111111111111111111111111111111111111111111111111111111111111111
111111111111111111111111111111111111111111111111111111111111111111111111
112222222222222222222222222222222222222222222222222222222222222222222222
222222222222222222222222222222222222222222222222222222222222222222222222
222222222222222222222222222222222222222222222222222222222222222222222222
222222222222222222222222222222222222222222222222222222222222222222222222
222222222222222222222222222222222222222222222222222222222222222222222222
222222222222222222222222222222222222222222222222222222222222222222222222
222222222222222222222222222222222222222222222222222222222222222222222222
222222222222222222222222222222222222222222222222222222222222222222222222
222222222222222222222222222222222222222222222222222222222222222222222222
222222222222222222222222222222222222222222222222222222222222222222222222
222222222222222222222222222222222222222222222222222222222222222222222222
222222222222222222222222222222222222222222222222222222222222222222222222
222222222222222222222222222222222222222222222222222222222222222222222222
222222222222222222222222222222222222222222222222222222222222222222222222
222222222222222222222222222222222222222222222222222222222222222222222222
222222222222222222222222222222222222222222222222222222222222222222222222
222222222222222222222222222222222222222222222222222222222222222222222222
222222222222222222222222222222222222222222222222222222222222222222222222
222222222222222222222222222222222222222222222222222222222222222222222222
222222222222222222222222222222222222222222222222222222222222222222222222
222222222222222222222222222222222222222222222222222222222222222222222222
222222222222222222222222222222222222222222222222222222222222222222222222
222222222222222222222222222222222222222222222222222222222222222222222222
222222222222222222222222222222222222222222222222222222222222222222222222
222222222222222222222222222222222222222222222222222222222222222222222222
222222222222222222222222222222222222222222222222222222222222222222222222
222222222222222222222222222222222222222222222222222222222222222222222222
222222222222222222222222222222222222222222222222222222222222222222222222
222222222222222222222222222222222222222222222222222222222222222222222222
222222222222222222222222222222222222222222222222222222222222222222222222
222222222222222222222222222222222222222222222222222222222222222222222222
222222222222222222222222222222222222222222222222222222222222222222222222
222222222222222222222222222222222222222222222222222222222222222222222222
222222222222222222222222222222222222222222222222222222222222222222222222
222222222222222222222222222222222222222222222222222222222222222222222222
222222222222222222222222222222222222222222222222222222222222222222222222
222222222222222222222222222222222222222222222222222222222222222222222222
222222222222222222222222222222222222222222222222222222222222222222222222
222222222222222222222222222222222222222222222222222222222222222222222222
222222222222222222222222222222222222222222222222222222222222222222222222
222222222222222222
# atoms in fragment 1/2:   362  2896
 fragment masses (1/2) :     1685.21    13481.68
CMA distance (Bohr)    :  16.479
constraining FC (au)   :  0.0500

           -------------------------------------------------
          |                 G F N 2 - x T B                 |
           -------------------------------------------------

        Reference                      10.1021/acs.jctc.8b01176
      * Hamiltonian:
        H0-scaling (s, p, d)           1.850000    2.230000    2.230000
        zeta-weighting                 0.500000
      * Dispersion:
        s8                             2.700000
        a1                             0.520000
        a2                             5.000000
        s9                             5.000000
      * Repulsion:
        kExp                           1.500000    1.000000
        rExp                           1.000000
      * Coulomb:
        alpha                          2.000000
        third order                    shell-resolved
        anisotropic                    true
        a3                             3.000000
        a5                             4.000000
        cn-shift                       1.200000
        cn-exp                         4.000000
        max-rad                        5.000000

      * Solvation model:               GBSA
        Solvent                        water
        Parameter file                 internal GFN2-xTB/GBSA
        Dielectric constant                8.0200E+01
        Reference state                gsolv [1 M gas/solution]
        Free energy shift                  1.8574E-03 Eh       1.1656E+00 kcal/mol
        Temperature                        2.9815E+02 K
        Density                            1.0000E+00 kg/L
        Solvent mass                       1.8000E+01 g/mol
        Interaction kernel             Still
        Born radius scaling (c1)           1.5524E+00
        Born radii integrator          GBOBC
        Born offset                        2.4628E-02 a0       4.6540E-02 AA
        H-bond correction              true
        Ion screening                  false
        Surface tension                    1.0000E-05 Eh       1.5569E+01 dyn/cm
        Grid points                               230 per atom
q/qsh data taken from xtbrestart
CAMM data taken from xtbrestart

          ...................................................
          :                      SETUP                      :
          :.................................................:
          :  # basis functions                6498          :
          :  # atomic orbitals                6498          :
          :  # shells                         4338          :
          :  # electrons                      6498          :
          :  max. iterations                   250          :
          :  Hamiltonian                  GFN2-xTB          :
          :  restarted?                       true          :
          :  GBSA solvation                   true          :
          :  PC potential                    false          :
          :  electronic temp.          300.0000000     K    :
          :  accuracy                    1.0000000          :
          :  -> integral cutoff          0.2500000E+02      :
          :  -> integral neglect         0.1000000E-07      :
          :  -> SCF convergence          0.1000000E-05 Eh   :
          :  -> wf. convergence          0.1000000E-03 e    :
          :  Broyden damping             0.4000000          :
          ...................................................

 iter      E             dE          RMSdq      gap      omega  full diag
   1  -3472.1611960 -0.347216E+04  0.738E-05   10.87       0.0  T
   2  -3472.1611960 -0.394448E-08  0.581E-05   10.87      30.1  T
   3  -3472.1611960 -0.587488E-08  0.295E-05   10.87      59.3  T

   *** convergence criteria satisfied after 3 iterations ***

         #    Occupation            Energy/Eh            Energy/eV
      -------------------------------------------------------------
         1        2.0000           -0.6161541             -16.7664
       ...           ...                  ...                  ...
      3243        2.0000           -0.3861184             -10.5068
      3244        2.0000           -0.3859265             -10.5016
      3245        2.0000           -0.3856973             -10.4954
      3246        2.0000           -0.3855907             -10.4925
      3247        2.0000           -0.3851247             -10.4798
      3248        2.0000           -0.3848747             -10.4730
      3249        2.0000           -0.3836585             -10.4399 (HOMO)
      3250                          0.0157539               0.4287 (LUMO)
      3251                          0.0177251               0.4823
      3252                          0.0192089               0.5227
      3253                          0.0200280               0.5450
      3254                          0.0205071               0.5580
       ...                                ...                  ...
      6498                          0.3713853              10.1059
      -------------------------------------------------------------
                  HL-Gap            0.3994124 Eh           10.8686 eV
             Fermi-level           -0.1839523 Eh           -5.0056 eV

 SCC (total)                   0 d,  0 h,  7 min,  7.311 sec
 SCC setup                      ...        0 min,  1.711 sec (  0.400%)
 Dispersion                     ...        0 min,  3.548 sec (  0.830%)
 classical contributions        ...        0 min,  0.136 sec (  0.032%)
 integral evaluation            ...        0 min,  5.908 sec (  1.383%)
 iterations                     ...        2 min, 54.385 sec ( 40.810%)
 molecular gradient             ...        3 min, 53.629 sec ( 54.674%)
 printout                       ...        0 min,  7.995 sec (  1.871%)

         :::::::::::::::::::::::::::::::::::::::::::::::::::::
         ::                     SUMMARY                     ::
         :::::::::::::::::::::::::::::::::::::::::::::::::::::
         :: total energy           -3426.756617358648 Eh    ::
         :: total w/o Gsasa/hb     -3426.663967799660 Eh    ::
         :: gradient norm              0.633177332276 Eh/a0 ::
         :: HOMO-LUMO gap             10.868563768508 eV    ::
         ::.................................................::
         :: SCC energy             -3472.161195974769 Eh    ::
         :: -> isotropic ES            0.282724112145 Eh    ::
         :: -> anisotropic ES          1.276047038788 Eh    ::
         :: -> anisotropic XC          2.135710687815 Eh    ::
         :: -> dispersion             -4.216364418953 Eh    ::
         :: -> Gsolv                  -0.027962829977 Eh    ::
         ::    -> Gelec                0.064686729010 Eh    ::
         ::    -> Gsasa               -0.090344129688 Eh    ::
         ::    -> Ghb                 -0.004162872427 Eh    ::
         ::    -> Gshift               0.001857443127 Eh    ::
         :: repulsion energy          44.723481404719 Eh    ::
         :: add. restraining           0.000000000000 Eh    ::
         :: total charge              -0.000000000010 e     ::
         :::::::::::::::::::::::::::::::::::::::::::::::::::::

      ----------------------------------------------------------- 
     |              Fast Inertial Relaxation Engine              |
      ----------------------------------------------------------- 

          ...................................................
          :                      SETUP                      :
          :.................................................:
          :   energy convergence        0.5000000E-05 Eh    :
          :   grad. convergence         0.1000000E-02 Eh/a0 :
          :   optimization log               true           :
          :   writing optlog all                1     steps :
          :   Hessian reset                    20     steps :
          :   time step scaling                 5     steps :
          :   maximium step len.        1.0000000     a0    :
          :   initial time step         0.2500000     fs    :
          :   maximum time step         1.2500000     fs    :
          :   power reset thr           0.0000000     au    :
          :   alpha parameter           0.1000000           :
          :   BFGS update                   false           :
          :   preconditioning               false           :
          ...................................................

........................................................................
.............................. CYCLE    1 ..............................
........................................................................

 iter      E             dE          RMSdq      gap      omega  full diag
   1  -3472.3952861 -0.347240E+04  0.743E-03   10.88       0.0  T
   2  -3472.3953302 -0.440964E-04  0.390E-03   10.88       1.0  T
   3  -3472.3953306 -0.411533E-06  0.181E-03   10.88       1.0  T
   4  -3472.3953307 -0.139832E-06  0.217E-04   10.87       8.1  T
   5  -3472.3953308 -0.344403E-07  0.135E-04   10.87      13.0  T
     SCC iter.                  ...        4 min, 36.848 sec
     gradient                   ...        3 min, 53.832 sec
 * total energy  : -3426.8021806 Eh     change    :  -0.4556323E-01 Eh
   gradient norm :     0.5993882 Eh/a0  converged?    E=F G=F D=F
   time step     :     0.2500000 fs     power     :   0.2351503E-05
   step length   :     0.0742070 a0     speed     :   0.7179929E-02

........................................................................
.............................. CYCLE    2 ..............................
........................................................................

 iter      E             dE          RMSdq      gap      omega  full diag
   1  -3472.7402517 -0.347274E+04  0.109E-02   10.88       0.0  T
   2  -3472.7403461 -0.943928E-04  0.571E-03   10.88       1.0  T
   3  -3472.7403471 -0.938325E-06  0.265E-03   10.88       1.0  T
   4  -3472.7403474 -0.336072E-06  0.333E-04   10.88       5.3  T
   5  -3472.7403475 -0.798627E-07  0.213E-04   10.88       8.2  T
     SCC iter.                  ...        4 min, 32.278 sec
     gradient                   ...        3 min, 54.008 sec
 * total energy  : -3426.8648601 Eh     change    :  -0.6267956E-01 Eh
   gradient norm :     0.5508639 Eh/a0  converged?    E=F G=F D=F
   time step     :     0.2500000 fs     power     :   0.3182039E-05
   step length   :     0.1092276 a0     speed     :   0.1056836E-01

........................................................................
.............................. CYCLE    3 ..............................
........................................................................

 iter      E             dE          RMSdq      gap      omega  full diag
   1  -3473.1869832 -0.347319E+04  0.139E-02   10.89       0.0  T
   2  -3473.1871368 -0.153562E-03  0.731E-03   10.89       1.0  T
   3  -3473.1871384 -0.161212E-05  0.338E-03   10.88       1.0  T
   4  -3473.1871390 -0.572615E-06  0.436E-04   10.88       4.0  T
   5  -3473.1871391 -0.132788E-06  0.281E-04   10.88       6.2  T
     SCC iter.                  ...        4 min, 30.388 sec
     gradient                   ...        3 min, 53.219 sec
 * total energy  : -3426.9381530 Eh     change    :  -0.7329289E-01 Eh
   gradient norm :     0.4902781 Eh/a0  converged?    E=F G=F D=F
   time step     :     0.2500000 fs     power     :   0.3649696E-05
   step length   :     0.1413982 a0     speed     :   0.1368103E-01

........................................................................
.............................. CYCLE    4 ..............................
........................................................................

 iter      E             dE          RMSdq      gap      omega  full diag
   1  -3473.7239213 -0.347372E+04  0.165E-02   10.89       0.0  T
   2  -3473.7241330 -0.211640E-03  0.866E-03   10.89       1.0  T
   3  -3473.7241354 -0.238726E-05  0.396E-03   10.89       1.0  T
   4  -3473.7241362 -0.822101E-06  0.527E-04   10.88       3.3  T
   5  -3473.7241364 -0.184184E-06  0.339E-04   10.88       5.2  T
     SCC iter.                  ...        4 min, 31.068 sec
     gradient                   ...        3 min, 52.398 sec
 * total energy  : -3427.0147465 Eh     change    :  -0.7659345E-01 Eh
   gradient norm :     0.4220515 Eh/a0  converged?    E=F G=F D=F
   time step     :     0.2500000 fs     power     :   0.3724691E-05
   step length   :     0.1698671 a0     speed     :   0.1643556E-01

........................................................................
.............................. CYCLE    5 ..............................
........................................................................

 iter      E             dE          RMSdq      gap      omega  full diag
   1  -3474.3371575 -0.347434E+04  0.185E-02   10.89       0.0  T
   2  -3474.3374154 -0.257910E-03  0.970E-03   10.89       1.0  T
   3  -3474.3374186 -0.321306E-05  0.436E-03   10.89       1.0  T
   4  -3474.3374197 -0.105373E-05  0.605E-04   10.88       2.9  T
   5  -3474.3374199 -0.224098E-06  0.387E-04   10.88       4.5  T
   6  -3474.3374200 -0.111046E-06  0.159E-04   10.88      11.0  T
     SCC iter.                  ...        5 min, 24.868 sec
     gradient                   ...        3 min, 53.181 sec
 * total energy  : -3427.0875567 Eh     change    :  -0.7281019E-01 Eh
   gradient norm :     0.3529113 Eh/a0  converged?    E=F G=F D=F
   time step     :     0.2500000 fs     power     :   0.3436179E-05
   step length   :     0.1939033 a0     speed     :   0.1876118E-01

........................................................................
.............................. CYCLE    6 ..............................
........................................................................

 iter      E             dE          RMSdq      gap      omega  full diag
   1  -3475.0839237 -0.347508E+04  0.220E-02   10.88       0.0  T
   2  -3475.0842691 -0.345403E-03  0.115E-02   10.88       1.0  T
   3  -3475.0842740 -0.491003E-05  0.504E-03   10.88       1.0  T
   4  -3475.0842755 -0.145763E-05  0.730E-04   10.88       2.4  T
   5  -3475.0842758 -0.288480E-06  0.457E-04   10.88       3.8  T
   6  -3475.0842759 -0.128841E-06  0.171E-04   10.88      10.3  T
     SCC iter.                  ...        5 min, 32.607 sec
     gradient                   ...        3 min, 53.060 sec
 * total energy  : -3427.1567814 Eh     change    :  -0.6922471E-01 Eh
   gradient norm :     0.2864256 Eh/a0  converged?    E=F G=F D=F
   time step     :     0.2750000 fs     power     :   0.2792098E-05
   step length   :     0.2362934 a0     speed     :   0.2078424E-01

........................................................................
.............................. CYCLE    7 ..............................
........................................................................

 iter      E             dE          RMSdq      gap      omega  full diag
   1  -3475.9586696 -0.347596E+04  0.251E-02   10.88       0.0  T
   2  -3475.9590755 -0.405897E-03  0.132E-02   10.88       1.0  T
   3  -3475.9590828 -0.722384E-05  0.548E-03   10.88       1.0  T
   4  -3475.9590847 -0.191918E-05  0.863E-04   10.88       2.0  T
   5  -3475.9590850 -0.329817E-06  0.531E-04   10.88       3.3  T
   6  -3475.9590852 -0.147762E-06  0.179E-04   10.88       9.8  T
     SCC iter.                  ...        5 min, 38.163 sec
     gradient                   ...        3 min, 53.141 sec
 * total energy  : -3427.2142949 Eh     change    :  -0.5751352E-01 Eh
   gradient norm :     0.2428513 Eh/a0  converged?    E=F G=F D=F
   time step     :     0.3025000 fs     power     :   0.1890171E-05
   step length   :     0.2784255 a0     speed     :   0.2226377E-01

........................................................................
.............................. CYCLE    8 ..............................
........................................................................

 iter      E             dE          RMSdq      gap      omega  full diag
   1  -3476.9248894 -0.347692E+04  0.274E-02   10.88       0.0  T
   2  -3476.9252784 -0.388995E-03  0.145E-02   10.87       1.0  T
   3  -3476.9252883 -0.986179E-05  0.540E-03   10.87       1.0  T
   4  -3476.9252905 -0.219463E-05  0.973E-04   10.87       1.8  T
   5  -3476.9252908 -0.302193E-06  0.582E-04   10.87       3.0  T
   6  -3476.9252909 -0.141582E-06  0.167E-04   10.87      10.5  T
     SCC iter.                  ...        5 min, 28.627 sec
     gradient                   ...        3 min, 53.221 sec
 * total energy  : -3427.2546878 Eh     change    :  -0.4039288E-01 Eh
   gradient norm :     0.2378154 Eh/a0  converged?    E=F G=F D=F
   time step     :     0.3327500 fs     power     :   0.9741268E-06
   step length   :     0.3143405 a0     speed     :   0.2285059E-01

........................................................................
.............................. CYCLE    9 ..............................
........................................................................

 iter      E             dE          RMSdq      gap      omega  full diag
   1  -3477.9062247 -0.347791E+04  0.291E-02   10.87       0.0  T
   2  -3477.9065020 -0.277345E-03  0.158E-02   10.87       1.0  T
   3  -3477.9065142 -0.121125E-04  0.455E-03   10.87       1.0  T
   4  -3477.9065162 -0.200394E-05  0.103E-03   10.87       1.7  T
   5  -3477.9065164 -0.196482E-06  0.583E-04   10.87       3.0  T
   6  -3477.9065165 -0.107485E-06  0.130E-04   10.87      13.4  T
     SCC iter.                  ...        5 min, 24.990 sec
     gradient                   ...        3 min, 54.812 sec
 * total energy  : -3427.2786793 Eh     change    :  -0.2399149E-01 Eh
   gradient norm :     0.2524803 Eh/a0  converged?    E=F G=F D=F
   time step     :     0.3660250 fs     power     :   0.3076063E-06
   step length   :     0.3383013 a0     speed     :   0.2235671E-01

........................................................................
.............................. CYCLE   10 ..............................
........................................................................

 iter      E             dE          RMSdq      gap      omega  full diag
   1  -3478.8089276 -0.347881E+04  0.311E-02   10.87       0.0  T
   2  -3478.8090591 -0.131417E-03  0.175E-02   10.87       1.0  T
   3  -3478.8090723 -0.132235E-04  0.295E-03   10.87       1.0  T
   4  -3478.8090738 -0.147581E-05  0.104E-03   10.87       1.7  T
   5  -3478.8090738 -0.703972E-07  0.517E-04   10.87       3.4  T
   6  -3478.8090739 -0.675591E-07  0.770E-05   10.87      22.8  T
     SCC iter.                  ...        5 min, 30.238 sec
     gradient                   ...        3 min, 53.349 sec
 * total energy  : -3427.2911502 Eh     change    :  -0.1247094E-01 Eh
   gradient norm :     0.2527521 Eh/a0  converged?    E=F G=F D=F
   time step     :     0.4026275 fs     power     :  -0.7580123E-07
   step length   :     0.3515712 a0     speed     :   0.2112151E-01

........................................................................
.............................. CYCLE   11 ..............................
........................................................................
 * reset velocities

 iter      E             dE          RMSdq      gap      omega  full diag
   1  -3478.7919645 -0.347879E+04  0.116E-03   10.87       0.0  T
   2  -3478.7919653 -0.791825E-06  0.665E-04   10.87       2.6  T
   3  -3478.7919653 -0.427644E-08  0.266E-04   10.87       6.6  T
     SCC iter.                  ...        2 min, 44.030 sec
     gradient                   ...        3 min, 53.228 sec
 * total energy  : -3427.2935435 Eh     change    :  -0.2393315E-02 Eh
   gradient norm :     0.2456683 Eh/a0  converged?    E=F G=F D=F
   time step     :     0.2013138 fs     power     :   0.1555158E-06
   step length   :     0.0096040 a0     speed     :   0.1153966E-02

........................................................................
.............................. CYCLE   12 ..............................
........................................................................

 iter      E             dE          RMSdq      gap      omega  full diag
   1  -3478.7581864 -0.347876E+04  0.228E-03   10.87       0.0  T
   2  -3478.7581894 -0.306139E-05  0.131E-03   10.87       1.3  T
   3  -3478.7581895 -0.168052E-07  0.524E-04   10.87       3.3  T
   4  -3478.7581895 -0.760292E-08  0.418E-05   10.87      41.9  T
     SCC iter.                  ...        3 min, 49.266 sec
     gradient                   ...        3 min, 52.788 sec
 * total energy  : -3427.2980645 Eh     change    :  -0.4520980E-02 Eh
   gradient norm :     0.2317837 Eh/a0  converged?    E=F G=F D=F
   time step     :     0.2013138 fs     power     :   0.2893117E-06
   step length   :     0.0189387 a0     speed     :   0.2275580E-02

........................................................................
.............................. CYCLE   13 ..............................
........................................................................

 iter      E             dE          RMSdq      gap      omega  full diag
   1  -3478.7086173 -0.347871E+04  0.333E-03   10.87       0.0  T
   2  -3478.7086239 -0.662837E-05  0.192E-03   10.87       1.0  T
   3  -3478.7086240 -0.414325E-07  0.772E-04   10.87       2.3  T
   4  -3478.7086240 -0.206578E-07  0.698E-05   10.87      25.1  T
     SCC iter.                  ...        3 min, 33.458 sec
     gradient                   ...        3 min, 52.163 sec
 * total energy  : -3427.3042136 Eh     change    :  -0.6149042E-02 Eh
   gradient norm :     0.2115541 Eh/a0  converged?    E=F G=F D=F
   time step     :     0.2013138 fs     power     :   0.3867182E-06
   step length   :     0.0277452 a0     speed     :   0.3333724E-02

........................................................................
.............................. CYCLE   14 ..............................
........................................................................

 iter      E             dE          RMSdq      gap      omega  full diag
   1  -3478.6445740 -0.347864E+04  0.428E-03   10.87       0.0  T
   2  -3478.6445850 -0.110311E-04  0.246E-03   10.87       1.0  T
   3  -3478.6445851 -0.717382E-07  0.997E-04   10.87       1.8  T
   4  -3478.6445851 -0.365658E-07  0.931E-05   10.87      18.8  T
     SCC iter.                  ...        3 min, 40.190 sec
     gradient                   ...        3 min, 55.346 sec
 * total energy  : -3427.3113156 Eh     change    :  -0.7102051E-02 Eh
   gradient norm :     0.1857129 Eh/a0  converged?    E=F G=F D=F
   time step     :     0.2013138 fs     power     :   0.4373522E-06
   step length   :     0.0357804 a0     speed     :   0.4299186E-02

........................................................................
.............................. CYCLE   15 ..............................
........................................................................

 iter      E             dE          RMSdq      gap      omega  full diag
   1  -3478.5678128 -0.347857E+04  0.510E-03   10.87       0.0  T
   2  -3478.5678285 -0.157917E-04  0.294E-03   10.87       1.0  T
   3  -3478.5678287 -0.104078E-06  0.119E-03   10.87       1.5  T
   4  -3478.5678287 -0.535670E-07  0.113E-04   10.87      15.5  T
   5  -3478.5678287 -0.153896E-07  0.742E-05   10.87      23.6  T
     SCC iter.                  ...        4 min, 39.465 sec
     gradient                   ...        3 min, 54.773 sec
 * total energy  : -3427.3185999 Eh     change    :  -0.7284266E-02 Eh
   gradient norm :     0.1552640 Eh/a0  converged?    E=F G=F D=F
   time step     :     0.2013138 fs     power     :   0.4363445E-06
   step length   :     0.0428253 a0     speed     :   0.5145670E-02

........................................................................
.............................. CYCLE   16 ..............................
........................................................................

 iter      E             dE          RMSdq      gap      omega  full diag
   1  -3478.4805521 -0.347848E+04  0.576E-03   10.87       0.0  T
   2  -3478.4805724 -0.203381E-04  0.332E-03   10.87       1.0  T
   3  -3478.4805726 -0.125469E-06  0.135E-03   10.87       1.3  T
   4  -3478.4805726 -0.622535E-07  0.122E-04   10.87      14.4  T
   5  -3478.4805726 -0.184059E-07  0.777E-05   10.87      22.6  T
     SCC iter.                  ...        4 min, 40.999 sec
     gradient                   ...        3 min, 53.425 sec
 * total energy  : -3427.3252921 Eh     change    :  -0.6692260E-02 Eh
   gradient norm :     0.1216607 Eh/a0  converged?    E=F G=F D=F
   time step     :     0.2013138 fs     power     :   0.3851311E-06
   step length   :     0.0486893 a0     speed     :   0.5850266E-02

........................................................................
.............................. CYCLE   17 ..............................
........................................................................

 iter      E             dE          RMSdq      gap      omega  full diag
   1  -3478.3751375 -0.347838E+04  0.691E-03   10.87       0.0  T
   2  -3478.3751671 -0.296200E-04  0.398E-03   10.87       1.0  T
   3  -3478.3751673 -0.177974E-06  0.163E-03   10.87       1.1  T
   4  -3478.3751674 -0.872660E-07  0.145E-04   10.87      12.1  T
   5  -3478.3751674 -0.262571E-07  0.905E-05   10.87      19.4  T
     SCC iter.                  ...        4 min, 31.564 sec
     gradient                   ...        3 min, 52.864 sec
 * total energy  : -3427.3311854 Eh     change    :  -0.5893302E-02 Eh
   gradient norm :     0.0837135 Eh/a0  converged?    E=F G=F D=F
   time step     :     0.2214451 fs     power     :   0.2796261E-06
   step length   :     0.0590302 a0     speed     :   0.6447975E-02

........................................................................
.............................. CYCLE   18 ..............................
........................................................................

 iter      E             dE          RMSdq      gap      omega  full diag
   1  -3478.2534094 -0.347825E+04  0.792E-03   10.87       0.0  T
   2  -3478.2534490 -0.395848E-04  0.458E-03   10.87       1.0  T
   3  -3478.2534492 -0.235376E-06  0.189E-03   10.87       1.0  T
   4  -3478.2534493 -0.113634E-06  0.166E-04   10.87      10.6  T
   5  -3478.2534494 -0.348259E-07  0.102E-04   10.87      17.2  T
     SCC iter.                  ...        4 min, 29.809 sec
     gradient                   ...        3 min, 54.057 sec
 * total energy  : -3427.3351180 Eh     change    :  -0.3932570E-02 Eh
   gradient norm :     0.0507840 Eh/a0  converged?    E=F G=F D=F
   time step     :     0.2435896 fs     power     :   0.1257057E-06
   step length   :     0.0690695 a0     speed     :   0.6858717E-02

........................................................................
.............................. CYCLE   19 ..............................
........................................................................

 iter      E             dE          RMSdq      gap      omega  full diag
   1  -3478.1252798 -0.347813E+04  0.832E-03   10.88       0.0  T
   2  -3478.1253244 -0.445779E-04  0.483E-03   10.88       1.0  T
   3  -3478.1253247 -0.266863E-06  0.201E-03   10.88       1.0  T
   4  -3478.1253248 -0.124280E-06  0.175E-04   10.88      10.0  T
   5  -3478.1253248 -0.394134E-07  0.104E-04   10.88      16.9  T
     SCC iter.                  ...        4 min, 33.883 sec
     gradient                   ...        3 min, 53.002 sec
 * total energy  : -3427.3361450 Eh     change    :  -0.1026957E-02 Eh
   gradient norm :     0.0554515 Eh/a0  converged?    E=F G=F D=F
   time step     :     0.2679486 fs     power     :  -0.3922433E-07
   step length   :     0.0761190 a0     speed     :   0.6871578E-02

........................................................................
.............................. CYCLE   20 ..............................
........................................................................
 * reset velocities

 iter      E             dE          RMSdq      gap      omega  full diag
   1  -3478.1265324 -0.347813E+04  0.115E-04   10.88       0.0  T
   2  -3478.1265324 -0.497539E-08  0.732E-05   10.88      23.9  T
   3  -3478.1265324 -0.257205E-08  0.310E-05   10.88      56.6  T
     SCC iter.                  ...        2 min, 42.851 sec
     gradient                   ...        3 min, 52.433 sec
 * total energy  : -3427.3361966 Eh     change    :  -0.5158768E-04 Eh
   gradient norm :     0.0551116 Eh/a0  converged?    E=F G=F D=T
   time step     :     0.1339743 fs     power     :   0.5093701E-08
   step length   :     0.0009332 a0     speed     :   0.1684842E-03
 * RMSD in coord.:     0.0349183 a0     energy gain  -0.5795792E+00 Eh

........................................................................
.............................. CYCLE   21 ..............................
........................................................................

 iter      E             dE          RMSdq      gap      omega  full diag
   1  -3478.1329264 -0.347813E+04  0.544E-04   10.88       0.0  T
   2  -3478.1329265 -0.801551E-07  0.309E-04   10.88       5.7  T
   3  -3478.1329265 -0.733053E-09  0.818E-05   10.88      21.4  T
     SCC iter.                  ...        2 min, 43.427 sec
     gradient                   ...        3 min, 53.081 sec
 * total energy  : -3427.3364663 Eh     change    :  -0.2697445E-03 Eh
   gradient norm :     0.0534577 Eh/a0  converged?    E=F G=F D=F
   time step     :     0.2500000 fs     power     :   0.1409561E-07
   step length   :     0.0049708 a0     speed     :   0.4809520E-03

........................................................................
.............................. CYCLE   22 ..............................
........................................................................

 iter      E             dE          RMSdq      gap      omega  full diag
   1  -3478.1431691 -0.347814E+04  0.886E-04   10.88       0.0  T
   2  -3478.1431693 -0.204871E-06  0.504E-04   10.88       3.5  T
   3  -3478.1431693 -0.349064E-08  0.131E-04   10.88      13.3  T
     SCC iter.                  ...        2 min, 46.463 sec
     gradient                   ...        3 min, 52.623 sec
 * total energy  : -3427.3368887 Eh     change    :  -0.4223919E-03 Eh
   gradient norm :     0.0509493 Eh/a0  converged?    E=F G=F D=F
   time step     :     0.2500000 fs     power     :   0.2184686E-07
   step length   :     0.0081021 a0     speed     :   0.7839246E-03

........................................................................
.............................. CYCLE   23 ..............................
........................................................................

 iter      E             dE          RMSdq      gap      omega  full diag
   1  -3478.1567763 -0.347816E+04  0.119E-03   10.88       0.0  T
   2  -3478.1567767 -0.358310E-06  0.679E-04   10.88       2.6  T
   3  -3478.1567767 -0.781029E-08  0.174E-04   10.88      10.1  T
     SCC iter.                  ...        2 min, 43.738 sec
     gradient                   ...        3 min, 53.502 sec
 * total energy  : -3427.3374338 Eh     change    :  -0.5450633E-03 Eh
   gradient norm :     0.0478991 Eh/a0  converged?    E=F G=F D=F
   time step     :     0.2500000 fs     power     :   0.2791937E-07
   step length   :     0.0110805 a0     speed     :   0.1072093E-02

........................................................................
.............................. CYCLE   24 ..............................
........................................................................

 iter      E             dE          RMSdq      gap      omega  full diag
   1  -3478.1730685 -0.347817E+04  0.145E-03   10.88       0.0  T
   2  -3478.1730690 -0.504584E-06  0.829E-04   10.88       2.1  T
   3  -3478.1730690 -0.130199E-07  0.206E-04   10.88       8.5  T
     SCC iter.                  ...        2 min, 53.083 sec
     gradient                   ...        3 min, 53.900 sec
 * total energy  : -3427.3380678 Eh     change    :  -0.6340918E-03 Eh
   gradient norm :     0.0447358 Eh/a0  converged?    E=F G=F D=F
   time step     :     0.2500000 fs     power     :   0.3220203E-07
   step length   :     0.0138622 a0     speed     :   0.1341239E-02

........................................................................
.............................. CYCLE   25 ..............................
........................................................................

 iter      E             dE          RMSdq      gap      omega  full diag
   1  -3478.1911750 -0.347819E+04  0.166E-03   10.88       0.0  T
   2  -3478.1911756 -0.605588E-06  0.948E-04   10.88       1.8  T
   3  -3478.1911756 -0.182349E-07  0.224E-04   10.88       7.8  T
     SCC iter.                  ...        2 min, 44.811 sec
     gradient                   ...        3 min, 54.077 sec
 * total energy  : -3427.3387600 Eh     change    :  -0.6921216E-03 Eh
   gradient norm :     0.0419470 Eh/a0  converged?    E=F G=F D=F
   time step     :     0.2500000 fs     power     :   0.3493865E-07
   step length   :     0.0164178 a0     speed     :   0.1588506E-02

........................................................................
.............................. CYCLE   26 ..............................
........................................................................

 iter      E             dE          RMSdq      gap      omega  full diag
   1  -3478.2121124 -0.347821E+04  0.200E-03   10.88       0.0  T
   2  -3478.2121132 -0.773469E-06  0.114E-03   10.88       1.5  T
   3  -3478.2121132 -0.271889E-07  0.251E-04   10.88       7.0  T
   4  -3478.2121132 -0.106706E-07  0.594E-05   10.88      29.5  T
     SCC iter.                  ...        3 min, 37.183 sec
     gradient                   ...        3 min, 54.322 sec
 * total energy  : -3427.3395675 Eh     change    :  -0.8075782E-03 Eh
   gradient norm :     0.0397946 Eh/a0  converged?    E=F G=F D=F
   time step     :     0.2750000 fs     power     :   0.3678154E-07
   step length   :     0.0208699 a0     speed     :   0.1835708E-02

........................................................................
.............................. CYCLE   27 ..............................
........................................................................

 iter      E             dE          RMSdq      gap      omega  full diag
   1  -3478.2347332 -0.347823E+04  0.232E-03   10.88       0.0  T
   2  -3478.2347340 -0.849352E-06  0.132E-03   10.88       1.3  T
   3  -3478.2347340 -0.340569E-07  0.259E-04   10.88       6.8  T
   4  -3478.2347341 -0.143059E-07  0.663E-05   10.88      26.4  T
     SCC iter.                  ...        3 min, 43.371 sec
     gradient                   ...        3 min, 53.608 sec
 * total energy  : -3427.3404960 Eh     change    :  -0.9284666E-03 Eh
   gradient norm :     0.0387764 Eh/a0  converged?    E=F G=F D=F
   time step     :     0.3025000 fs     power     :   0.3836860E-07
   step length   :     0.0260020 a0     speed     :   0.2079200E-02

........................................................................
.............................. CYCLE   28 ..............................
........................................................................

 iter      E             dE          RMSdq      gap      omega  full diag
   1  -3478.2570592 -0.347826E+04  0.257E-03   10.88       0.0  T
   2  -3478.2570599 -0.732980E-06  0.148E-03   10.88       1.2  T
   3  -3478.2570599 -0.427012E-07  0.234E-04   10.88       7.5  T
   4  -3478.2570600 -0.173545E-07  0.730E-05   10.88      24.0  T
     SCC iter.                  ...        3 min, 37.132 sec
     gradient                   ...        3 min, 51.690 sec
 * total energy  : -3427.3415734 Eh     change    :  -0.1077360E-02 Eh
   gradient norm :     0.0388416 Eh/a0  converged?    E=F G=F D=F
   time step     :     0.3327500 fs     power     :   0.4073058E-07
   step length   :     0.0319042 a0     speed     :   0.2319236E-02

........................................................................
.............................. CYCLE   29 ..............................
........................................................................

 iter      E             dE          RMSdq      gap      omega  full diag
   1  -3478.2764641 -0.347828E+04  0.277E-03   10.88       0.0  T
   2  -3478.2764646 -0.464994E-06  0.160E-03   10.88       1.1  T
   3  -3478.2764647 -0.490882E-07  0.185E-04   10.88       9.5  T
   4  -3478.2764647 -0.205387E-07  0.770E-05   10.88      22.8  T
     SCC iter.                  ...        3 min, 43.715 sec
     gradient                   ...        3 min, 52.120 sec
 * total energy  : -3427.3428575 Eh     change    :  -0.1284087E-02 Eh
   gradient norm :     0.0390823 Eh/a0  converged?    E=F G=F D=F
   time step     :     0.3660250 fs     power     :   0.4463877E-07
   step length   :     0.0388020 a0     speed     :   0.2564236E-02

........................................................................
.............................. CYCLE   30 ..............................
........................................................................

 iter      E             dE          RMSdq      gap      omega  full diag
   1  -3478.2902086 -0.347829E+04  0.296E-03   10.88       0.0  T
   2  -3478.2902088 -0.268574E-06  0.173E-03   10.88       1.0  T
   3  -3478.2902089 -0.513833E-07  0.151E-04   10.88      11.6  T
   4  -3478.2902089 -0.248579E-07  0.777E-05   10.88      22.6  T
     SCC iter.                  ...        3 min, 39.591 sec
     gradient                   ...        3 min, 53.541 sec
 * total energy  : -3427.3444203 Eh     change    :  -0.1562852E-02 Eh
   gradient norm :     0.0381287 Eh/a0  converged?    E=F G=F D=F
   time step     :     0.4026275 fs     power     :   0.4970959E-07
   step length   :     0.0471004 a0     speed     :   0.2829671E-02

........................................................................
.............................. CYCLE   31 ..............................
........................................................................

 iter      E             dE          RMSdq      gap      omega  full diag
   1  -3478.2963204 -0.347830E+04  0.326E-03   10.88       0.0  T
   2  -3478.2963209 -0.508083E-06  0.193E-03   10.88       1.0  T
   3  -3478.2963209 -0.504501E-07  0.166E-04   10.88      10.6  T
   4  -3478.2963210 -0.304781E-07  0.735E-05   10.88      23.8  T
     SCC iter.                  ...        3 min, 46.406 sec
     gradient                   ...        3 min, 51.560 sec
 * total energy  : -3427.3462993 Eh     change    :  -0.1878938E-02 Eh
   gradient norm :     0.0350248 Eh/a0  converged?    E=F G=F D=F
   time step     :     0.4428903 fs     power     :   0.5395660E-07
   step length   :     0.0572785 a0     speed     :   0.3128318E-02

........................................................................
.............................. CYCLE   32 ..............................
........................................................................

 iter      E             dE          RMSdq      gap      omega  full diag
   1  -3478.2950983 -0.347830E+04  0.373E-03   10.88       0.0  T
   2  -3478.2950997 -0.137540E-05  0.223E-03   10.88       1.0  T
   3  -3478.2950997 -0.579057E-07  0.249E-04   10.88       7.0  T
   4  -3478.2950998 -0.352793E-07  0.753E-05   10.88      23.3  T
     SCC iter.                  ...        3 min, 34.729 sec
     gradient                   ...        3 min, 53.089 sec
 * total energy  : -3427.3484406 Eh     change    :  -0.2141384E-02 Eh
   gradient norm :     0.0304314 Eh/a0  converged?    E=F G=F D=F
   time step     :     0.4871793 fs     power     :   0.5467093E-07
   step length   :     0.0696590 a0     speed     :   0.3458625E-02

........................................................................
.............................. CYCLE   33 ..............................
........................................................................

 iter      E             dE          RMSdq      gap      omega  full diag
   1  -3478.2913807 -0.347829E+04  0.429E-03   10.88       0.0  T
   2  -3478.2913829 -0.226012E-05  0.259E-03   10.88       1.0  T
   3  -3478.2913830 -0.707182E-07  0.319E-04   10.88       5.5  T
   4  -3478.2913830 -0.392438E-07  0.793E-05   10.88      22.1  T
     SCC iter.                  ...        3 min, 35.016 sec
     gradient                   ...        3 min, 53.154 sec
 * total energy  : -3427.3507094 Eh     change    :  -0.2268811E-02 Eh
   gradient norm :     0.0274517 Eh/a0  converged?    E=F G=F D=F
   time step     :     0.5358972 fs     power     :   0.5121826E-07
   step length   :     0.0841488 a0     speed     :   0.3798231E-02

........................................................................
.............................. CYCLE   34 ..............................
........................................................................

 iter      E             dE          RMSdq      gap      omega  full diag
   1  -3478.2964809 -0.347830E+04  0.484E-03   10.88       0.0  T
   2  -3478.2964827 -0.180341E-05  0.291E-03   10.88       1.0  T
   3  -3478.2964828 -0.899608E-07  0.245E-04   10.88       7.1  T
   4  -3478.2964829 -0.391551E-07  0.836E-05   10.88      21.0  T
     SCC iter.                  ...        3 min, 37.287 sec
     gradient                   ...        3 min, 55.516 sec
 * total energy  : -3427.3530357 Eh     change    :  -0.2326220E-02 Eh
   gradient norm :     0.0279037 Eh/a0  converged?    E=F G=F D=F
   time step     :     0.5894869 fs     power     :   0.4742140E-07
   step length   :     0.0999827 a0     speed     :   0.4102663E-02

........................................................................
.............................. CYCLE   35 ..............................
........................................................................

 iter      E             dE          RMSdq      gap      omega  full diag
   1  -3478.3237393 -0.347832E+04  0.555E-03   10.88       0.0  T
   2  -3478.3237398 -0.500184E-06  0.328E-03   10.88       1.0  T
   3  -3478.3237400 -0.128518E-06  0.167E-04   10.88      10.5  T
   4  -3478.3237400 -0.272425E-07  0.922E-05   10.88      19.0  T
     SCC iter.                  ...        3 min, 43.717 sec
     gradient                   ...        3 min, 53.207 sec
 * total energy  : -3427.3555224 Eh     change    :  -0.2486748E-02 Eh
   gradient norm :     0.0273509 Eh/a0  converged?    E=F G=F D=F
   time step     :     0.6484356 fs     power     :   0.4665122E-07
   step length   :     0.1166459 a0     speed     :   0.4351289E-02

........................................................................
.............................. CYCLE   36 ..............................
........................................................................

 iter      E             dE          RMSdq      gap      omega  full diag
   1  -3478.3791183 -0.347838E+04  0.665E-03   10.88       0.0  T
   2  -3478.3791195 -0.118285E-05  0.386E-03   10.88       1.0  T
   3  -3478.3791196 -0.176757E-06  0.233E-04   10.88       7.5  T
   4  -3478.3791197 -0.222276E-07  0.105E-04   10.88      16.8  T
     SCC iter.                  ...        3 min, 43.450 sec
     gradient                   ...        3 min, 53.431 sec
 * total energy  : -3427.3582056 Eh     change    :  -0.2683154E-02 Eh
   gradient norm :     0.0232919 Eh/a0  converged?    E=F G=F D=F
   time step     :     0.7132792 fs     power     :   0.4482578E-07
   step length   :     0.1354232 a0     speed     :   0.4592495E-02

........................................................................
.............................. CYCLE   37 ..............................
........................................................................

 iter      E             dE          RMSdq      gap      omega  full diag
   1  -3478.4509717 -0.347845E+04  0.752E-03   10.89       0.0  T
   2  -3478.4509745 -0.288429E-05  0.432E-03   10.89       1.0  T
   3  -3478.4509747 -0.197231E-06  0.377E-04   10.89       4.6  T
   4  -3478.4509748 -0.311456E-07  0.110E-04   10.89      15.9  T
     SCC iter.                  ...        3 min, 36.743 sec
     gradient                   ...        3 min, 52.676 sec
 * total energy  : -3427.3608732 Eh     change    :  -0.2667657E-02 Eh
   gradient norm :     0.0228912 Eh/a0  converged?    E=F G=F D=F
   time step     :     0.7846071 fs     power     :   0.3883775E-07
   step length   :     0.1570400 a0     speed     :   0.4841426E-02

........................................................................
.............................. CYCLE   38 ..............................
........................................................................

 iter      E             dE          RMSdq      gap      omega  full diag
   1  -3478.5047199 -0.347850E+04  0.716E-03   10.89       0.0  T
   2  -3478.5047208 -0.864210E-06  0.417E-03   10.89       1.0  T
   3  -3478.5047210 -0.178430E-06  0.200E-04   10.89       8.8  T
   4  -3478.5047210 -0.190034E-07  0.948E-05   10.89      18.5  T
     SCC iter.                  ...        3 min, 37.800 sec
     gradient                   ...        3 min, 53.674 sec
 * total energy  : -3427.3635946 Eh     change    :  -0.2721367E-02 Eh
   gradient norm :     0.0248963 Eh/a0  converged?    E=F G=F D=F
   time step     :     0.8630678 fs     power     :   0.3725192E-07
   step length   :     0.1790529 a0     speed     :   0.5018241E-02

........................................................................
.............................. CYCLE   39 ..............................
........................................................................

 iter      E             dE          RMSdq      gap      omega  full diag
   1  -3478.5169751 -0.347852E+04  0.662E-03   10.90       0.0  T
   2  -3478.5169774 -0.231014E-05  0.397E-03   10.90       1.0  T
   3  -3478.5169776 -0.204037E-06  0.243E-04   10.90       7.2  T
   4  -3478.5169776 -0.281707E-07  0.114E-04   10.90      15.3  T
     SCC iter.                  ...        3 min, 36.258 sec
     gradient                   ...        3 min, 54.032 sec
 * total energy  : -3427.3666386 Eh     change    :  -0.3043974E-02 Eh
   gradient norm :     0.0217798 Eh/a0  converged?    E=F G=F D=F
   time step     :     0.9493746 fs     power     :   0.3776575E-07
   step length   :     0.2030679 a0     speed     :   0.5173908E-02

........................................................................
.............................. CYCLE   40 ..............................
........................................................................

 iter      E             dE          RMSdq      gap      omega  full diag
   1  -3478.5075565 -0.347851E+04  0.670E-03   10.90       0.0  T
   2  -3478.5075616 -0.511105E-05  0.403E-03   10.90       1.0  T
   3  -3478.5075619 -0.283721E-06  0.437E-04   10.90       4.0  T
   4  -3478.5075619 -0.540717E-07  0.155E-04   10.90      11.3  T
     SCC iter.                  ...        3 min, 37.505 sec
     gradient                   ...        3 min, 52.860 sec
 * total energy  : -3427.3698445 Eh     change    :  -0.3205896E-02 Eh
   gradient norm :     0.0239560 Eh/a0  converged?    E=F G=F D=F
   time step     :     1.0443120 fs     power     :   0.3544238E-07
   step length   :     0.2317900 a0     speed     :   0.5368829E-02

........................................................................
.............................. CYCLE   41 ..............................
........................................................................

 iter      E             dE          RMSdq      gap      omega  full diag
   1  -3478.5320993 -0.347853E+04  0.761E-03   10.91       0.0  T
   2  -3478.5321002 -0.912030E-06  0.446E-03   10.91       1.0  T
   3  -3478.5321005 -0.294020E-06  0.247E-04   10.91       7.1  T
   4  -3478.5321005 -0.320524E-07  0.145E-04   10.91      12.1  T
     SCC iter.                  ...        3 min, 37.446 sec
     gradient                   ...        3 min, 53.799 sec
 * total energy  : -3427.3735535 Eh     change    :  -0.3709029E-02 Eh
   gradient norm :     0.0218212 Eh/a0  converged?    E=F G=F D=F
   time step     :     1.1487432 fs     power     :   0.3902825E-07
   step length   :     0.2627556 a0     speed     :   0.5532789E-02

........................................................................
.............................. CYCLE   42 ..............................
........................................................................

 iter      E             dE          RMSdq      gap      omega  full diag
   1  -3478.5852803 -0.347859E+04  0.906E-03   10.92       0.0  T
   2  -3478.5852840 -0.374696E-05  0.525E-03   10.92       1.0  T
   3  -3478.5852843 -0.289955E-06  0.392E-04   10.92       4.5  T
   4  -3478.5852844 -0.425630E-07  0.131E-04   10.92      13.4  T
     SCC iter.                  ...        3 min, 43.401 sec
     gradient                   ...        3 min, 54.105 sec
 * total energy  : -3427.3775855 Eh     change    :  -0.4031983E-02 Eh
   gradient norm :     0.0220831 Eh/a0  converged?    E=F G=F D=F
   time step     :     1.2500000 fs     power     :   0.3686722E-07
   step length   :     0.2982455 a0     speed     :   0.5771372E-02
 * RMSD in coord.:     0.0343693 a0     energy gain  -0.4138892E-01 Eh

........................................................................
.............................. CYCLE   43 ..............................
........................................................................

 iter      E             dE          RMSdq      gap      omega  full diag
   1  -3478.5886477 -0.347859E+04  0.150E-03   10.92       0.0  T
   2  -3478.5886478 -0.430732E-07  0.877E-04   10.92       2.0  T
   3  -3478.5886478 -0.119048E-07  0.541E-05   10.92      32.4  T
     SCC iter.                  ...        2 min, 43.365 sec
     gradient                   ...        3 min, 53.399 sec
 * total energy  : -3427.3783571 Eh     change    :  -0.7716466E-03 Eh
   gradient norm :     0.0218837 Eh/a0  converged?    E=F G=F D=F
   time step     :     0.2500000 fs     power     :   0.4021953E-07
   step length   :     0.0578417 a0     speed     :   0.5596491E-02

........................................................................
.............................. CYCLE   44 ..............................
........................................................................

 iter      E             dE          RMSdq      gap      omega  full diag
   1  -3478.5855291 -0.347859E+04  0.145E-03   10.93       0.0  T
   2  -3478.5855292 -0.181772E-06  0.851E-04   10.93       2.1  T
   3  -3478.5855292 -0.126047E-07  0.863E-05   10.93      20.3  T
     SCC iter.                  ...        2 min, 48.854 sec
     gradient                   ...        3 min, 53.056 sec
 * total energy  : -3427.3791756 Eh     change    :  -0.8184703E-03 Eh
   gradient norm :     0.0201968 Eh/a0  converged?    E=F G=F D=F
   time step     :     0.2500000 fs     power     :   0.4247562E-07
   step length   :     0.0565717 a0     speed     :   0.5473611E-02

........................................................................
.............................. CYCLE   45 ..............................
........................................................................

 iter      E             dE          RMSdq      gap      omega  full diag
   1  -3478.5777991 -0.347858E+04  0.158E-03   10.93       0.0  T
   2  -3478.5777995 -0.417486E-06  0.925E-04   10.93       1.9  T
   3  -3478.5777995 -0.148611E-07  0.155E-04   10.93      11.3  T
     SCC iter.                  ...        2 min, 43.187 sec
     gradient                   ...        3 min, 53.386 sec
 * total energy  : -3427.3800058 Eh     change    :  -0.8302434E-03 Eh
   gradient norm :     0.0181117 Eh/a0  converged?    E=F G=F D=F
   time step     :     0.2500000 fs     power     :   0.4256272E-07
   step length   :     0.0559192 a0     speed     :   0.5410487E-02

........................................................................
.............................. CYCLE   46 ..............................
........................................................................

 iter      E             dE          RMSdq      gap      omega  full diag
   1  -3478.5684694 -0.347857E+04  0.170E-03   10.93       0.0  T
   2  -3478.5684699 -0.521841E-06  0.995E-04   10.93       1.8  T
   3  -3478.5684699 -0.162413E-07  0.178E-04   10.93       9.8  T
     SCC iter.                  ...        2 min, 51.558 sec
     gradient                   ...        3 min, 54.947 sec
 * total energy  : -3427.3808145 Eh     change    :  -0.8086207E-03 Eh
   gradient norm :     0.0170596 Eh/a0  converged?    E=F G=F D=F
   time step     :     0.2500000 fs     power     :   0.4112574E-07
   step length   :     0.0557434 a0     speed     :   0.5393477E-02

........................................................................
.............................. CYCLE   47 ..............................
........................................................................

 iter      E             dE          RMSdq      gap      omega  full diag
   1  -3478.5611725 -0.347856E+04  0.172E-03   10.93       0.0  T
   2  -3478.5611728 -0.379081E-06  0.101E-03   10.93       1.7  T
   3  -3478.5611728 -0.152968E-07  0.139E-04   10.93      12.6  T
   4  -3478.5611729 -0.523187E-08  0.344E-05   10.93      50.9  T
     SCC iter.                  ...        3 min, 41.264 sec
     gradient                   ...        3 min, 52.530 sec
 * total energy  : -3427.3815947 Eh     change    :  -0.7802564E-03 Eh
   gradient norm :     0.0172451 Eh/a0  converged?    E=F G=F D=F
   time step     :     0.2500000 fs     power     :   0.3986119E-07
   step length   :     0.0556561 a0     speed     :   0.5385025E-02

........................................................................
.............................. CYCLE   48 ..............................
........................................................................

 iter      E             dE          RMSdq      gap      omega  full diag
   1  -3478.5584252 -0.347856E+04  0.186E-03   10.93       0.0  T
   2  -3478.5584254 -0.185194E-06  0.108E-03   10.93       1.6  T
   3  -3478.5584254 -0.145305E-07  0.846E-05   10.93      20.7  T
   4  -3478.5584254 -0.591763E-08  0.289E-05   10.93      60.5  T
     SCC iter.                  ...        3 min, 36.486 sec
     gradient                   ...        3 min, 58.614 sec
 * total energy  : -3427.3824389 Eh     change    :  -0.8441893E-03 Eh
   gradient norm :     0.0174525 Eh/a0  converged?    E=F G=F D=F
   time step     :     0.2750000 fs     power     :   0.3948154E-07
   step length   :     0.0610182 a0     speed     :   0.5367128E-02

........................................................................
.............................. CYCLE   49 ..............................
........................................................................

 iter      E             dE          RMSdq      gap      omega  full diag
   1  -3478.5626073 -0.347856E+04  0.205E-03   10.94       0.0  T
   2  -3478.5626074 -0.737305E-07  0.119E-03   10.94       1.5  T
   3  -3478.5626074 -0.171235E-07  0.634E-05   10.94      27.6  T
   4  -3478.5626074 -0.530235E-08  0.288E-05   10.94      60.8  T
     SCC iter.                  ...        3 min, 43.147 sec
     gradient                   ...        3 min, 53.054 sec
 * total energy  : -3427.3833639 Eh     change    :  -0.9250045E-03 Eh
   gradient norm :     0.0164684 Eh/a0  converged?    E=F G=F D=F
   time step     :     0.3025000 fs     power     :   0.3934373E-07
   step length   :     0.0669344 a0     speed     :   0.5352280E-02

........................................................................
.............................. CYCLE   50 ..............................
........................................................................

 iter      E             dE          RMSdq      gap      omega  full diag
   1  -3478.5742197 -0.347857E+04  0.232E-03   10.94       0.0  T
   2  -3478.5742199 -0.237583E-06  0.135E-03   10.94       1.3  T
   3  -3478.5742199 -0.229479E-07  0.965E-05   10.94      18.2  T
   4  -3478.5742200 -0.542377E-08  0.353E-05   10.94      49.7  T
     SCC iter.                  ...        3 min, 36.278 sec
     gradient                   ...        3 min, 52.007 sec
 * total energy  : -3427.3843584 Eh     change    :  -0.9945140E-03 Eh
   gradient norm :     0.0144623 Eh/a0  converged?    E=F G=F D=F
   time step     :     0.3327500 fs     power     :   0.3796124E-07
   step length   :     0.0738567 a0     speed     :   0.5368920E-02

........................................................................
.............................. CYCLE   51 ..............................
........................................................................

 iter      E             dE          RMSdq      gap      omega  full diag
   1  -3478.5904419 -0.347859E+04  0.257E-03   10.94       0.0  T
   2  -3478.5904424 -0.490767E-06  0.149E-03   10.94       1.2  T
   3  -3478.5904424 -0.291761E-07  0.148E-04   10.94      11.8  T
   4  -3478.5904424 -0.644241E-08  0.423E-05   10.94      41.4  T
     SCC iter.                  ...        3 min, 36.935 sec
     gradient                   ...        3 min, 52.736 sec
 * total energy  : -3427.3853847 Eh     change    :  -0.1026240E-02 Eh
   gradient norm :     0.0135321 Eh/a0  converged?    E=F G=F D=F
   time step     :     0.3660250 fs     power     :   0.3504194E-07
   step length   :     0.0821217 a0     speed     :   0.5427029E-02

........................................................................
.............................. CYCLE   52 ..............................
........................................................................

 iter      E             dE          RMSdq      gap      omega  full diag
   1  -3478.6038756 -0.347860E+04  0.258E-03   10.95       0.0  T
   2  -3478.6038760 -0.339910E-06  0.151E-03   10.95       1.2  T
   3  -3478.6038760 -0.315554E-07  0.115E-04   10.95      15.2  T
   4  -3478.6038760 -0.633554E-08  0.420E-05   10.95      41.7  T
     SCC iter.                  ...        3 min, 38.311 sec
     gradient                   ...        3 min, 53.175 sec
 * total energy  : -3427.3864341 Eh     change    :  -0.1049404E-02 Eh
   gradient norm :     0.0143324 Eh/a0  converged?    E=F G=F D=F
   time step     :     0.4026275 fs     power     :   0.3269817E-07
   step length   :     0.0911470 a0     speed     :   0.5475884E-02

........................................................................
.............................. CYCLE   53 ..............................
........................................................................

 iter      E             dE          RMSdq      gap      omega  full diag
   1  -3478.6072924 -0.347861E+04  0.250E-03   10.95       0.0  T
   2  -3478.6072925 -0.115175E-06  0.147E-03   10.95       1.2  T
   3  -3478.6072925 -0.338091E-07  0.800E-05   10.95      21.9  T
   4  -3478.6072925 -0.600630E-08  0.423E-05   10.95      41.4  T
     SCC iter.                  ...        3 min, 43.601 sec
     gradient                   ...        3 min, 51.643 sec
 * total energy  : -3427.3875463 Eh     change    :  -0.1112281E-02 Eh
   gradient norm :     0.0140515 Eh/a0  converged?    E=F G=F D=F
   time step     :     0.4428903 fs     power     :   0.3183284E-07
   step length   :     0.1002832 a0     speed     :   0.5477058E-02

........................................................................
.............................. CYCLE   54 ..............................
........................................................................

 iter      E             dE          RMSdq      gap      omega  full diag
   1  -3478.5987744 -0.347860E+04  0.262E-03   10.96       0.0  T
   2  -3478.5987749 -0.525981E-06  0.154E-03   10.96       1.1  T
   3  -3478.5987749 -0.438304E-07  0.142E-04   10.96      12.4  T
   4  -3478.5987749 -0.759565E-08  0.526E-05   10.96      33.3  T
     SCC iter.                  ...        3 min, 36.155 sec
     gradient                   ...        3 min, 54.485 sec
 * total energy  : -3427.3887282 Eh     change    :  -0.1181872E-02 Eh
   gradient norm :     0.0124963 Eh/a0  converged?    E=F G=F D=F
   time step     :     0.4871793 fs     power     :   0.3037688E-07
   step length   :     0.1104714 a0     speed     :   0.5484993E-02

........................................................................
.............................. CYCLE   55 ..............................
........................................................................

 iter      E             dE          RMSdq      gap      omega  full diag
   1  -3478.5856995 -0.347859E+04  0.268E-03   10.96       0.0  T
   2  -3478.5857004 -0.886512E-06  0.158E-03   10.96       1.1  T
   3  -3478.5857005 -0.542686E-07  0.208E-04   10.96       8.4  T
   4  -3478.5857005 -0.100108E-07  0.644E-05   10.96      27.2  T
     SCC iter.                  ...        3 min, 41.730 sec
     gradient                   ...        3 min, 53.661 sec
 * total energy  : -3427.3899458 Eh     change    :  -0.1217617E-02 Eh
   gradient norm :     0.0130638 Eh/a0  converged?    E=F G=F D=F
   time step     :     0.5358972 fs     power     :   0.2820190E-07
   step length   :     0.1223675 a0     speed     :   0.5523314E-02

........................................................................
.............................. CYCLE   56 ..............................
........................................................................

 iter      E             dE          RMSdq      gap      omega  full diag
   1  -3478.5831802 -0.347858E+04  0.259E-03   10.97       0.0  T
   2  -3478.5831805 -0.300758E-06  0.152E-03   10.97       1.1  T
   3  -3478.5831806 -0.512564E-07  0.122E-04   10.97      14.4  T
   4  -3478.5831806 -0.880391E-08  0.624E-05   10.97      28.1  T
     SCC iter.                  ...        3 min, 36.519 sec
     gradient                   ...        3 min, 55.208 sec
 * total energy  : -3427.3912418 Eh     change    :  -0.1295932E-02 Eh
   gradient norm :     0.0134996 Eh/a0  converged?    E=F G=F D=F
   time step     :     0.5894869 fs     power     :   0.2783770E-07
   step length   :     0.1345752 a0     speed     :   0.5522123E-02

........................................................................
.............................. CYCLE   57 ..............................
........................................................................

 iter      E             dE          RMSdq      gap      omega  full diag
   1  -3478.5986263 -0.347860E+04  0.298E-03   10.97       0.0  T
   2  -3478.5986267 -0.402887E-06  0.173E-03   10.97       1.0  T
   3  -3478.5986267 -0.444034E-07  0.154E-04   10.97      11.4  T
   4  -3478.5986267 -0.111991E-07  0.580E-05   10.97      30.2  T
     SCC iter.                  ...        3 min, 47.570 sec
     gradient                   ...        3 min, 53.025 sec
 * total energy  : -3427.3926549 Eh     change    :  -0.1413155E-02 Eh
   gradient norm :     0.0119884 Eh/a0  converged?    E=F G=F D=F
   time step     :     0.6484356 fs     power     :   0.2734272E-07
   step length   :     0.1479831 a0     speed     :   0.5520270E-02

........................................................................
.............................. CYCLE   58 ..............................
........................................................................

 iter      E             dE          RMSdq      gap      omega  full diag
   1  -3478.6228454 -0.347862E+04  0.335E-03   10.98       0.0  T
   2  -3478.6228460 -0.618859E-06  0.195E-03   10.98       1.0  T
   3  -3478.6228460 -0.453065E-07  0.185E-04   10.98       9.5  T
   4  -3478.6228460 -0.112464E-07  0.585E-05   10.98      29.9  T
     SCC iter.                  ...        3 min, 35.428 sec
     gradient                   ...        3 min, 52.937 sec
 * total energy  : -3427.3941463 Eh     change    :  -0.1491366E-02 Eh
   gradient norm :     0.0127874 Eh/a0  converged?    E=F G=F D=F
   time step     :     0.7132792 fs     power     :   0.2606207E-07
   step length   :     0.1640064 a0     speed     :   0.5561813E-02

........................................................................
.............................. CYCLE   59 ..............................
........................................................................

 iter      E             dE          RMSdq      gap      omega  full diag
   1  -3478.6354130 -0.347864E+04  0.327E-03   10.99       0.0  T
   2  -3478.6354133 -0.284367E-06  0.195E-03   10.99       1.0  T
   3  -3478.6354134 -0.557720E-07  0.122E-04   10.99      14.3  T
   4  -3478.6354134 -0.956970E-08  0.678E-05   10.99      25.8  T
     SCC iter.                  ...        3 min, 44.902 sec
     gradient                   ...        3 min, 54.046 sec
 * total energy  : -3427.3957735 Eh     change    :  -0.1627259E-02 Eh
   gradient norm :     0.0118244 Eh/a0  converged?    E=F G=F D=F
   time step     :     0.7846071 fs     power     :   0.2621800E-07
   step length   :     0.1808245 a0     speed     :   0.5574684E-02

........................................................................
.............................. CYCLE   60 ..............................
........................................................................

 iter      E             dE          RMSdq      gap      omega  full diag
   1  -3478.6368265 -0.347864E+04  0.355E-03   11.00       0.0  T
   2  -3478.6368279 -0.141481E-05  0.215E-03   11.00       1.0  T
   3  -3478.6368280 -0.679324E-07  0.235E-04   11.00       7.4  T
   4  -3478.6368280 -0.179257E-07  0.790E-05   11.00      22.2  T
     SCC iter.                  ...        3 min, 42.269 sec
     gradient                   ...        3 min, 52.176 sec
 * total energy  : -3427.3975047 Eh     change    :  -0.1731142E-02 Eh
   gradient norm :     0.0113852 Eh/a0  converged?    E=F G=F D=F
   time step     :     0.8630678 fs     power     :   0.2462790E-07
   step length   :     0.2008396 a0     speed     :   0.5628848E-02

........................................................................
.............................. CYCLE   61 ..............................
........................................................................

 iter      E             dE          RMSdq      gap      omega  full diag
   1  -3478.6593848 -0.347866E+04  0.424E-03   11.01       0.0  T
   2  -3478.6593851 -0.291078E-06  0.251E-03   11.01       1.0  T
   3  -3478.6593851 -0.638602E-07  0.128E-04   11.01      13.7  T
   4  -3478.6593851 -0.111886E-07  0.661E-05   11.01      26.5  T
     SCC iter.                  ...        3 min, 36.104 sec
     gradient                   ...        3 min, 54.763 sec
 * total energy  : -3427.3993283 Eh     change    :  -0.1823597E-02 Eh
   gradient norm :     0.0104175 Eh/a0  converged?    E=F G=F D=F
   time step     :     0.9493746 fs     power     :   0.2389851E-07
   step length   :     0.2228214 a0     speed     :   0.5677202E-02

........................................................................
.............................. CYCLE   62 ..............................
........................................................................

 iter      E             dE          RMSdq      gap      omega  full diag
   1  -3478.7051309 -0.347871E+04  0.567E-03   11.02       0.0  T
   2  -3478.7051322 -0.129048E-05  0.328E-03   11.02       1.0  T
   3  -3478.7051323 -0.875507E-07  0.251E-04   11.03       7.0  T
   4  -3478.7051323 -0.171472E-07  0.751E-05   11.02      23.3  T
     SCC iter.                  ...        3 min, 42.114 sec
     gradient                   ...        3 min, 53.144 sec
 * total energy  : -3427.4011842 Eh     change    :  -0.1855939E-02 Eh
   gradient norm :     0.0105739 Eh/a0  converged?    E=F G=F D=F
   time step     :     1.0443120 fs     power     :   0.2111793E-07
   step length   :     0.2482831 a0     speed     :   0.5750850E-02

........................................................................
.............................. CYCLE   63 ..............................
........................................................................

 iter      E             dE          RMSdq      gap      omega  full diag
   1  -3478.7150664 -0.347872E+04  0.519E-03   11.04       0.0  T
   2  -3478.7150676 -0.123079E-05  0.309E-03   11.04       1.0  T
   3  -3478.7150677 -0.685618E-07  0.198E-04   11.04       8.8  T
   4  -3478.7150677 -0.324821E-07  0.731E-05   11.04      24.0  T
     SCC iter.                  ...        3 min, 40.039 sec
     gradient                   ...        3 min, 53.353 sec
 * total energy  : -3427.4030497 Eh     change    :  -0.1865514E-02 Eh
   gradient norm :     0.0087258 Eh/a0  converged?    E=F G=F D=F
   time step     :     1.1487432 fs     power     :   0.1932770E-07
   step length   :     0.2742395 a0     speed     :   0.5774603E-02

........................................................................
.............................. CYCLE   64 ..............................
........................................................................

 iter      E             dE          RMSdq      gap      omega  full diag
   1  -3478.7195451 -0.347872E+04  0.539E-03   11.05       0.0  T
   2  -3478.7195462 -0.112343E-05  0.321E-03   11.05       1.0  T
   3  -3478.7195463 -0.759655E-07  0.188E-04   11.06       9.3  T
   4  -3478.7195463 -0.292407E-07  0.773E-05   11.06      22.7  T
     SCC iter.                  ...        3 min, 47.672 sec
     gradient                   ...        3 min, 53.957 sec
 * total energy  : -3427.4048501 Eh     change    :  -0.1800363E-02 Eh
   gradient norm :     0.0099406 Eh/a0  converged?    E=F G=F D=F
   time step     :     1.2500000 fs     power     :   0.1700182E-07
   step length   :     0.3009494 a0     speed     :   0.5823694E-02

........................................................................
.............................. CYCLE   65 ..............................
........................................................................

 iter      E             dE          RMSdq      gap      omega  full diag
   1  -3478.7599439 -0.347876E+04  0.607E-03   11.07       0.0  T
   2  -3478.7599457 -0.178968E-05  0.352E-03   11.07       1.0  T
   3  -3478.7599458 -0.712539E-07  0.295E-04   11.07       5.9  T
   4  -3478.7599458 -0.320874E-07  0.750E-05   11.07      23.4  T
     SCC iter.                  ...        3 min, 40.536 sec
     gradient                   ...        3 min, 54.312 sec
 * total energy  : -3427.4064881 Eh     change    :  -0.1638041E-02 Eh
   gradient norm :     0.0104190 Eh/a0  converged?    E=F G=F D=F
   time step     :     1.2500000 fs     power     :   0.1499550E-07
   step length   :     0.2988675 a0     speed     :   0.5783408E-02

........................................................................
.............................. CYCLE   66 ..............................
........................................................................

 iter      E             dE          RMSdq      gap      omega  full diag
   1  -3478.7554392 -0.347876E+04  0.462E-03   11.09       0.0  T
   2  -3478.7554408 -0.168555E-05  0.276E-03   11.09       1.0  T
   3  -3478.7554409 -0.825639E-07  0.245E-04   11.09       7.2  T
   4  -3478.7554409 -0.230866E-07  0.869E-05   11.09      20.2  T
     SCC iter.                  ...        3 min, 35.633 sec
     gradient                   ...        3 min, 52.654 sec
 * total energy  : -3427.4080276 Eh     change    :  -0.1539442E-02 Eh
   gradient norm :     0.0087419 Eh/a0  converged?    E=F G=F D=F
[...]
  3011   6 C     3012   6 C                                       1.5256710
  3012   6 C     3013   6 C                                       1.5271901
  3013   6 C     3014   6 C                                       1.5259761
  3014   6 C     3015   6 C                                       1.5264683
  3015   6 C     3016   6 C                                       1.5232773
  3015   6 C     3017   1 H                                       1.0928505
  3015   6 C     3018   1 H                                       1.0921279
  3014   6 C     3019   1 H                                       1.0925681
  3014   6 C     3020   1 H                                       1.0932074
  3013   6 C     3021   1 H                                       1.0925486
  3013   6 C     3022   1 H                                       1.0928081
  3012   6 C     3023   1 H                                       1.0924200
  3012   6 C     3024   1 H                                       1.0930049
  3011   6 C     3025   1 H                                       1.0926424
  3011   6 C     3026   1 H                                       1.0925131
  3010   6 C     3027   1 H                                       1.0923664
  3010   6 C     3028   1 H                                       1.0933788
  3009   6 C     3029   1 H                                       1.0934246
  3009   6 C     3030   1 H                                       1.0926951
  3008   6 C     3031   1 H                                       1.0922861
  3008   6 C     3032   1 H                                       1.0936175
  3007   6 C     3033   1 H                                       1.0927645
  3007   6 C     3034   1 H                                       1.0912717
  3006   6 C     3035   1 H                                       1.0929064
  3006   6 C     3036   1 H                                       1.0934586
  3005   6 C     3037   1 H                                       1.0934488
  3005   6 C     3038   1 H                                       1.0924098
  3004   6 C     3039   1 H                                       1.0913594
  3004   6 C     3040   1 H                                       1.0930451
  3003   6 C     3041   1 H                                       1.0936144
  3003   6 C     3042   1 H                                       1.0917132
  3002   6 C     3043   1 H                                       1.0920411
  3002   6 C     3044   1 H                                       1.0939075
  3001   6 C     3045   1 H                                       1.0938870
  3001   6 C     3046   1 H                                       1.0936476
  3000   6 C     3047   1 H                                       1.0918377
  3000   6 C     3048   1 H                                       1.0918023
  2999   6 C     3049   1 H                                       1.0920321
  2999   6 C     3050   1 H                                       1.0939832
  2998   6 C     3051   1 H                                       1.0930199
  2998   6 C     3052   1 H                                       1.0927695
  2997   6 C     3053   1 H                                       1.0923764
  2997   6 C     3054   1 H                                       1.0935779
  2996   6 C     3055   1 H                                       1.0907619
  2996   6 C     3056   1 H                                       1.0922396
  2995   6 C     3057   1 H                                       1.0917330
  2995   6 C     3058   1 H                                       1.0913929
  2994   6 C     3059   1 H                                       1.0934438
  2994   6 C     3060   1 H                                       1.0908025
  2993   6 C     3061   1 H                                       1.0932587
  2993   6 C     3062   1 H                                       1.0922127
  2992   6 C     3063   1 H                                       1.0915521
  2992   6 C     3064   1 H                                       1.0936285
  2991   6 C     3065   1 H                                       1.0931089
  2991   6 C     3066   1 H                                       1.0913941
  2990   6 C     3067   1 H                                       1.0921488
  2990   6 C     3068   1 H                                       1.0936681
  2989   6 C     3069   1 H                                       1.0938452
  2989   6 C     3070   1 H                                       1.0935304
  2988   6 C     3071   1 H                                       1.0938014
  2988   6 C     3072   1 H                                       1.0904082
  2987   6 C     3073   1 H                                       1.0916874
  2987   6 C     3074   1 H                                       1.0927717
  2986   6 C     3075   1 H                                       1.0934221
  2986   6 C     3076   1 H                                       1.0923555
  2985   6 C     3077   1 H                                       1.0917605
  2985   6 C     3078   1 H                                       1.0932731
  2984   6 C     3079   1 H                                       1.0938732
  2984   6 C     3080   1 H                                       1.0933396
  2983   6 C     3081   1 H                                       1.0914798
  2983   6 C     3082   1 H                                       1.0929063
  2982   6 C     3083   1 H                                       1.0935062
  2982   6 C     3084   1 H                                       1.0930402
  2981   6 C     3085   1 H                                       1.0925107
  2981   6 C     3086   1 H                                       1.0929422
  2980   6 C     3087   1 H                                       1.0930819
  2980   6 C     3088   1 H                                       1.0903068
  2979   6 C     3089   1 H                                       1.0925631
  2979   6 C     3090   1 H                                       1.0933723
  2978   6 C     3091   1 H                                       1.0932255
  2978   6 C     3092   1 H                                       1.0932458
  2977   6 C     3093   1 H                                       1.0892718
  2977   6 C     3094   1 H                                       1.0931037
  2976   6 C     3095   1 H                                       1.0934475
  2976   6 C     3096   1 H                                       1.0927622
  2975   6 C     3097   1 H                                       1.0934677
  2975   6 C     3098   1 H                                       1.0935387
  2974   6 C     3099   1 H                                       1.0914700
  2974   6 C     3100   1 H                                       1.0904385
  2973   6 C     3101   1 H                                       1.0940795
  2973   6 C     3102   1 H                                       1.0935256
  2972   6 C     3103   1 H                                       1.0918600
  2972   6 C     3104   1 H                                       1.0937240
  2971   6 C     3105   1 H                                       1.0929352
  2971   6 C     3106   1 H                                       1.0917630
  2970   6 C     3107   1 H                                       1.0920433
  2970   6 C     3108   1 H                                       1.0935071
  2969   6 C     3109   1 H                                       1.0933971
  2969   6 C     3110   1 H                                       1.0920570
  2968   6 C     3111   1 H                                       1.0923439
  2968   6 C     3112   1 H                                       1.0927606
  2967   6 C     3113   1 H                                       1.0930710
  2967   6 C     3114   1 H                                       1.0927491
  2966   6 C     3115   1 H                                       1.0915025
  2966   6 C     3116   1 H                                       1.0916993
  2965   6 C     3117   1 H                                       1.0924573
  2965   6 C     3118   1 H                                       1.0925971
  2964   6 C     3119   1 H                                       1.0944894
  2964   6 C     3120   1 H                                       1.0927149
  2963   6 C     3121   1 H                                       1.0907821
  2963   6 C     3122   1 H                                       1.0930605
  2962   6 C     3123   1 H                                       1.0929897
  2962   6 C     3124   1 H                                       1.0934548
  2961   6 C     3125   1 H                                       1.0928187
  2961   6 C     3126   1 H                                       1.0934090
  2960   6 C     3127   1 H                                       1.0918933
  2960   6 C     3128   1 H                                       1.0902790
  2959   6 C     3129   1 H                                       1.0931983
  2959   6 C     3130   1 H                                       1.0937793
  2958   6 C     3131   1 H                                       1.0947741
  2958   6 C     3132   1 H                                       1.0925004
  2957   6 C     3133   1 H                                       1.0895290
  2957   6 C     3134   1 H                                       1.0928750
  2956   6 C     3135   1 H                                       1.0930787
  2956   6 C     3136   1 H                                       1.0929329
  2955   6 C     3137   1 H                                       1.0932305
  2955   6 C     3138   1 H                                       1.0928921
  2954   6 C     3139   1 H                                       1.0933631
  2954   6 C     3140   1 H                                       1.0914398
  2953   6 C     3141   1 H                                       1.0923167
  2953   6 C     3142   1 H                                       1.0925406
  2952   6 C     3143   1 H                                       1.0928536
  2952   6 C     3144   1 H                                       1.0910491
  2951   6 C     3145   1 H                                       1.0931527
  2951   6 C     3146   1 H                                       1.0947136
  2950   6 C     3147   1 H                                       1.0937709
  2950   6 C     3148   1 H                                       1.0931570
  2949   6 C     3149   1 H                                       1.0909679
  2949   6 C     3150   1 H                                       1.0931138
  2948   6 C     3151   1 H                                       1.0936326
  2948   6 C     3152   1 H                                       1.0913202
  2947   6 C     3153   1 H                                       1.0923682
  2947   6 C     3154   1 H                                       1.0938429
  2946   6 C     3155   1 H                                       1.0926479
  2946   6 C     3156   1 H                                       1.0932436
  2945   6 C     3157   1 H                                       1.0909180
  2945   6 C     3158   1 H                                       1.0936123
  2944   6 C     3159   1 H                                       1.0913555
  2944   6 C     3160   1 H                                       1.0928963
  2943   6 C     3161   1 H                                       1.0923305
  2943   6 C     3162   1 H                                       1.0909248
  2942   6 C     3163   1 H                                       1.0913597
  2942   6 C     3164   1 H                                       1.0942318
  2941   6 C     3165   1 H                                       1.0941457
  2941   6 C     3166   1 H                                       1.0931111
  2940   6 C     3167   1 H                                       1.0900585
  2940   6 C     3168   1 H                                       1.0930116
  2939   6 C     3169   1 H                                       1.0944900
  2939   6 C     3170   1 H                                       1.0932756
  2938   6 C     3171   1 H                                       1.0914931
  2938   6 C     3172   1 H                                       1.0931276
  2937   6 C     3173   1 H                                       1.0909568
  2937   6 C     3174   1 H                                       1.0922486
  2936   6 C     3175   1 H                                       1.0920513
  2936   6 C     3176   1 H                                       1.0936725
  2935   6 C     3177   1 H                                       1.0928203
  2935   6 C     3178   1 H                                       1.0934962
  2934   6 C     3179   1 H                                       1.0914616
  2934   6 C     3180   1 H                                       1.0914011
  2933   6 C     3181   1 H                                       1.0940797
  2933   6 C     3182   1 H                                       1.0931218
  2932   6 C     3183   1 H                                       1.0933959
  2932   6 C     3184   1 H                                       1.0928809
  2931   6 C     3185   1 H                                       1.0913501
  2931   6 C     3186   1 H                                       1.0917105
  2930   6 C     3187   1 H                                       1.0923754
  2930   6 C     3188   1 H                                       1.0921754
  2929   6 C     3189   1 H                                       1.0918004
  2929   6 C     3190   1 H                                       1.0933766
  2928   6 C     3191   1 H                                       1.0930421
  2928   6 C     3192   1 H                                       1.0911442
  2927   6 C     3193   1 H                                       1.0927359
  2927   6 C     3194   1 H                                       1.0940963
  2926   6 C     3195   1 H                                       1.0914972
  2926   6 C     3196   1 H                                       1.0910061
  2925   6 C     3197   1 H                                       1.0932463
  2925   6 C     3198   1 H                                       1.0933455
  2924   6 C     3199   1 H                                       1.0925459
  2924   6 C     3200   1 H                                       1.0934928
  2923   6 C     3201   1 H                                       1.0935264
  2923   6 C     3202   1 H                                       1.0902684
  2922   6 C     3203   1 H                                       1.0928662
  2922   6 C     3204   1 H                                       1.0939996
  2921   6 C     3205   1 H                                       1.0940358
  2921   6 C     3206   1 H                                       1.0935367
  2920   6 C     3207   1 H                                       1.0916043
  2920   6 C     3208   1 H                                       1.0930163
  2919   6 C     3209   1 H                                       1.0937346
  2919   6 C     3210   1 H                                       1.0936716
  2918   6 C     3211   1 H                                       1.0925164
  2918   6 C     3212   1 H                                       1.0924437
  2917   6 C     3213   1 H                                       1.0928825
  2917   6 C     3214   1 H                                       1.0939525
  2916   6 C     3215   1 H                                       1.0928081
  2916   6 C     3216   1 H                                       1.0930372
  2915   6 C     3217   1 H                                       1.0929330
  2915   6 C     3218   1 H                                       1.0929476
  2914   6 C     3219   1 H                                       1.0924746
  2914   6 C     3220   1 H                                       1.0931964
  2913   6 C     3221   1 H                                       1.0934794
  2913   6 C     3222   1 H                                       1.0926476
  2912   6 C     3223   1 H                                       1.0932335
  2912   6 C     3224   1 H                                       1.0927968
  2911   6 C     3225   1 H                                       1.0930382
  2911   6 C     3226   1 H                                       1.0923091
  2910   6 C     3227   1 H                                       1.0913037
  2910   6 C     3228   1 H                                       1.0928657
  2909   6 C     3229   1 H                                       1.0935244
  2909   6 C     3230   1 H                                       1.0932155
  2908   6 C     3231   1 H                                       1.0929756
  2908   6 C     3232   1 H                                       1.0917360
  2907   6 C     3233   1 H                                       1.0934235
  2907   6 C     3234   1 H                                       1.0919638
  2906   6 C     3235   1 H                                       1.0931959
  2906   6 C     3236   1 H                                       1.0915354
  2905   6 C     3237   1 H                                       1.0916555
  2905   6 C     3238   1 H                                       1.0933210
  2904   6 C     3239   1 H                                       1.0936021
  2904   6 C     3240   1 H                                       1.0931895
  2903   6 C     3241   1 H                                       1.0899292
  2903   6 C     3242   1 H                                       1.0919880
  2902   6 C     3243   1 H                                       1.0934301
  2902   6 C     3244   1 H                                       1.0931051
  2901   6 C     3245   1 H                                       1.0929295
  2901   6 C     3246   1 H                                       1.0933213
  2900   6 C     3247   1 H                                       1.0931493
  2900   6 C     3248   1 H                                       1.0906738
  2899   6 C     3249   1 H                                       1.0927577
  2899   6 C     3250   1 H                                       1.0931346
  2898   6 C     3251   1 H                                       1.0928878
  2898   6 C     3252   1 H                                       1.0920348
  2897   6 C     3253   1 H                                       1.0874134
  2897   6 C     3254   1 H                                       1.0876431
  2897   6 C     3255   1 H                                       1.0880136
  3016   6 C     3256   1 H                                       1.0881033
  3016   6 C     3257   1 H                                       1.0876254
  3016   6 C     3258   1 H                                       1.0880824

 * 2 distinct bonds (by element types)

   Z      Z             #   av. dist./Å        max./Å        min./Å
   1 H    6 C        2178     1.0925393     1.0947812     1.0866727
   6 C    6 C        1071     1.5274398     1.5333740     1.5220628


optimized geometry written to: xtbopt.xyz


           -------------------------------------------------
          | TOTAL ENERGY            -3427.473953539254 Eh   |
          | GRADIENT NORM               0.000718292881 Eh/α |
          | HOMO-LUMO GAP              11.352821349150 eV   |
           -------------------------------------------------

------------------------------------------------------------------------
 * finished run on 2024/06/20 at 18:55:45.230     
------------------------------------------------------------------------
 total:
 * wall-time:     3 d,  3 h, 38 min,  8.718 sec
 *  cpu-time:    16 d,  6 h, 17 min, 24.980 sec
 * ratio c/w:     5.160 speedup
 SCF:
 * wall-time:     0 d,  0 h,  7 min,  7.453 sec
 *  cpu-time:     0 d,  0 h, 36 min, 41.344 sec
 * ratio c/w:     5.150 speedup
 ANC optimizer:
 * wall-time:     3 d,  3 h, 30 min, 19.478 sec
 *  cpu-time:    16 d,  5 h, 39 min, 46.436 sec
 * ratio c/w:     5.161 speedup

