3864
 energy: -5104.231919751819 gnorm: 0.000900392356 xtb: 6.6.1 (8d0f1dd)
C           34.69331113205328       55.13793046892897       51.97904531498322
C           35.22785087974830       56.41826901627983       52.06793504106007
C           36.33874311191641       56.72487340404837       51.29120725018672
C           36.90517235610476       55.78006109651278       50.45257474203382
C           36.36384374318992       54.50952183490782       50.37147045709867
C           35.25050138292400       54.19640810469485       51.13127169185247
C           34.63207211576698       57.44942181512820       52.99403881701394
C           33.13376025696542       57.62484223152305       52.74124556891148
C           34.90250766688117       57.06837063079147       54.45836848721133
C           36.39113682465154       57.20214322727859       54.80377615633834
C           36.80834319586409       58.65391051565955       54.85957590292106
C           36.24834324311337       59.52350197588949       55.78941297377119
C           36.64800303418667       60.84508908321882       55.86047800382120
C           37.61576747782787       61.32659673449686       54.99598483826340
C           38.17860532035071       60.47527062030662       54.06221636476201
C           37.77964771430288       59.15085182852316       53.99959493704775
C           36.76268680597807       56.54864797734404       56.14307741316918
C           36.48417592640897       55.03941507187444       56.27805563994182
C           37.01168952139075       54.64507166083173       57.63672960288832
C           38.37229233139708       54.47921838248872       57.87039149281310
C           38.84283156965812       54.21307015017041       59.14345401978153
C           37.96521188472136       54.11612407419030       60.20883583401295
C           36.60886316709237       54.27348873540593       59.98953996196917
C           36.13997274737753       54.53555501935060       58.71346098409140
C           37.07559694390509       54.22287846846334       55.12384257821771
C           36.89218840915532       52.70724861723613       55.30543122866221
C           35.42768808877427       52.36596487005608       55.41179779810953
C           34.60936735252304       52.37026471283061       54.28841528579503
C           33.26246661929604       52.07257688632592       54.38922302214442
C           32.70456375634827       51.77991077853080       55.62210558834558
C           33.50781240936995       51.77780676973945       56.74891783816666
C           34.85933505650374       52.05691536247961       56.64152526368012
C           37.56510988618694       51.94806372769575       54.14623314462249
C           39.05624020100809       51.66032090468157       54.39162561394643
C           39.75921819929155       51.36753308741424       53.08981424003247
C           40.58199337630326       52.33263845783929       52.52088968043439
C           41.25545938109413       52.08392568784775       51.33900759965141
C           41.12623768988760       50.86015769848248       50.70755685706636
C           40.29022416632203       49.90022277939965       51.25103194406836
C           39.60775306067911       50.15459578602884       52.42818347815096
C           39.21428281965790       50.51846521338398       55.40007772441028
C           40.67110347394744       50.14518307251281       55.73003484234408
C           41.50893533204883       51.38635145503723       55.88034770301087
C           41.20999849416126       52.35037806164197       56.83621484331790
C           41.93229224199174       53.52808905610898       56.90388506395836
C           42.95912276450585       53.76583723623707       56.00785099773045
C           43.27294561864443       52.80738494924158       55.06179869637753
C           42.55833953107393       51.62535550182766       55.00226914505673
C           40.66344571108081       49.26289756728077       56.98714196434091
C           42.04393889889021       48.96220886685001       57.58379998501252
C           42.97229801875176       48.29548364367955       56.60232123898992
C           44.22745075652827       48.83146914495136       56.34241113717245
C           45.09848758830880       48.21840957262690       55.45834511210937
C           44.72256593287345       47.05016971152720       54.81948513426477
C           43.47668513534827       46.50203954741404       55.07089721073807
C           42.61132594884834       47.11876656362112       55.95620159225300
C           41.84704447414182       48.08342576101568       58.83012455265347
C           43.09550558633446       47.93676092770628       59.71587693450931
C           42.82175546717602       46.83353024532623       60.70699086953112
C           43.44340952318163       45.59883850555691       60.57671469160822
C           43.15172690779141       44.55821843096114       61.44078490300213
C           42.23002207161660       44.74164966788822       62.45551100980648
C           41.61306979896288       45.97133429401455       62.60601797702601
C           41.90531982202976       47.00673019149959       61.73758495264526
C           43.44428166988252       49.26660385839089       60.39948566218902
C           44.46669155621019       49.13366718141520       61.53507962676902
C           44.63859665181349       50.43955070113402       62.26690770352808
C           44.39464992669135       50.51913461720170       63.63131136454788
C           44.70273321101885       51.66572792463747       64.34331737598001
C           45.24717799864592       52.75832068299676       63.69382691953891
C           45.44637819529135       52.70857037628510       62.32384251789045
C           45.14395718871260       51.56062157946170       61.61763949845506
C           45.83688274442426       48.66310421759414       61.02357880063211
C           46.91385922386741       48.75330259339650       62.11266508093880
C           46.54435097334994       47.97289564451461       63.34828314028718
C           46.03964596056315       46.67896528988771       63.28026512220983
C           45.67696619629609       45.99855465363379       64.42836502183025
C           45.81959812291083       46.59916675799298       65.66669704862099
C           46.34873568258065       47.87447616798537       65.75115255263341
C           46.70796723988896       48.55365980694850       64.60052288193405
C           48.28675619187642       48.31422680964305       61.57250713441103
C           49.42729151381120       49.26403230801529       61.98702288545365
C           50.71889464658504       48.51475814496351       61.77767339174437
C           51.11459596118546       48.12629105888025       60.50285137415445
C           52.21647106453297       47.31359879021763       60.31490769307434
C           52.94747506024385       46.87281813733984       61.40451239549631
C           52.57638948265199       47.26560511176847       62.67776211107454
C           51.47121541856320       48.07900059563695       62.86101129955239
C           49.33874571270383       50.58255103160467       61.20592296280097
C           50.28815042758502       51.68161592985034       61.71325482241000
C           50.03988288242071       51.96337337979452       63.17338927661223
C           50.96849827504214       51.56532562982450       64.12799475769742
C           50.75685121952940       51.80335062538610       65.47371423792185
C           49.60596153665698       52.44916818480112       65.88890882496133
C           48.66786545109045       52.84307566608845       64.95188196287482
C           48.88163990010327       52.59734197551531       63.60763012159537
C           50.11800076431524       52.94666068270061       60.85630248330384
C           51.07481527763812       54.08839560337572       61.24502550436947
C           52.50077695603876       53.65832718891432       60.99451791697569
C           53.32044442740412       53.27490445144563       62.04832250790793
C           54.61887980641391       52.85146396400172       61.82013516971809
C           55.13082687712451       52.82992141651241       60.53515144022831
C           54.32860671081562       53.22608721809485       59.47855123562930
C           53.02114213255254       53.61628041554782       59.70472338461564
C           50.73844435870609       55.38926677186001       60.48007598072189
C           50.16513843831001       56.50677176232137       61.36379795450946
C           48.79256370055229       56.20568617691846       61.90817690192354
C           47.70337739765223       56.05965245312693       61.05501539521993
C           46.42003621573104       55.95383574295190       61.55542823916305
C           46.19799642053547       55.98530694054818       62.92306668418881
C           47.27728552488131       56.07225274016990       63.78350116171552
C           48.56186661223607       56.17913089728182       63.27750904326567
C           50.09041105455407       57.82351371125593       60.56677818595692
C           49.77826897216399       59.03185329083896       61.46145395565075
C           50.98768149201994       59.36322689178810       62.30429932053303
C           50.93274937124552       59.28093931628732       63.68963788431873
C           52.04824111306927       59.55120480679039       64.46507411585159
C           53.24316752160286       59.90684584526525       63.86431576657267
C           53.30536335936413       60.01294708164156       62.48509053769459
C           52.18779364288111       59.74863359977671       61.71536936819027
C           49.36607938858995       60.28244091763088       60.66411870329242
C           47.96684245690955       60.25478679016678       60.00983752103512
C           47.92899684138617       61.38689245665113       59.00719309565859
C           47.98700011055102       62.71159423284437       59.42850676096291
C           48.00509131577286       63.75245278597973       58.51679140209369
C           47.97738280206369       63.48748285341794       57.15791131754379
C           47.92442487874390       62.17450690512237       56.72472214978454
C           47.89852918860723       61.13554233692035       57.63941638002286
C           46.84163347537523       60.36251009220231       61.05337507537677
C           45.50013485335542       59.75326757330485       60.61025976658221
C           44.54738804089054       59.68278156892708       61.78079696604969
C           44.22121768457075       60.82005464875424       62.51194340901399
C           43.32690052631204       60.75675413530622       63.56509504971893
C           42.73244414925747       59.55291530061467       63.90432164356796
C           43.04221239160675       58.41497626839889       63.18186613700656
C           43.94134336306971       58.48453768513051       62.13301620657663
C           44.82793607309649       60.52216028519522       59.46098310355030
C           43.70584083754855       59.70372330848115       58.79718958324187
C           44.30588073156391       58.51421325566297       58.08833412014918
C           44.08410276126844       57.22748344006618       58.56474606744804
C           44.67522373915526       56.13293878163522       57.95860385423944
C           45.47905821969224       56.30437479431704       56.84424341101406
C           45.68517884853731       57.57846223708474       56.34183988755045
C           45.11316296870103       58.67245520796246       56.96703534350330
C           42.89636020385385       60.58455524367493       57.83413276471166
C           41.81123503891337       59.79406550353765       57.08777569800121
H           35.11788077857824       58.41131872031815       52.79587935258044
H           34.31279427186988       57.71246833919389       55.11340573458725
H           34.57561704218019       56.04017380571742       54.61995099177454
H           36.96396881171900       56.71470654051794       54.00866671960664
H           37.82896054953759       56.72332031997989       56.31398175028562
H           36.23012251946084       57.05749546605028       56.95024564304555
H           35.39994682505969       54.88145215438907       56.28235270418151
H           36.58168989448151       54.51977359308815       54.19634437481052
H           38.13955567583493       54.44074538930190       55.01732630768090
H           37.36801225729781       52.42324888924666       56.24855752506524
H           37.47343684068833       52.54653042252178       53.23628299338785
H           39.50869029627552       52.56474229015191       54.81232559045002
H           38.71256122549062       50.81129534463259       56.32472133497831
H           38.70199403579349       49.63212691297539       55.02429803219508
H           41.08362957385969       49.56638537173148       54.89573754289405
H           40.07018250902603       49.75512190862575       57.75997897614504
H           40.15656014849350       48.32562018037680       56.75068685726697
H           42.48840662078917       49.91606517680201       57.88472365699009
H           41.03941485384065       48.50342583402172       59.43503707607009
H           41.52930192824439       47.08676997665193       58.51156281186577
H           43.93326041142164       47.63556273520992       59.07804237443890
H           44.09758951969673       48.39136132571655       62.25035277449212
H           45.75670398780494       47.63808137806829       60.66288583152319
H           46.14825021616572       49.28842706646576       60.18435310609035
H           46.99228810331655       49.80218431184609       62.41314192946022
H           48.51671713141257       47.31366907022267       61.94755407250638
H           48.25896400497504       48.26176178979320       60.48243061263975
H           49.32150813603684       49.48215311683981       63.05632605171884
H           49.55457450520745       50.39215735548020       60.15373774031394
H           48.31582037121317       50.95894836736564       61.27073765776413
H           51.31827073208703       51.32248949080220       61.60240170041134
H           50.29206657137892       52.67954568943748       59.81138139030622
H           49.09157470829874       53.30717159876563       60.94568855363033
H           50.95774080879409       54.27236473425440       62.31946692411873
H           51.65204279236941       55.77894418139857       60.02701703808887
H           50.04141622922823       55.17819623735571       59.66804375090933
H           50.85272910699151       56.65418039075485       62.20550737262280
H           51.04319097819489       57.98794565680866       60.06090517720328
H           49.31904963244683       57.72644787768432       59.80488624743502
H           48.95563041751917       58.75718576325627       62.13031351660084
H           49.41234733104702       61.14088541182480       61.33897929628623
H           50.10913155072170       60.45917853976891       59.88224200880180
H           47.84400928910203       59.30976005633921       59.47156600385524
H           47.14786714781946       59.83230859827201       61.95846643288154
H           46.69670276509498       61.40828290568279       61.32413005686346
H           45.69961198415228       58.73168755997045       60.26808810220753
H           44.41361676779513       61.45666938478241       59.84649838546364
H           45.57235646250054       60.77672216223709       58.70700616731398
H           33.83140039531675       54.87489693467328       52.57516264839313
H           34.81673217416206       53.20855843120862       51.05515206187847
H           36.80456149667280       53.77377676725735       49.71606485351370
H           37.76374288112247       56.02956282520054       49.84671934781963
H           36.75656900867375       57.72095771599664       51.34586779135377
H           35.48980777113693       59.16920436884607       56.47272833623369
H           36.20135517009988       61.50239161579724       56.59310313368450
H           37.92767110380372       62.35957456355140       55.04630663343386
H           38.92939422283629       60.84529640644072       53.37980130305015
H           38.23217651501342       58.49720279132757       53.26768038261963
H           39.07325807529377       54.56521054758429       57.05317697440241
H           39.90019987858160       54.08766066943668       59.31925370305667
H           38.34228136299012       53.91723862657884       61.20142675608562
H           35.91341584590761       54.19337527757230       60.81372237613055
H           35.07769482196027       54.66273974152642       58.55043076855976
H           35.03422154444452       52.61047667984219       53.32694834534502
H           32.63721462027853       52.07141531412032       53.50715598231094
H           31.65016856794514       51.55609513000299       55.70329403741934
H           33.07479932224980       51.56071078345014       57.71603523303372
H           35.47877402087449       52.04778660785892       57.52830716299003
H           37.04714631972745       51.00032527149512       53.97968180194721
H           40.70428954025446       53.28880270979572       53.01298254842835
H           41.89209016292850       52.84323338827270       50.91259950408379
H           41.67351243307448       50.65478095540161       49.79873011094510
H           40.16839564792527       48.95003512543474       50.75075021378750
H           38.95091558960035       49.39583415886212       52.82997732004812
H           40.38846457097055       52.19349971161780       57.51903418961192
H           41.68613994709815       54.27194756628492       57.64964645786237
H           43.50826974148100       54.69279835359212       56.04353788685597
H           44.07766334723591       52.99360129676518       54.36655008619807
H           42.80210280715507       50.88231423216657       54.25465288201016
H           44.52827527221704       49.74348668199838       56.83746392619589
H           46.07133112360232       48.65024743539141       55.26850670970341
H           45.39365175518385       46.56728546441698       54.12540569883547
H           43.18298962193096       45.58870820617551       54.57190490735915
H           41.64481920260214       46.67544252712307       56.14966760463567
H           44.16233421561296       45.45116169184145       59.78158901075081
H           43.64317787381081       43.60189199293081       61.32677213898381
H           41.98579719896644       43.92548936351297       63.12085028433702
H           40.89340993146529       46.12620630908680       63.39738960335652
H           41.40709019086663       47.95668268512284       61.86256826902658
H           43.83243761982985       49.95714337672302       59.64983307736854
H           42.53276502106024       49.70791230540187       60.80778036041089
H           43.99227505551072       49.66231873500283       64.15189596660410
H           44.53938226668285       51.69930467658750       65.41148936198563
H           45.52453520367407       53.64318204627705       64.24877273778091
H           45.85769173541023       53.56756336726804       61.81479312762527
H           45.33384262934216       51.52681797310225       60.55486675095906
H           45.91357207960890       46.19842025359803       62.32122366536900
H           45.27854005531687       44.99721835824740       64.35927244150361
H           45.51129304948287       46.08043712695038       66.56232358901151
H           46.46968570691373       48.34844012727498       66.71627191589394
H           47.10832138601818       49.55685695966230       64.67471613489131
H           50.54586353935982       48.44485021297353       59.64418110575725
H           52.49735429419111       47.01559135820091       59.31517702160089
H           53.79321216988624       46.21431501213667       61.26401079010650
H           53.14405811634406       46.92761604589693       63.53207489632729
H           51.17620433012712       48.36638320151054       63.86229215539690
H           51.86762243824418       51.05740916816025       63.80436651126645
H           51.48755757676815       51.48900905638655       66.20451687665182
H           49.44470653403005       52.64038305121235       66.94062671903515
H           47.76548893347870       53.34563888253616       65.26983169783283
H           48.13087794925941       52.90939814603583       62.89767871268846
H           52.93704368917392       53.31313685309438       63.05927642782871
H           55.23803033284472       52.53854285628804       62.64919965790336
H           56.14838238417031       52.51205776313292       60.35754124294289
H           54.73188309746541       53.23177943760113       58.47603221449217
H           52.40118975554661       53.90250517307037       58.86738856449806
H           47.84925125073546       56.04559430592266       59.98433456618383
H           45.58748830778942       55.86294326808179       60.87129403066407
H           45.19162238035473       55.93949463567959       63.31398109090203
H           47.11638461935019       56.07576391314642       64.85325091310258
H           49.39776827445915       56.25904726211680       63.95946775678721
H           50.00328991672306       58.99897077800129       64.16778681372878
H           51.98672574027116       59.47881699222820       65.54239775985606
H           54.11941913163395       60.10239901344202       64.46616203321270
H           54.22863848984126       60.30530904078852       62.00622185727217
H           52.25868390438561       59.85464088848192       60.64266776663007
H           48.02882128779892       62.94181654190837       60.48355077629114
H           48.05303314235339       64.77383395661622       58.86830633645577
H           48.00249890361164       64.29539568654270       56.43978448876636
H           47.90919349334470       61.96945986176558       55.66465069941108
H           47.85130400196381       60.11614218583923       57.28324677497032
H           44.66472544629212       61.77234252918163       62.25850780841110
H           43.08791604717536       61.65241722731871       64.12179775177546
H           42.02858930995260       59.50627255869902       64.72345957448606
H           42.57560295488613       57.47139094858002       63.42566441409059
H           44.17300739017224       57.58978350011137       61.57854394433145
H           45.30021867005858       59.65801124920237       56.56710762058277
H           46.29963648552054       57.72965543510148       55.46499387426512
H           45.93767161466243       55.44574812345202       56.37418135313559
H           44.50496033108644       55.13972218484854       58.34902151413736
H           43.43889404215311       57.08840364062890       59.42164221053815
H           32.58075064269205       56.72299083468734       52.99255700994880
H           32.74513515291953       58.44138876270004       53.34655350362048
H           32.95452702629203       57.85964756509895       51.69385233330720
H           43.02649924143913       59.34361365520224       59.57973642897569
H           42.44023571828672       61.39913085223417       58.40023733199365
H           43.57728295334878       61.03354145013761       57.11005901526280
C           41.37035594848156       60.49498328662408       55.79131741189452
C           40.58727599907468       59.53730617750156       57.93094656137897
C           40.13317185765138       58.24211023770492       58.14379502393128
C           38.96824570763170       57.99599468094919       58.84922604084952
C           38.23494360196899       59.05222594384585       59.35870091906898
C           38.67583147550563       60.34912802849973       59.15875730279735
C           39.83831366207307       60.58752217791625       58.44913795556291
H           40.69697842886902       57.40987320598310       57.74495353699901
H           38.62885533893844       56.98106108297198       59.00031892529248
H           37.32299354346441       58.86519892668760       59.90810123223957
H           38.10711620152034       61.17995366740826       59.55283341033343
H           40.15858162715317       61.60726952399929       58.29052425209118
C           42.40930235085242       60.36668192200979       54.67307501548076
H           40.43449161126378       60.04326996086377       55.45089026253221
H           41.16931827688963       61.55034002932256       55.98819457274547
C           41.90465804609567       60.99335804552492       53.40660799491830
C           41.27240857908074       60.22634289452557       52.43498318553048
C           40.79485857018971       60.80998975884033       51.27393600259374
C           40.93399140970559       62.17276528301036       51.07273810316021
C           41.55435949864368       62.94826991725684       52.03762938705739
C           42.03696069230654       62.36066599775287       53.19360357248044
H           41.15146239081805       59.16378220550849       52.59504954350552
H           40.31061571132639       60.20288345353377       50.52288437586945
H           40.56022270663019       62.62985369126341       50.16764823408132
H           41.66421048154847       64.01332719901188       51.88773019927143
H           42.52792633126014       62.97019105312709       53.94019334473730
H           42.24160721881034       58.82814659173060       56.80500892923377
H           43.33712961391286       60.85430467190876       54.97611543463999
H           42.62030319241317       59.30946422103844       54.50202005805648
C           45.46008102272214       54.16486228804063       67.54860506633348
C           44.46612023623695       55.08131293434908       67.22921601684990
C           44.81334041792046       56.42471273093325       67.13807509904075
C           46.11395828189984       56.83841889405377       67.36255062024084
C           47.09448258848695       55.91397359195821       67.68321754605930
C           46.76239994988408       54.57410149227090       67.77658210084245
C           43.05392806274715       54.61630981768112       66.96295607065092
C           42.06578581270430       55.26706754130898       67.93164478911011
C           42.71193977912044       54.91449240466446       65.49686634551088
C           41.38987751356879       54.33094356683544       64.96819959802558
C           41.23848112086443       54.83630641080428       63.55278745995128
C           42.09031147790404       54.40488061079670       62.54165248311612
C           42.01963448180386       54.95606628477069       61.27540552782365
C           41.09618622092631       55.94874798912669       60.99621706196925
C           40.22643178481343       56.36921721034930       61.98653631756981
C           40.29957531475119       55.81644706279480       63.25358015208018
C           41.36076074288954       52.80147347853920       65.05050285706569
C           40.08310442931479       52.20475012574485       64.44659708900613
C           38.86145777449122       52.66611816820024       65.19844759541161
C           38.65627449789699       52.31849137915265       66.52905321591452
C           37.53178644194158       52.74805980574869       67.20914576158508
C           36.58952758492320       53.53631767427888       66.57063275986631
C           36.78064124695878       53.88797555933504       65.24554297851554
C           37.90626305690732       53.45391151181880       64.56856023745608
C           40.16755393183022       50.67311410429937       64.43215121822367
C           38.93668119333241       50.03621605280752       63.78146333738179
C           38.70473400196875       50.46457486146981       62.35510890908285
C           39.75281598638707       50.71868251370239       61.48031099560388
C           39.51336364733813       51.02680248111587       60.15454317728978
C           38.21743243892632       51.06898202950720       59.67151928055901
C           37.16244155283502       50.82476406963735       60.53283911746549
C           37.40633833675617       50.53267194866547       61.86248598894723
C           39.02372085979342       48.49264270477759       63.82314346163071
C           37.76989128047484       47.86933328092326       64.44732544855330
C           37.63167667972773       48.30923083241086       65.88282122816250
C           38.63671646780489       48.06142557679067       66.81141553791792
C           38.50906880134117       48.48024194301604       68.12288025303289
C           37.37413918935346       49.16074025216277       68.53018480895852
C           36.36909473502033       49.41900380614101       67.61428622218097
C           36.49974219811060       48.99596880182317       66.30340357052144
C           37.81151872533689       46.33930440678737       64.33185628084647
C           36.54830302050792       45.67584955848887       64.89323171434656
C           35.28565185863393       46.25800024449896       64.30446469708167
C           35.12561223661542       46.41448072835086       62.93167909615169
C           33.95263275086227       46.92839654695267       62.40827563850682
C           32.91042232490700       47.27944949308000       63.24925743500202
C           33.05200719912889       47.11775097912158       64.61655776914930
C           34.23144184153105       46.61397821154967       65.13623094771400
C           36.50737803738627       44.15624741131617       64.64327851040285
C           37.70453484151115       43.36490175750797       65.18334514026685
C           37.69976114971728       41.94770194578442       64.66598600608093
C           38.87344030639623       41.38729861127246       64.17813341572190
C           38.91371008461064       40.06927256098589       63.76214564125168
C           37.77399860229003       39.28701676671399       63.81365040531153
C           36.59406001423265       39.83863441951752       64.28296174900197
C           36.55902903244083       41.15422847819888       64.70996307631337
C           37.75769451181307       43.33656964637311       66.72274291996877
C           39.19011135018260       43.14317495164696       67.25467371696288
C           39.16284045032313       42.72391904702438       68.70144360829522
C           39.55859596423049       41.44285297274002       69.06433938192930
C           39.55331912607967       41.04175603178333       70.38807455240125