3536
 energy: -3716.266230712190 gnorm: 0.000725856795 xtb: 6.6.1 (8d0f1dd)
C           60.74497834510090       52.71637668379378       38.70817170581429
C           61.22580858112628       51.50191717547089       39.49618912426005
C           60.02361022667707       50.68593851707401       39.96775909859450
C           62.07370096752506       51.91997315556554       40.70304110292574
C           63.39130302754648       52.63033430602595       40.37555344885039
C           64.34759254053041       51.71212087232514       39.61254214965411
C           64.09756401022264       53.11281613520894       41.65139929748678
C           63.32274273733972       54.09512353313816       42.53966335441086
C           62.80493494155618       55.28905458154480       41.73908262945748
C           64.21530742253401       54.60322504817505       43.68257943076429
C           64.57274500987801       53.56455596642835       44.75244069406244
C           63.36092732800091       53.24446500170599       45.62746160083400
C           65.71200357603253       54.06491821715653       45.65201735872016
C           67.07931432132358       54.27110916303770       44.98601195529389
C           67.50967543456430       53.05622137059824       44.16316474657878
C           68.16194703437355       54.55073688731303       46.04064435816588
C           67.98712661834385       55.82079556602858       46.88065272238211
C           68.05198160491157       57.07608748388398       46.01286438384144
C           69.07485394086954       55.88640466167879       47.96468707887831
C           68.77722636997990       55.07351473586185       49.23488242694550
C           67.73360035060783       55.79517492049846       50.08201903002869
C           70.09559202998645       54.88144809565382       49.99947307677359
C           70.02145493080640       54.24864339930014       51.39612419495266
C           71.41785214304259       54.29184259322326       52.01927926198488
C           69.47867287661558       52.81680884037467       51.34602259956849
C           69.29577251647414       52.16933051545136       52.73300417506236
C           70.33757144626796       51.07234701103496       52.95900664335467
C           67.89338056372399       51.57381814720126       52.91560474797795
C           66.75071067315520       52.59535853227383       52.99613908119873
C           66.80025078863632       53.37350596807087       54.30751575566187
C           65.40711051636835       51.86831907679338       52.85203067054513
C           64.19734803185929       52.76774572964549       52.55873976215646
C           62.91493065308376       51.97182526995557       52.79731560016240
C           64.25446702541920       53.28381429839548       51.11691944394867
C           63.34629518127812       54.47478220613361       50.78772799827997
C           63.25805025222805       54.60375837112197       49.26760216418931
C           63.87678201765180       55.77479376585460       51.40257500925655
C           62.83769961852039       56.90263689250334       51.48422687048624
C           63.56476098566323       58.23682782529730       51.65220780513546
C           61.84450234963788       56.66842338230353       52.63614604079032
C           60.36758211277309       56.92282738851511       52.30571763008174
C           60.14391103698702       58.35249201112406       51.82104525623334
C           59.48951324167517       56.64381025910074       53.54356231303354
C           58.68591717298062       55.33581025577394       53.54086705689998
C           59.60107436371517       54.11504545344410       53.46656538193217
C           57.63368058222365       55.26786497158357       52.42722115587151
C           56.54605480231402       56.34876526322334       52.45668570928154
C           55.82721168007811       56.38952413055014       53.80540625955386
C           55.50414983830947       56.09363638873163       51.35663238200746
C           55.99584665962978       56.21436824744510       49.90937459874078
C           56.40539653604137       57.65195898998210       49.59503692357210
C           54.90691502374924       55.78998816025283       48.91257355695653
C           54.44372613238396       54.33247897667285       49.00617395140855
C           55.57252207231834       53.35844493576205       48.68079005398555
C           53.24592087390011       54.08973435131502       48.07257849864502
C           52.27297318864225       53.01060538804579       48.57873959780575
C           51.74516524415674       52.18021816027162       47.40750473064436
C           51.07465441294765       53.61827741484799       49.32171930776664
C           51.38924939355390       54.49970751957046       50.53546201041743
C           51.91097645828784       53.67366391511372       51.70840939382983
C           50.13974600717484       55.28408284475409       50.97083599716844
C           50.45645167430678       56.62029726441197       51.67222860218128
C           49.83445383653631       56.67719319896536       53.06614839291731
C           49.96117341824233       57.80890784352265       50.83741196055800
C           50.67415027313083       57.95244690393228       49.48505901903431
C           52.01294385975296       58.66465440620627       49.66229200256671
C           49.79653914045528       58.69454006349614       48.46672712917678
C           50.12563119412621       58.37065493840180       47.00095552487826
C           49.58132839206210       59.47558645194470       46.09963134015180
C           49.54016984556644       57.00546505523460       46.61891636778927
C           49.85654259148383       56.48620767457655       45.20739442756025
C           49.15633767056001       55.14048886749693       45.01709754095335
C           51.37051490275348       56.37161041801592       44.99546114911376
C           51.84635138985418       55.72696517918430       43.68468327778300
C           53.36637573008443       55.58439740170995       43.74889747649089
C           51.43281397324542       56.56518814778414       42.47017178171170
C           51.60855485902288       55.89487465459339       41.09818520676014
C           51.54751729274937       56.97073371117640       40.01506615915548
C           50.52328283103115       54.83505083704088       40.88481381709468
C           50.59719288967901       54.02130873734336       39.58530020358975
C           49.35651955962366       53.12961291505849       39.50901594982636
C           51.87545278397244       53.16832188169709       39.48683676166818
C           52.98666429210194       53.77787927624360       38.61822112964482
C           52.62678232745557       53.66960493398016       37.13726915086260
C           54.32946220179510       53.08944290355215       38.89857128923146
C           55.56450676821562       53.80564118300271       38.33312055704418
C           56.81504964673213       52.97246666588926       38.61256033566200
C           55.73840104094540       55.24125902378812       38.85217476516267
C           55.84948636811017       55.37972360846899       40.36860446006449
C           55.93745946402393       56.84145490421099       40.78692269161460
H           60.07890010389856       52.40353022524867       37.90731272624562
H           60.19945433793841       53.39671232051578       39.35948382562491
H           61.57866429932162       53.25278506528866       38.26350572463404
H           56.01559247544627       56.92697623335545       41.86830162082020
H           56.80973201778450       57.31540377805214       40.34125958726261
H           55.04955862701681       57.38184455492535       40.46281255732621
H           56.64197785211570       55.65811697672133       38.39709291657761
H           54.90070910364553       55.85073580400769       38.50556490285754
H           54.45802804244751       52.98092559234686       39.97727235665179
H           54.29902483451762       52.07864075898557       38.48148180883269
H           53.07906338779679       54.83423011018034       38.87597293561583
H           52.61362167325566       52.62606350372164       36.82578869750089
H           51.64396788180261       54.09271358228438       36.94027356118201
H           53.34698674412218       54.20055469064688       36.51916498546512
H           52.25606355274718       52.99683925851436       40.49596005514875
H           51.62153818912968       52.19141371202596       39.07148079862693
H           50.54974393261427       54.12987874747105       41.71890692458174
H           49.55166700909619       55.33792208556270       40.91650867948415
H           55.45474087598498       53.87451668796746       37.24376304307874
H           57.70309628300865       53.48498156303474       38.25128343202153
H           56.93324560469646       52.78911470567679       39.67743794080278
H           56.75182396749408       52.00905690242910       38.11146569134122
H           50.55594411114667       54.70908453339464       38.73564149061412
H           49.33229012887217       52.57981451236954       38.57099577166666
H           49.35541886684013       52.41684811165224       40.33129384336476
H           48.44701287824446       53.72466250471427       39.57328717372084
H           52.58956727505829       55.41608722580639       41.05338451619684
H           52.34143787156000       57.70154262193142       40.15618634413039
H           51.65869455372176       56.54741882135547       39.02005379055295
H           50.59165337752479       57.49023770128754       40.05511204992592
H           50.38343349024141       56.84827113719173       42.56401902165096
H           52.01908203150097       57.48739396227980       42.48757147505185
H           51.41613039523760       54.72509271506585       43.60456613397172
H           53.75298767396806       55.06433834128474       42.87754230764606
H           53.83563362929013       56.56507249421720       43.79838202098466
H           53.65806207895824       55.02039161207396       44.63231025472012
H           51.80672216782101       57.37117747025166       45.04832673793186
H           51.78080351236679       55.78782962976336       45.82389951090079
H           49.43956988583647       57.18897488667476       44.47920198326026
H           48.10624097736559       55.21570148208633       45.29387299355740
H           49.20764987917197       54.81153861790648       43.98237174271632
H           49.61396435843973       54.37923188912681       45.64555906304012
H           49.89230374087260       56.25878698217880       47.33481970365444
H           48.45238109016829       57.06304616486052       46.72404249481625
H           51.21255770113257       58.34004367896848       46.89204740726304
H           49.98976987292132       60.44124026859249       46.38968021033084
H           49.84311343079953       59.29782461051100       45.05998691799565
H           48.49752372096048       59.52998107413062       46.17747162617883
H           48.74504400202955       58.45112291513175       48.64117868226991
H           49.90763446384843       59.76908123684959       48.62721684011186
H           50.87326645034454       56.95065398210902       49.09664531192607
H           52.55856499309184       58.70992710977858       48.72302383310823
H           51.85794808186813       59.68247308063746       50.01514792914075
H           52.63321521886552       58.14452363347930       50.38905998299030
H           48.88761651391754       57.67969382485001       50.67420504436977
H           50.09078536343908       58.73234522292954       51.40778913832173
H           51.54149331941641       56.70880361852171       51.79207372695969
H           50.17369045599040       55.84082723745091       53.67230614616835
H           50.11351906512655       57.59883130462644       53.57284472170197
H           48.74869768176580       56.63670752067041       53.00411578019802
H           49.51431572764840       55.48335313370602       50.09839143960840
H           49.54889664567850       54.65332334855266       51.63757045398559
H           52.15723636259761       55.22093723539194       50.24434908201535
H           52.14574656653053       54.32048977796813       52.55159913221207
H           51.15955664912774       52.95272514343754       52.02608709055657
H           52.80950366101993       53.12346864484832       51.43869192828343
H           50.51844545737897       54.21947790542442       48.59531683206102
H           50.41596000902268       52.80675081739161       49.64302847466382
H           52.80857218828173       52.33396923883708       49.25289225360985
H           52.55855290336713       51.67085661457669       46.89670014241936
H           51.03706024848938       51.42865403989454       47.75035630355610
H           51.23652675924954       52.81972190486280       46.68795880067347
H           52.69310965926739       55.02157499928004       47.93268265890325
H           53.62810115913064       53.80035603570001       47.09039835972493
H           54.11964211240474       54.13801822706636       50.02921808183341
H           56.01004384575895       53.59436379140945       47.71197379999905
H           56.35720083784136       53.40502867534089       49.43186555903202
H           55.19561665573261       52.33777799357873       48.64872354906644
H           54.04188433075103       56.44184096535479       49.06151513610882
H           55.27637029037054       55.97024352452003       47.89883316094557
H           56.86743186588347       55.57032731375391       49.76415343309387
H           57.25213241646899       57.95707012689568       50.20354626787593
H           56.68787529214662       57.74526350478985       48.54891147249499
H           55.58092638225213       58.33611929040377       49.78727776276019
H           55.10127097468673       55.09282519727292       51.52048090806444
H           54.68073602943833       56.80183678148406       51.48899690941251
H           57.00503410496117       57.32669233260518       52.28986613083680
H           55.00175361746268       57.09817945885236       53.77086106904153
H           55.42774344860502       55.40858452917468       54.05366577338972
H           56.49919197256758       56.70017743151466       54.60081494732406
H           58.14367412906942       55.31116535549181       51.46332483783473
H           57.14218749375001       54.29298270896995       52.48807786368324
H           58.16778656226190       55.28386954162131       54.50496540953801
H           60.35166917178189       54.15261104124483       54.25306131568890
H           59.02629950173819       53.19951876722665       53.59326879226313
H           60.10730734609634       54.06647422416580       52.50527421162145
H           60.12676208799205       56.63443233279565       54.43122659453187
H           58.78470108595725       57.46633715035733       53.67423881926197
H           60.07950589843929       56.24957544480791       51.49147323968346
H           59.08610300811050       58.52824186929287       51.63727750884865
H           60.48364994037738       59.06494124611658       52.57093384644768
H           60.67925528538712       58.54384453924860       50.89589117507246
H           61.93133780339998       55.63559284715956       52.97295899068855
H           62.12732234656186       57.30677481029630       53.47627151205634
H           62.28421571120747       56.92735531112305       50.54024905152443
H           64.17597782423434       58.21999935787957       52.55280158890130
H           64.21981972586977       58.42593235233760       50.80407797835306
H           62.86328413000132       59.06242913785231       51.72860183402023
H           64.25734956278973       55.58673254061515       52.40847112496881
H           64.72482309913167       56.11425460258731       50.80256428008949
H           62.34167751836360       54.27796106407389       51.17363006896291
H           64.24482091427467       54.78599655725129       48.84495575801413
H           62.86766924280082       53.68911496969353       48.82776991748648
H           62.60421445187509       55.42037546539905       48.97386668484007
H           65.27816225558205       53.57221909362104       50.87106422436218
H           63.98720653820662       52.45558149999130       50.45862583694633
H           64.20734608522120       53.61354803393675       53.25229006257798
H           62.89912671543853       51.08417188650240       52.16719911921349
H           62.84836774334121       51.65069668599298       53.83508027234532
H           62.03479930298034       52.56681784241931       52.57108611857259
H           65.48243227394298       51.13479772757096       52.04430666725005
H           65.22458081758613       51.30971506703526       53.77361396454879
H           66.86096250932310       53.30493347418638       52.17072379221078
H           65.99856280367807       54.10576752092988       54.35378428539046
H           66.69784070276876       52.69696937086537       55.15182611405367
H           67.74009420879641       53.90852013114429       54.41035237164958
H           67.70784668612033       50.88775717866348       52.08430566750467
H           67.88313301761015       50.97991840862768       53.83306102708241
H           69.44254240197610       52.93496254569868       53.50084585113032
H           70.19230915758338       50.26250374276125       52.24600050744442
H           71.34529980732827       51.46082973363442       52.83335680819571
H           70.25485588890992       50.65929076537493       53.96276094803531
H           68.52135033303730       52.83056161092938       50.82554435603347
H           70.15764269140783       52.20704218180902       50.74525312910827
H           69.35411003266945       54.85057475685990       52.02119334291746
H           71.79977691661853       55.31146154127323       52.03383923264352
H           71.40789287916708       53.92538669128910       53.04251314814280
H           72.11054332462543       53.68176661280649       51.44206835384198
H           70.76578593931090       54.27423401114675       49.38375808793835
H           70.56077949290720       55.86630393098957       50.10423279202991
H           68.38417464890874       54.09387249322288       48.94509184142674
H           66.86974792858908       56.06416816028149       49.47884637927988
H           67.38707504655702       55.16920529153538       50.89958292836768
H           68.15563730742363       56.70720045813196       50.49799707869806
H           70.01729836474550       55.54448173384381       47.52877306883458
H           69.22009048124856       56.92775139892665       48.26305962692172
H           67.00994857584783       55.79260924055212       47.36909473534120
H           67.92532652614241       57.96579526877434       46.62614641696271
H           69.01398958934084       57.14204624054104       45.50807048256367
H           67.26822222051001       57.07745778314390       45.26020672838818
H           68.21173370914380       53.69069776740062       46.71334486494462
H           69.12697339234265       54.61769375022362       45.52907040270191
H           67.02698026177278       55.12879110042544       44.30818341373516
H           68.52159956184227       53.19591504670179       43.78657372120976
H           67.49803592740911       52.15638133594183       44.77442090086122
H           66.85572257873100       52.90474081507941       43.30885251189373
H           65.39339105272010       55.01014375830041       46.09736381278559
H           65.83967955075616       53.34735192213519       46.46618379176100
H           64.89015171714732       52.63687846893945       44.27079898717199
H           63.62112019408631       52.49627860588601       46.37275053720551
H           63.01786750594251       54.13878979384645       46.14355947415834
H           62.54092289369773       52.85185368778684       45.03231966366606
H           65.13217601075955       54.99801295304702       43.23943964974907
H           63.71050148008922       55.43677664562608       44.17896638139063
H           62.46366113406723       53.57734516842442       42.97488244135275
H           63.62912060390226       55.80930973378787       41.25401579704795
H           62.09905743176956       54.97506079667580       40.97588794100174
H           62.29388048818836       55.98939571067101       42.39546199414882
H           64.35607462863321       52.23119192717336       42.24330313076772
H           65.03541623356099       53.59168195185633       41.35265610611415
H           63.18683665358576       53.49878462911717       39.74440286491815
H           65.29188906903865       52.22002663417017       39.42447069276562
H           64.55680415139653       50.81233219105879       40.18860625378212
H           63.93130861611436       51.41742671907509       38.65286854691988
H           61.46004239030665       52.57633957327753       41.32232357097360
H           62.30515907927246       51.03109795726461       41.29503105821768
H           61.82152949223910       50.86655027402741       38.83251071079108
H           59.41485648190712       50.37950762285659       39.12024823067318
H           60.35074784026223       49.79260788141056       40.49362776873068
H           59.40120095049783       51.27779629631894       40.63603154736902
H           54.97539668460136       54.93212979611170       40.84338569007378
H           56.73507091640717       54.85214981023802       40.72555086279799
C           43.72398435577936       70.98890240863506       49.25769432683403
C           44.52287190285648       69.90609340771810       48.53605517556048
C           44.84343265243188       70.36027184408594       47.11186327052063
C           43.76597737696713       68.57319232413478       48.48620341303648
C           43.40764628342731       67.95991181299814       49.84415014645979
C           44.64694136309843       67.78122503195770       50.71962651955152
C           42.74819242169489       66.58329328811780       49.67727908425876
C           41.46915344407923       66.51840410559973       48.83629072611626
C           40.39352501412427       67.44798778021531       49.39724401060111
C           40.91682398571149       65.08410714669324       48.80806646525394
C           41.76023368476432       64.04369335020782       48.05611526657314
C           41.69891591688165       64.29318588169262       46.55085132608610
C           41.25020100954649       62.63996790189519       48.41453783911373
C           42.09930275785560       61.46957205381937       47.90086140918152
C           41.29917214111514       60.17211983423917       48.02628874285580
C           43.42764432961935       61.34192530470791       48.65940154619260
C           44.52035456937179       60.64869930910096       47.83387611291687
C           45.59506769223947       60.07148776242619       48.75220041147201
C           45.14427104095302       61.62980946627506       46.83185754454836
C           45.75622225933309       60.97223394098509       45.58539542708270
C           46.74991801381290       61.93092407383732       44.93633978091669
C           44.65155014727367       60.56435781905924       44.60262957226907
C           45.08685465874790       59.99641059407089       43.24032816258087
C           43.81591271454423       59.63525058233653       42.46749983566011
C           46.00384455518724       58.77754516144812       43.39734108053603
C           46.57193477117929       58.18198361608442       42.09635836758731
C           46.65076354608195       56.65841757098695       42.22988895816994
C           47.96937053441217       58.70678797933616       41.73541839921697
C           48.08422125065538       60.16521248322717       41.27756615993056
C           47.22688279264965       60.43318986680210       40.04052132762580
C           49.55020298151783       60.49720330596831       40.95116190325540
C           50.45678028992894       60.81514853379929       42.15091382797797
C           50.17665242583078       62.22572244648062       42.65989998101595
C           51.91561464905148       60.64249393319669       41.70053914250385
C           53.02459654482536       61.11912196790244       42.64993663373798
C           54.37570217467594       60.84966641346514       41.98602611801012
C           52.94586178563122       60.43639260429419       44.01846424629353
C           54.00918109467455       60.86908484222491       45.04213899809432
C           53.77534410719359       60.09718709206889       46.34023013673132
C           53.94866711144905       62.38551089419575       45.26559858995580
C           54.82283380947294       62.96294478941725       46.38833296283295
C           54.47665200552883       64.44192637489039       46.55845679221011
C           56.31191340943976       62.78589157842564       46.07520967741232
C           57.28821784344084       63.13689153611810       47.20830606525362
C           58.71078474789964       63.14510195055826       46.65114248755016
C           57.14356660612031       62.13968017921077       48.36301597960392
C           58.11631570056237       62.29946348854251       49.53861319758125
C           57.94809476311979       61.09481601859009       50.46284502841395
C           57.87319201262500       63.60221958237175       50.30651219521097
C           58.99209416039260       63.99254153177107       51.28514700930548
C           58.44379975702628       64.96343612903300       52.33019909018444
C           60.17749224275773       64.59520434396200       50.51923406359938
C           61.37501780147521       65.04469728232638       51.36919956760188
C           62.29347722453521       65.91936404179748       50.51502535589080
C           62.13795044006037       63.84769333716898       51.95890129529719
C           62.79198960628901       64.11280473863233       53.32770126693290
C           64.28176708075321       64.43054359380103       53.19192517983377
C           62.62692510511210       62.90998106572004       54.26749704685263
C           61.19705157401341       62.65406492982845       54.76700382548821
C           60.78634920555557       63.68573605301091       55.81412804229253
C           61.12532616929900       61.22820134521833       55.32888298652417
C           59.76682212339608       60.77028712835371       55.87853456543949
C           59.93428002224188       59.36743665007801       56.46229386376439
C           58.69033523801439       60.81388878925942       54.78682452949798
C           57.31750340992987       60.23484260879086       55.15947196088528
C           56.40322920254697       60.30561476684429       53.93727992339261
C           56.71042446888608       60.98415937908106       56.34908363361571
C           55.34761550217418       60.48053883399017       56.84879395114426
C           54.90554168157504       61.36956658549936       58.00873268867507
C           55.43859892829719       59.00870372774707       57.26564666911555
C           54.22467646688645       58.40987320137254       57.98960092126123
C           54.56442947995189       56.96825202141954       58.36570851345284
C           52.96573702941568       58.46359927938437       57.11829718522082
C           51.66368700160492       58.08815195628883       57.83972297677471
C           50.60016248150916       57.72030096744290       56.80787268523215
C           51.16394420044013       59.23601058357907       58.72642946010981
C           50.18059674655157       58.78461142980724       59.81810189698142
C           49.23681002574115       59.92871487505218       60.18156286041769
C           50.94698835973336       58.26371781003301       61.04173285821424
C           50.10358000459449       57.42583288733163       62.01936723102182
C           49.66965640127292       58.24627430401991       63.23543253378024
C           50.87518883190820       56.19544109509678       62.51899879849541
C           51.11182618976299       55.07481538639755       61.49660050661500
C           49.79540955217517       54.42315865727545       61.08544466664379
C           52.06293635972540       54.04497013188693       62.12324158208405
C           52.62742617481752       52.96270476753152       61.19243898813756
C           53.32517276675113       51.90121802998920       62.04160783353186
C           53.58451250136095       53.56360588699469       60.15808065971442
C           54.22713052814905       52.53321330592814       59.23072392692636
C           54.89082946982022       53.19695613950157       58.03080159666658
H           42.75056977637799       71.11860945218309       48.78810049153660
H           43.57104750493326       70.73591806124705       50.30345749492935
H           44.25209846737119       71.93951924903919       49.21491160240252
H           54.14875885667794       53.70460022972446       57.41782217802255
H           55.62325772283541       53.93378221203611       58.35299658076980
H           55.40014211877409       52.45636110221180       57.41771693253439
H           53.03204270618181       54.27484399922328       59.54070842843460
H           54.37065096928400       54.11862167561609       60.67645318958835
H           52.91092382202408       54.57439082868930       62.56535676603407
H           51.52821668296612       53.55352058345277       62.94096287446845
H           51.58187650265603       55.50284110719012       60.60601968967300
H           49.15114344412511       55.13518339938063       60.57711769268334
H           49.96591267157432       53.59333467415519       60.40664379989894
H           49.27167535541894       54.04493056563988       61.96049101811953
H           51.84369426691197       56.53898224948405       62.89370950701890
H           50.33526500702325       55.76652150218886       63.36858256483176
H           51.77688528539834       57.65490018902786       60.68021722020659
H           51.38601025994179       59.11174791259104       61.57394153850042
H           51.80215530346918       52.47709379122261       60.66059944537978
H           52.64923230619313       51.53529305293876       62.81230106075783
H           53.63318468130259       51.05383045755386       61.43488464067612