      -----------------------------------------------------------      
     |                   =====================                   |     
     |                           x T B                           |     
     |                   =====================                   |     
     |                         S. Grimme                         |     
     |          Mulliken Center for Theoretical Chemistry        |     
     |                    University of Bonn                     |     
      -----------------------------------------------------------      

   * xtb version 6.6.1 (8d0f1dd) compiled by 'stahn@M-Bot' on 2023-08-01

   xtb is free software: you can redistribute it and/or modify it under
   the terms of the GNU Lesser General Public License as published by
   the Free Software Foundation, either version 3 of the License, or
   (at your option) any later version.
   
   xtb is distributed in the hope that it will be useful,
   but WITHOUT ANY WARRANTY; without even the implied warranty of
   MERCHANTABILITY or FITNESS FOR A PARTICULAR PURPOSE.  See the
   GNU Lesser General Public License for more details.
   
   Cite this work as:
   * C. Bannwarth, E. Caldeweyher, S. Ehlert, A. Hansen, P. Pracht,
     J. Seibert, S. Spicher, S. Grimme, WIREs Comput. Mol. Sci., 2020, 11,
     e01493. DOI: 10.1002/wcms.1493
   
   for GFN2-xTB:
   * C. Bannwarth, S. Ehlert and S. Grimme., J. Chem. Theory Comput., 2019,
     15, 1652-1671. DOI: 10.1021/acs.jctc.8b01176
   for GFN1-xTB:
   * S. Grimme, C. Bannwarth, P. Shushkov, J. Chem. Theory Comput., 2017,
     13, 1989-2009. DOI: 10.1021/acs.jctc.7b00118
   for GFN0-xTB:
   * P. Pracht, E. Caldeweyher, S. Ehlert, S. Grimme, ChemRxiv, 2019, preprint.
     DOI: 10.26434/chemrxiv.8326202.v1
   for GFN-FF:
   * S. Spicher and S. Grimme, Angew. Chem. Int. Ed., 2020, 59, 15665-15673.
     DOI: 10.1002/anie.202004239
   
   for ALPB and GBSA implicit solvation:
   * S. Ehlert, M. Stahn, S. Spicher, S. Grimme, J. Chem. Theory Comput.,
     2021, 17, 4250-4261. DOI: 10.1021/acs.jctc.1c00471
   
   for DFT-D4:
   * E. Caldeweyher, C. Bannwarth and S. Grimme, J. Chem. Phys., 2017,
     147, 034112. DOI: 10.1063/1.4993215
   * E. Caldeweyher, S. Ehlert, A. Hansen, H. Neugebauer, S. Spicher,
     C. Bannwarth and S. Grimme, J. Chem. Phys., 2019, 150, 154122.
     DOI: 10.1063/1.5090222
   * E. Caldeweyher, J.-M. Mewes, S. Ehlert and S. Grimme, Phys. Chem. Chem. Phys.
     2020, 22, 8499-8512. DOI: 10.1039/D0CP00502A
   
   for sTDA-xTB:
   * S. Grimme and C. Bannwarth, J. Chem. Phys., 2016, 145, 054103.
     DOI: 10.1063/1.4959605
   
   in the mass-spec context:
   * V. Asgeirsson, C. Bauer and S. Grimme, Chem. Sci., 2017, 8, 4879.
     DOI: 10.1039/c7sc00601b
   * J. Koopman and S. Grimme, ACS Omega 2019, 4, 12, 15120-15133.
     DOI: 10.1021/acsomega.9b02011
   
   for metadynamics refer to:
   * S. Grimme, J. Chem. Theory Comput., 2019, 155, 2847-2862
     DOI: 10.1021/acs.jctc.9b00143
   
   for SPH calculations refer to:
   * S. Spicher and S. Grimme, J. Chem. Theory Comput., 2021, 17, 1701-1714
     DOI: 10.1021/acs.jctc.0c01306
   
   with help from (in alphabetical order)
   P. Atkinson, C. Bannwarth, F. Bohle, G. Brandenburg, E. Caldeweyher
   M. Checinski, S. Dohm, S. Ehlert, S. Ehrlich, I. Gerasimov, C. Hölzer
   A. Katbashev, J. Koopman, C. Lavigne, S. Lehtola, F. März, M. Müller,
   F. Musil, H. Neugebauer, J. Pisarek, C. Plett, P. Pracht, F. Pultar,
   J. Seibert, P. Shushkov, S. Spicher, M. Stahn, M. Steiner, T. Strunk,
   J. Stückrath, T. Rose, and J. Unsleber
   
 * started run on 2024/10/04 at 14:12:36.721     

           -------------------------------------------------
          |                Calculation Setup                |
           -------------------------------------------------

          program call               : /home/abt-grimme/AK-bin/xtb input.xyz --input input.inp --opt
          hostname                   : boar085.thch.uni-bonn.de
          coordinate file            : input.xyz
          omp threads                :                     8

   ID    Z sym.   atoms
    1    6 C      1-90, 273-362, 545-634, 817-906, 1089-1178, 1361-1450,
                  1633-1722, 1905-1994, 2177-2266, 2449-2538, 2721-2810,
                  2993-3082, 3265-3354
    2    1 H      91-272, 363-544, 635-816, 907-1088, 1179-1360, 1451-1632,
                  1723-1904, 1995-2176, 2267-2448, 2539-2720, 2811-2992,
                  3083-3264, 3355-3536

molecular fragmentation (1/2 indicates fragments):
111111111111111111111111111111111111111111111111111111111111111111111111
111111111111111111111111111111111111111111111111111111111111111111111111
111111111111111111111111111111111111111111111111111111111111111111111111
111111111111111111111111111111111111111111111111111111112222222222222222
222222222222222222222222222222222222222222222222222222222222222222222222
222222222222222222222222222222222222222222222222222222222222222222222222
222222222222222222222222222222222222222222222222222222222222222222222222
222222222222222222222222222222222222222222222222222222222222222222222222
222222222222222222222222222222222222222222222222222222222222222222222222
222222222222222222222222222222222222222222222222222222222222222222222222
222222222222222222222222222222222222222222222222222222222222222222222222
222222222222222222222222222222222222222222222222222222222222222222222222
222222222222222222222222222222222222222222222222222222222222222222222222
222222222222222222222222222222222222222222222222222222222222222222222222
222222222222222222222222222222222222222222222222222222222222222222222222
222222222222222222222222222222222222222222222222222222222222222222222222
222222222222222222222222222222222222222222222222222222222222222222222222
222222222222222222222222222222222222222222222222222222222222222222222222
222222222222222222222222222222222222222222222222222222222222222222222222
222222222222222222222222222222222222222222222222222222222222222222222222
222222222222222222222222222222222222222222222222222222222222222222222222
222222222222222222222222222222222222222222222222222222222222222222222222
222222222222222222222222222222222222222222222222222222222222222222222222
222222222222222222222222222222222222222222222222222222222222222222222222
222222222222222222222222222222222222222222222222222222222222222222222222
222222222222222222222222222222222222222222222222222222222222222222222222
222222222222222222222222222222222222222222222222222222222222222222222222
222222222222222222222222222222222222222222222222222222222222222222222222
222222222222222222222222222222222222222222222222222222222222222222222222
222222222222222222222222222222222222222222222222222222222222222222222222
222222222222222222222222222222222222222222222222222222222222222222222222
222222222222222222222222222222222222222222222222222222222222222222222222
222222222222222222222222222222222222222222222222222222222222222222222222
222222222222222222222222222222222222222222222222222222222222222222222222
222222222222222222222222222222222222222222222222222222222222222222222222
222222222222222222222222222222222222222222222222222222222222222222222222
222222222222222222222222222222222222222222222222222222222222222222222222
222222222222222222222222222222222222222222222222222222222222222222222222
222222222222222222222222222222222222222222222222222222222222222222222222
222222222222222222222222222222222222222222222222222222222222222222222222
222222222222222222222222222222222222222222222222222222222222222222222222
222222222222222222222222222222222222222222222222222222222222222222222222
222222222222222222222222222222222222222222222222222222222222222222222222
222222222222222222222222222222222222222222222222222222222222222222222222
222222222222222222222222222222222222222222222222222222222222222222222222
222222222222222222222222222222222222222222222222222222222222222222222222
222222222222222222222222222222222222222222222222222222222222222222222222
222222222222222222222222222222222222222222222222222222222222222222222222
222222222222222222222222222222222222222222222222222222222222222222222222
22222222
# atoms in fragment 1/2:   272  3264
 fragment masses (1/2) :     1264.41    15172.94
CMA distance (Bohr)    :  19.611
constraining FC (au)   :  0.0500

           -------------------------------------------------
          |                 G F N 2 - x T B                 |
           -------------------------------------------------

        Reference                      10.1021/acs.jctc.8b01176
      * Hamiltonian:
        H0-scaling (s, p, d)           1.850000    2.230000    2.230000
        zeta-weighting                 0.500000
      * Dispersion:
        s8                             2.700000
        a1                             0.520000
        a2                             5.000000
        s9                             5.000000
      * Repulsion:
        kExp                           1.500000    1.000000
        rExp                           1.000000
      * Coulomb:
        alpha                          2.000000
        third order                    shell-resolved
        anisotropic                    true
        a3                             3.000000
        a5                             4.000000
        cn-shift                       1.200000
        cn-exp                         4.000000
        max-rad                        5.000000


          ...................................................
          :                      SETUP                      :
          :.................................................:
          :  # basis functions                7046          :
          :  # atomic orbitals                7046          :
          :  # shells                         4706          :
          :  # electrons                      7046          :
          :  max. iterations                   250          :
          :  Hamiltonian                  GFN2-xTB          :
          :  restarted?                      false          :
          :  GBSA solvation                  false          :
          :  PC potential                    false          :
          :  electronic temp.          300.0000000     K    :
          :  accuracy                    1.0000000          :
          :  -> integral cutoff          0.2500000E+02      :
          :  -> integral neglect         0.1000000E-07      :
          :  -> SCF convergence          0.1000000E-05 Eh   :
          :  -> wf. convergence          0.1000000E-03 e    :
          :  Broyden damping             0.4000000          :
          ...................................................

 iter      E             dE          RMSdq      gap      omega  full diag
   1  -3766.6990853 -0.376670E+04  0.227E+00   11.41       0.0  T
   2  -3771.7701060 -0.507102E+01  0.126E+00   11.44       1.0  T
   3  -3771.9824239 -0.212318E+00  0.560E-01   11.41       1.0  T
   4  -3772.0042008 -0.217769E-01  0.143E-01   11.42       1.0  T
   5  -3772.0238590 -0.196582E-01  0.512E-02   11.42       1.0  T
   6  -3772.0238792 -0.201824E-04  0.727E-03   11.42       1.0  T
   7  -3772.0239123 -0.331364E-04  0.152E-03   11.42       1.1  T
   8  -3772.0239143 -0.193221E-05  0.551E-04   11.42       3.1  T
   9  -3772.0239144 -0.100235E-06  0.186E-04   11.42       9.0  T
  10  -3772.0239144 -0.161663E-07  0.699E-05   11.42      24.1  T

   *** convergence criteria satisfied after 10 iterations ***

         #    Occupation            Energy/Eh            Energy/eV
      -------------------------------------------------------------
         1        2.0000           -0.6267029             -17.0535
       ...           ...                  ...                  ...
      3517        2.0000           -0.3952451             -10.7552
      3518        2.0000           -0.3951658             -10.7530
      3519        2.0000           -0.3951186             -10.7517
      3520        2.0000           -0.3949292             -10.7466
      3521        2.0000           -0.3945906             -10.7374
      3522        2.0000           -0.3945490             -10.7362
      3523        2.0000           -0.3935770             -10.7098 (HOMO)
      3524                          0.0261353               0.7112 (LUMO)
      3525                          0.0269874               0.7344
      3526                          0.0272262               0.7409
      3527                          0.0284186               0.7733
      3528                          0.0286691               0.7801
       ...                                ...                  ...
      7046                          0.3802220              10.3464
      -------------------------------------------------------------
                  HL-Gap            0.4197123 Eh           11.4210 eV
             Fermi-level           -0.1837209 Eh           -4.9993 eV

 SCC (total)                   0 d,  0 h, 17 min, 21.575 sec
 SCC setup                      ...        0 min,  0.495 sec (  0.047%)
 Dispersion                     ...        0 min,  4.171 sec (  0.400%)
 classical contributions        ...        0 min,  0.160 sec (  0.015%)
 integral evaluation            ...        0 min,  6.928 sec (  0.665%)
 iterations                     ...       12 min, 40.955 sec ( 73.058%)
 molecular gradient             ...        4 min, 17.934 sec ( 24.764%)
 printout                       ...        0 min, 10.932 sec (  1.050%)

         :::::::::::::::::::::::::::::::::::::::::::::::::::::
         ::                     SUMMARY                     ::
         :::::::::::::::::::::::::::::::::::::::::::::::::::::
         :: total energy           -3716.245651847000 Eh    ::
         :: gradient norm              0.018932219066 Eh/a0 ::
         :: HOMO-LUMO gap             11.420952919141 eV    ::
         ::.................................................::
         :: SCC energy             -3772.023914388713 Eh    ::
         :: -> isotropic ES            0.587075723083 Eh    ::
         :: -> anisotropic ES          1.297867280756 Eh    ::
         :: -> anisotropic XC          2.078021236534 Eh    ::
         :: -> dispersion             -4.518502119124 Eh    ::
         :: repulsion energy          55.116332792391 Eh    ::
         :: add. restraining           0.000000000000 Eh    ::
         :: total charge              -0.000000000010 e     ::
         :::::::::::::::::::::::::::::::::::::::::::::::::::::

      ----------------------------------------------------------- 
     |              Fast Inertial Relaxation Engine              |
      ----------------------------------------------------------- 

          ...................................................
          :                      SETUP                      :
          :.................................................:
          :   energy convergence        0.5000000E-05 Eh    :
          :   grad. convergence         0.1000000E-02 Eh/a0 :
          :   optimization log               true           :
          :   writing optlog all                1     steps :
          :   Hessian reset                    20     steps :
          :   time step scaling                 5     steps :
          :   maximium step len.        1.0000000     a0    :
          :   initial time step         0.2500000     fs    :
          :   maximum time step         1.2500000     fs    :
          :   power reset thr           0.0000000     au    :
          :   alpha parameter           0.1000000           :
          :   BFGS update                   false           :
          :   preconditioning               false           :
          ...................................................

........................................................................
.............................. CYCLE    1 ..............................
........................................................................

 iter      E             dE          RMSdq      gap      omega  full diag
   1  -3772.0273694 -0.377203E+04  0.254E-04   11.42       0.0  T
   2  -3772.0273695 -0.278919E-07  0.150E-04   11.42      11.2  T
   3  -3772.0273695 -0.425189E-09  0.488E-05   11.42      34.5  T
     SCC iter.                  ...        3 min, 44.844 sec
     gradient                   ...        4 min, 16.543 sec
 * total energy  : -3716.2456923 Eh     change    :  -0.4043121E-04 Eh
   gradient norm :     0.0175327 Eh/a0  converged?    E=F G=F D=F
   time step     :     0.2500000 fs     power     :   0.2064018E-08
   step length   :     0.0022188 a0     speed     :   0.2146823E-03

........................................................................
.............................. CYCLE    2 ..............................
........................................................................

 iter      E             dE          RMSdq      gap      omega  full diag
   1  -3772.0323954 -0.377203E+04  0.372E-04   11.42       0.0  T
   2  -3772.0323954 -0.564633E-07  0.221E-04   11.42       7.6  T
   3  -3772.0323954 -0.884484E-09  0.685E-05   11.42      24.5  T
     SCC iter.                  ...        3 min, 40.204 sec
     gradient                   ...        4 min, 15.410 sec
 * total energy  : -3716.2457459 Eh     change    :  -0.5361914E-04 Eh
   gradient norm :     0.0155278 Eh/a0  converged?    E=F G=F D=F
   time step     :     0.2500000 fs     power     :   0.2669403E-08
   step length   :     0.0032459 a0     speed     :   0.3140592E-03

........................................................................
.............................. CYCLE    3 ..............................
........................................................................

 iter      E             dE          RMSdq      gap      omega  full diag
   1  -3772.0387677 -0.377204E+04  0.476E-04   11.42       0.0  T
   2  -3772.0387678 -0.905816E-07  0.283E-04   11.42       6.0  T
   3  -3772.0387678 -0.141245E-08  0.864E-05   11.42      19.5  T
     SCC iter.                  ...        3 min, 41.411 sec
     gradient                   ...        4 min, 15.667 sec
 * total energy  : -3716.2458050 Eh     change    :  -0.5909812E-04 Eh
   gradient norm :     0.0130487 Eh/a0  converged?    E=F G=F D=F
   time step     :     0.2500000 fs     power     :   0.2853574E-08
   step length   :     0.0041539 a0     speed     :   0.4019152E-03

........................................................................
.............................. CYCLE    4 ..............................
........................................................................

 iter      E             dE          RMSdq      gap      omega  full diag
   1  -3772.0461910 -0.377205E+04  0.563E-04   11.42       0.0  T
   2  -3772.0461911 -0.123173E-06  0.334E-04   11.42       5.0  T
   3  -3772.0461911 -0.184718E-08  0.100E-04   11.42      16.8  T
     SCC iter.                  ...        3 min, 42.375 sec
     gradient                   ...        4 min, 18.107 sec
 * total energy  : -3716.2458615 Eh     change    :  -0.5650096E-04 Eh
   gradient norm :     0.0103045 Eh/a0  converged?    E=F G=F D=F
   time step     :     0.2500000 fs     power     :   0.2611667E-08
   step length   :     0.0049113 a0     speed     :   0.4751907E-03

........................................................................
.............................. CYCLE    5 ..............................
........................................................................

 iter      E             dE          RMSdq      gap      omega  full diag
   1  -3772.0542906 -0.377205E+04  0.628E-04   11.42       0.0  T
   2  -3772.0542907 -0.147618E-06  0.373E-04   11.42       4.5  T
   3  -3772.0542908 -0.221098E-08  0.109E-04   11.42      15.5  T
     SCC iter.                  ...        3 min, 40.612 sec
     gradient                   ...        4 min, 17.515 sec
 * total energy  : -3716.2459083 Eh     change    :  -0.4680744E-04 Eh
   gradient norm :     0.0076546 Eh/a0  converged?    E=F G=F D=F
   time step     :     0.2500000 fs     power     :   0.2017401E-08
   step length   :     0.0054907 a0     speed     :   0.5312544E-03

........................................................................
.............................. CYCLE    6 ..............................
........................................................................

 iter      E             dE          RMSdq      gap      omega  full diag
   1  -3772.0634460 -0.377206E+04  0.741E-04   11.42       0.0  T
   2  -3772.0634462 -0.192895E-06  0.441E-04   11.42       3.8  T
   3  -3772.0634462 -0.282080E-08  0.122E-04   11.43      13.7  T
     SCC iter.                  ...        3 min, 42.206 sec
     gradient                   ...        4 min, 17.391 sec
 * total energy  : -3716.2459433 Eh     change    :  -0.3495140E-04 Eh
   gradient norm :     0.0056677 Eh/a0  converged?    E=F G=F D=F
   time step     :     0.2750000 fs     power     :   0.1130581E-08
   step length   :     0.0064913 a0     speed     :   0.5709700E-03

........................................................................
.............................. CYCLE    7 ..............................
........................................................................

 iter      E             dE          RMSdq      gap      omega  full diag
   1  -3772.0727594 -0.377207E+04  0.828E-04   11.43       0.0  T
   2  -3772.0727596 -0.206371E-06  0.494E-04   11.43       3.4  T
   3  -3772.0727596 -0.303044E-08  0.122E-04   11.43      13.8  T
     SCC iter.                  ...        3 min, 44.727 sec
     gradient                   ...        4 min, 18.196 sec
 * total energy  : -3716.2459606 Eh     change    :  -0.1737006E-04 Eh
   gradient norm :     0.0057795 Eh/a0  converged?    E=F G=F D=F
   time step     :     0.3025000 fs     power     :   0.2070947E-09
   step length   :     0.0072520 a0     speed     :   0.5798900E-03

........................................................................
.............................. CYCLE    8 ..............................
........................................................................

 iter      E             dE          RMSdq      gap      omega  full diag
   1  -3772.0807279 -0.377208E+04  0.857E-04   11.43       0.0  T
   2  -3772.0807281 -0.163418E-06  0.512E-04   11.43       3.3  T
   3  -3772.0807281 -0.224554E-08  0.101E-04   11.43      16.7  T
     SCC iter.                  ...        3 min, 42.029 sec
     gradient                   ...        4 min, 25.841 sec
 * total energy  : -3716.2459624 Eh     change    :  -0.1812041E-05 Eh
   gradient norm :     0.0074191 Eh/a0  converged?    E=T G=F D=F
   time step     :     0.3327500 fs     power     :  -0.3594988E-09
   step length   :     0.0074781 a0     speed     :   0.5436111E-03

........................................................................
.............................. CYCLE    9 ..............................
........................................................................
 * reset velocities

 iter      E             dE          RMSdq      gap      omega  full diag
   1  -3772.0804522 -0.377208E+04  0.297E-05   11.43       0.0  T
   2  -3772.0804522 -0.110140E-08  0.143E-05   11.43     117.5  T
   3  -3772.0804522 -0.100044E-09  0.784E-06   11.43     214.6  T
     SCC iter.                  ...        3 min, 43.862 sec
     gradient                   ...        4 min, 17.545 sec
 * total energy  : -3716.2459639 Eh     change    :  -0.1423532E-05 Eh
   gradient norm :     0.0072992 Eh/a0  converged?    E=T G=F D=T
   time step     :     0.1663750 fs     power     :   0.1120899E-09
   step length   :     0.0001925 a0     speed     :   0.2799385E-04

........................................................................
.............................. CYCLE   10 ..............................
........................................................................

 iter      E             dE          RMSdq      gap      omega  full diag
   1  -3772.0799052 -0.377208E+04  0.457E-05   11.43       0.0  T
   2  -3772.0799052 -0.556611E-09  0.271E-05   11.43      62.0  T
   3  -3772.0799052 -0.882210E-10  0.743E-06   11.43     226.4  T
     SCC iter.                  ...        3 min, 42.819 sec
     gradient                   ...        4 min, 16.987 sec
 * total energy  : -3716.2459666 Eh     change    :  -0.2761797E-05 Eh
   gradient norm :     0.0070566 Eh/a0  converged?    E=T G=F D=T
   time step     :     0.1663750 fs     power     :   0.2149491E-09
   step length   :     0.0003820 a0     speed     :   0.5553501E-04

........................................................................
.............................. CYCLE   11 ..............................
........................................................................

 iter      E             dE          RMSdq      gap      omega  full diag
   1  -3772.0790983 -0.377208E+04  0.663E-05   11.43       0.0  T
   2  -3772.0790983 -0.134332E-08  0.393E-05   11.43      42.8  T
   3  -3772.0790983  0.563887E-10  0.108E-05   11.43     155.3  T
     SCC iter.                  ...        3 min, 42.736 sec
     gradient                   ...        4 min, 16.860 sec
 * total energy  : -3716.2459705 Eh     change    :  -0.3894427E-05 Eh
   gradient norm :     0.0067025 Eh/a0  converged?    E=T G=F D=T
   time step     :     0.1663750 fs     power     :   0.3019064E-09
   step length   :     0.0005651 a0     speed     :   0.8215818E-04

........................................................................
.............................. CYCLE   12 ..............................
........................................................................

 iter      E             dE          RMSdq      gap      omega  full diag
   1  -3772.0780488 -0.377208E+04  0.866E-05   11.43       0.0  T
   2  -3772.0780488 -0.220780E-08  0.514E-05   11.43      32.7  T
   3  -3772.0780488  0.818545E-11  0.140E-05   11.43     120.4  T
     SCC iter.                  ...        3 min, 44.987 sec
     gradient                   ...        4 min, 16.817 sec
 * total energy  : -3716.2459753 Eh     change    :  -0.4777010E-05 Eh
   gradient norm :     0.0062479 Eh/a0  converged?    E=T G=F D=T
   time step     :     0.1663750 fs     power     :   0.3676123E-09
   step length   :     0.0007390 a0     speed     :   0.1074347E-03

........................................................................
.............................. CYCLE   13 ..............................
........................................................................

 iter      E             dE          RMSdq      gap      omega  full diag
   1  -3772.0767795 -0.377208E+04  0.105E-04   11.43       0.0  T
   2  -3772.0767795 -0.330601E-08  0.625E-05   11.43      26.9  T
   3  -3772.0767795 -0.272848E-11  0.168E-05   11.43     100.2  T
     SCC iter.                  ...        3 min, 44.294 sec
     gradient                   ...        4 min, 15.567 sec
 * total energy  : -3716.2459807 Eh     change    :  -0.5371290E-05 Eh
   gradient norm :     0.0057089 Eh/a0  converged?    E=F G=F D=T
   time step     :     0.1663750 fs     power     :   0.4084613E-09
   step length   :     0.0009008 a0     speed     :   0.1309670E-03

........................................................................
.............................. CYCLE   14 ..............................
........................................................................

 iter      E             dE          RMSdq      gap      omega  full diag
   1  -3772.0753192 -0.377208E+04  0.122E-04   11.43       0.0  T
   2  -3772.0753192 -0.437967E-08  0.725E-05   11.43      23.2  T
   3  -3772.0753192  0.195541E-10  0.192E-05   11.43      87.7  T
     SCC iter.                  ...        3 min, 43.087 sec
     gradient                   ...        4 min, 14.341 sec
 * total energy  : -3716.2459863 Eh     change    :  -0.5636233E-05 Eh
   gradient norm :     0.0051076 Eh/a0  converged?    E=F G=F D=F
   time step     :     0.1663750 fs     power     :   0.4229503E-09
   step length   :     0.0010482 a0     speed     :   0.1523970E-03

........................................................................
.............................. CYCLE   15 ..............................
........................................................................

 iter      E             dE          RMSdq      gap      omega  full diag
   1  -3772.0735231 -0.377207E+04  0.152E-04   11.42       0.0  T
   2  -3772.0735231 -0.665568E-08  0.902E-05   11.42      18.6  T
   3  -3772.0735231 -0.518412E-10  0.236E-05   11.42      71.4  T
     SCC iter.                  ...        3 min, 44.502 sec
     gradient                   ...        4 min, 16.168 sec
 * total energy  : -3716.2459924 Eh     change    :  -0.6138175E-05 Eh
   gradient norm :     0.0044060 Eh/a0  converged?    E=F G=F D=F
   time step     :     0.1830125 fs     power     :   0.4092313E-09
   step length   :     0.0013114 a0     speed     :   0.1733227E-03

........................................................................
.............................. CYCLE   16 ..............................
........................................................................

 iter      E             dE          RMSdq      gap      omega  full diag
   1  -3772.0713834 -0.377207E+04  0.184E-04   11.42       0.0  T
   2  -3772.0713834 -0.934597E-08  0.110E-04   11.42      15.3  T
   3  -3772.0713834 -0.513865E-10  0.278E-05   11.42      60.5  T
     SCC iter.                  ...        3 min, 48.509 sec
     gradient                   ...        4 min, 14.809 sec
 * total energy  : -3716.2459987 Eh     change    :  -0.6230551E-05 Eh
   gradient norm :     0.0036552 Eh/a0  converged?    E=F G=F D=F
   time step     :     0.2013138 fs     power     :   0.3630324E-09
   step length   :     0.0016041 a0     speed     :   0.1927408E-03

........................................................................
.............................. CYCLE   17 ..............................
........................................................................

 iter      E             dE          RMSdq      gap      omega  full diag
   1  -3772.0689387 -0.377207E+04  0.218E-04   11.42       0.0  T
   2  -3772.0689387 -0.122973E-07  0.129E-04   11.42      13.0  T
   3  -3772.0689387 -0.111868E-09  0.313E-05   11.42      53.7  T
     SCC iter.                  ...        3 min, 40.670 sec
     gradient                   ...        4 min, 15.193 sec
 * total energy  : -3716.2460044 Eh     change    :  -0.5756898E-05 Eh
   gradient norm :     0.0029906 Eh/a0  converged?    E=F G=F D=F
   time step     :     0.2214451 fs     power     :   0.2863710E-09
   step length   :     0.0019155 a0     speed     :   0.2092287E-03

........................................................................
.............................. CYCLE   18 ..............................
........................................................................

 iter      E             dE          RMSdq      gap      omega  full diag
   1  -3772.0663177 -0.377207E+04  0.247E-04   11.42       0.0  T
   2  -3772.0663177 -0.142127E-07  0.147E-04   11.42      11.4  T
   3  -3772.0663177 -0.704858E-10  0.328E-05   11.42      51.3  T
     SCC iter.                  ...        3 min, 42.365 sec
     gradient                   ...        4 min, 14.522 sec
 * total energy  : -3716.2460091 Eh     change    :  -0.4721601E-05 Eh
   gradient norm :     0.0026685 Eh/a0  converged?    E=T G=F D=F
   time step     :     0.2435896 fs     power     :   0.1934583E-09
   step length   :     0.0022213 a0     speed     :   0.2205836E-03

........................................................................
.............................. CYCLE   19 ..............................
........................................................................

 iter      E             dE          RMSdq      gap      omega  full diag
   1  -3772.0637873 -0.377206E+04  0.267E-04   11.42       0.0  T
   2  -3772.0637873 -0.136170E-07  0.159E-04   11.42      10.6  T
   3  -3772.0637873 -0.127784E-09  0.306E-05   11.42      55.0  T
     SCC iter.                  ...        3 min, 43.580 sec
     gradient                   ...        4 min, 15.540 sec
 * total energy  : -3716.2460126 Eh     change    :  -0.3474759E-05 Eh
   gradient norm :     0.0028535 Eh/a0  converged?    E=T G=F D=F
   time step     :     0.2679486 fs     power     :   0.1140672E-09
   step length   :     0.0024793 a0     speed     :   0.2238169E-03

........................................................................
.............................. CYCLE   20 ..............................
........................................................................

 iter      E             dE          RMSdq      gap      omega  full diag
   1  -3772.0616950 -0.377206E+04  0.273E-04   11.42       0.0  T
   2  -3772.0616950 -0.102714E-07  0.162E-04   11.42      10.4  T
   3  -3772.0616950 -0.218279E-09  0.244E-05   11.42      68.8  T
     SCC iter.                  ...        3 min, 46.335 sec
     gradient                   ...        4 min, 16.728 sec
 * total energy  : -3716.2460154 Eh     change    :  -0.2730453E-05 Eh
   gradient norm :     0.0033096 Eh/a0  converged?    E=T G=F D=F
   time step     :     0.2947435 fs     power     :   0.7878749E-10
   step length   :     0.0026688 a0     speed     :   0.2190219E-03
 * RMSD in coord.:     0.0006664 a0     energy gain  -0.3635071E-03 Eh

........................................................................
.............................. CYCLE   21 ..............................
........................................................................

 iter      E             dE          RMSdq      gap      omega  full diag
   1  -3772.0606241 -0.377206E+04  0.209E-04   11.42       0.0  T
   2  -3772.0606241 -0.379396E-08  0.124E-04   11.42      13.5  T
   3  -3772.0606241 -0.101409E-09  0.134E-05   11.42     125.4  T
     SCC iter.                  ...        3 min, 46.959 sec
     gradient                   ...        4 min, 15.761 sec
 * total energy  : -3716.2460177 Eh     change    :  -0.2308236E-05 Eh
   gradient norm :     0.0035998 Eh/a0  converged?    E=T G=F D=F
   time step     :     0.2500000 fs     power     :   0.1002762E-09
   step length   :     0.0021602 a0     speed     :   0.2090132E-03

........................................................................
.............................. CYCLE   22 ..............................
........................................................................

 iter      E             dE          RMSdq      gap      omega  full diag
   1  -3772.0602569 -0.377206E+04  0.193E-04   11.42       0.0  T
   2  -3772.0602569 -0.209866E-08  0.114E-04   11.42      14.8  T
   3  -3772.0602569 -0.173259E-09  0.108E-05   11.42     155.4  T
     SCC iter.                  ...        3 min, 46.270 sec
     gradient                   ...        4 min, 18.088 sec
 * total energy  : -3716.2460206 Eh     change    :  -0.2980586E-05 Eh
   gradient norm :     0.0036736 Eh/a0  converged?    E=T G=F D=F
   time step     :     0.2500000 fs     power     :   0.1437883E-09
   step length   :     0.0020894 a0     speed     :   0.2021599E-03

........................................................................
.............................. CYCLE   23 ..............................
........................................................................

 iter      E             dE          RMSdq      gap      omega  full diag
   1  -3772.0605499 -0.377206E+04  0.185E-04   11.42       0.0  T
   2  -3772.0605499 -0.220916E-08  0.108E-04   11.42      15.5  T
   3  -3772.0605499 -0.809450E-10  0.133E-05   11.42     126.9  T
     SCC iter.                  ...        3 min, 46.312 sec
     gradient                   ...        4 min, 15.956 sec
 * total energy  : -3716.2460244 Eh     change    :  -0.3763281E-05 Eh
   gradient norm :     0.0035144 Eh/a0  converged?    E=T G=F D=F
   time step     :     0.2500000 fs     power     :   0.1874351E-09
   step length   :     0.0020686 a0     speed     :   0.2001488E-03

........................................................................
.............................. CYCLE   24 ..............................
........................................................................

 iter      E             dE          RMSdq      gap      omega  full diag
   1  -3772.0614341 -0.377206E+04  0.186E-04   11.42       0.0  T
   2  -3772.0614341 -0.378441E-08  0.108E-04   11.42      15.6  T
   3  -3772.0614341 -0.327418E-10  0.184E-05   11.42      91.6  T
     SCC iter.                  ...        3 min, 43.883 sec
     gradient                   ...        4 min, 18.531 sec
 * total energy  : -3716.2460287 Eh     change    :  -0.4338258E-05 Eh
   gradient norm :     0.0031477 Eh/a0  converged?    E=T G=F D=F
   time step     :     0.2500000 fs     power     :   0.2144642E-09
   step length   :     0.0020936 a0     speed     :   0.2025661E-03

........................................................................
.............................. CYCLE   25 ..............................
........................................................................

 iter      E             dE          RMSdq      gap      omega  full diag
   1  -3772.0628223 -0.377206E+04  0.192E-04   11.42       0.0  T
   2  -3772.0628223 -0.589080E-08  0.111E-04   11.42      15.2  T
   3  -3772.0628223 -0.100044E-10  0.233E-05   11.42      72.1  T
     SCC iter.                  ...        3 min, 42.854 sec
     gradient                   ...        4 min, 16.028 sec
 * total energy  : -3716.2460332 Eh     change    :  -0.4463222E-05 Eh
   gradient norm :     0.0026310 Eh/a0  converged?    E=T G=F D=F
   time step     :     0.2500000 fs     power     :   0.2155562E-09
   step length   :     0.0021483 a0     speed     :   0.2078629E-03

........................................................................
.............................. CYCLE   26 ..............................
........................................................................

 iter      E             dE          RMSdq      gap      omega  full diag
   1  -3772.0648114 -0.377206E+04  0.219E-04   11.42       0.0  T
   2  -3772.0648114 -0.995669E-08  0.126E-04   11.42      13.3  T
   3  -3772.0648114  0.500222E-10  0.302E-05   11.42      55.8  T
     SCC iter.                  ...        3 min, 47.693 sec
     gradient                   ...        4 min, 16.645 sec
 * total energy  : -3716.2460377 Eh     change    :  -0.4488795E-05 Eh
   gradient norm :     0.0020125 Eh/a0  converged?    E=T G=F D=F
   time step     :     0.2750000 fs     power     :   0.1851501E-09
   step length   :     0.0024484 a0     speed     :   0.2153606E-03

........................................................................
.............................. CYCLE   27 ..............................
........................................................................

 iter      E             dE          RMSdq      gap      omega  full diag
   1  -3772.0673292 -0.377207E+04  0.244E-04   11.42       0.0  T
   2  -3772.0673292 -0.136520E-07  0.141E-04   11.42      11.9  T
   3  -3772.0673292 -0.111413E-09  0.353E-05   11.42      47.7  T
     SCC iter.                  ...        3 min, 45.742 sec
     gradient                   ...        4 min, 17.330 sec
 * total energy  : -3716.2460415 Eh     change    :  -0.3785071E-05 Eh
   gradient norm :     0.0015849 Eh/a0  converged?    E=T G=F D=F
   time step     :     0.3025000 fs     power     :   0.1270032E-09
   step length   :     0.0027824 a0     speed     :   0.2224881E-03

........................................................................
.............................. CYCLE   28 ..............................
........................................................................

 iter      E             dE          RMSdq      gap      omega  full diag
   1  -3772.0700758 -0.377207E+04  0.254E-04   11.42       0.0  T
   2  -3772.0700758 -0.141613E-07  0.146E-04   11.42      11.5  T
   3  -3772.0700758 -0.159162E-09  0.352E-05   11.42      47.7  T
     SCC iter.                  ...        3 min, 50.955 sec
     gradient                   ...        4 min, 15.147 sec
 * total energy  : -3716.2460441 Eh     change    :  -0.2630177E-05 Eh
   gradient norm :     0.0017653 Eh/a0  converged?    E=T G=F D=F
   time step     :     0.3327500 fs     power     :   0.6779487E-10
   step length   :     0.0030856 a0     speed     :   0.2243024E-03

........................................................................
.............................. CYCLE   29 ..............................
........................................................................

 iter      E             dE          RMSdq      gap      omega  full diag
   1  -3772.0725266 -0.377207E+04  0.238E-04   11.42       0.0  T
   2  -3772.0725266 -0.949922E-08  0.137E-04   11.42      12.2  T
   3  -3772.0725266  0.500222E-11  0.277E-05   11.42      60.8  T
     SCC iter.                  ...        3 min, 43.842 sec
     gradient                   ...        4 min, 18.293 sec
 * total energy  : -3716.2460461 Eh     change    :  -0.1943926E-05 Eh
   gradient norm :     0.0022602 Eh/a0  converged?    E=T G=F D=F
   time step     :     0.3660250 fs     power     :   0.4514515E-10
   step length   :     0.0032789 a0     speed     :   0.2166848E-03

........................................................................
.............................. CYCLE   30 ..............................
........................................................................

 iter      E             dE          RMSdq      gap      omega  full diag
   1  -3772.0742609 -0.377207E+04  0.211E-04   11.42       0.0  T
   2  -3772.0742609 -0.364935E-08  0.122E-04   11.42      13.8  T
   3  -3772.0742609 -0.718501E-10  0.158E-05   11.42     106.7  T
     SCC iter.                  ...        3 min, 47.717 sec
     gradient                   ...        4 min, 17.510 sec
 * total energy  : -3716.2460485 Eh     change    :  -0.2395206E-05 Eh
   gradient norm :     0.0025716 Eh/a0  converged?    E=T G=F D=F
   time step     :     0.4026275 fs     power     :   0.6601730E-10
   step length   :     0.0034441 a0     speed     :   0.2069110E-03

........................................................................
.............................. CYCLE   31 ..............................
........................................................................

 iter      E             dE          RMSdq      gap      omega  full diag
   1  -3772.0749868 -0.377207E+04  0.193E-04   11.42       0.0  T
   2  -3772.0749868 -0.114733E-08  0.113E-04   11.42      14.8  T
   3  -3772.0749868 -0.522959E-10  0.863E-06   11.42     194.9  T
     SCC iter.                  ...        3 min, 42.483 sec
     gradient                   ...        4 min, 17.411 sec
 * total energy  : -3716.2460523 Eh     change    :  -0.3836994E-05 Eh
   gradient norm :     0.0024820 Eh/a0  converged?    E=T G=F D=F
   time step     :     0.4428903 fs     power     :   0.1061014E-09
   step length   :     0.0037066 a0     speed     :   0.2024390E-03

........................................................................
.............................. CYCLE   32 ..............................
........................................................................

 iter      E             dE          RMSdq      gap      omega  full diag
   1  -3772.0745656 -0.377207E+04  0.202E-04   11.42       0.0  T
   2  -3772.0745656 -0.507407E-08  0.122E-04   11.42      13.8  T
   3  -3772.0745656  0.336513E-10  0.186E-05   11.42      90.2  T
     SCC iter.                  ...        3 min, 44.699 sec
     gradient                   ...        4 min, 17.402 sec
 * total energy  : -3716.2460576 Eh     change    :  -0.5277680E-05 Eh
   gradient norm :     0.0019959 Eh/a0  converged?    E=F G=F D=F
   time step     :     0.4871793 fs     power     :   0.1274392E-09
   step length   :     0.0041448 a0     speed     :   0.2057936E-03

........................................................................
.............................. CYCLE   33 ..............................
........................................................................

 iter      E             dE          RMSdq      gap      omega  full diag
   1  -3772.0731587 -0.377207E+04  0.229E-04   11.42       0.0  T
   2  -3772.0731587 -0.143950E-07  0.140E-04   11.42      12.0  T
   3  -3772.0731587  0.115051E-09  0.342E-05   11.42      49.1  T
     SCC iter.                  ...        3 min, 53.712 sec
     gradient                   ...        4 min, 16.870 sec
 * total energy  : -3716.2460630 Eh     change    :  -0.5440928E-05 Eh
   gradient norm :     0.0015262 Eh/a0  converged?    E=F G=F D=F
   time step     :     0.5358972 fs     power     :   0.1063662E-09
   step length   :     0.0047455 a0     speed     :   0.2141973E-03

........................................................................
.............................. CYCLE   34 ..............................
........................................................................

 iter      E             dE          RMSdq      gap      omega  full diag
   1  -3772.0715757 -0.377207E+04  0.233E-04   11.42       0.0  T
   2  -3772.0715757 -0.175551E-07  0.143E-04   11.42      11.7  T
   3  -3772.0715757 -0.178716E-09  0.376E-05   11.42      44.7  T
     SCC iter.                  ...        3 min, 46.174 sec
     gradient                   ...        4 min, 18.429 sec
 * total energy  : -3716.2460675 Eh     change    :  -0.4491349E-05 Eh
   gradient norm :     0.0017703 Eh/a0  converged?    E=T G=F D=F
   time step     :     0.5894869 fs     power     :   0.7176003E-10
   step length   :     0.0053770 a0     speed     :   0.2206402E-03

........................................................................
.............................. CYCLE   35 ..............................
........................................................................

 iter      E             dE          RMSdq      gap      omega  full diag
   1  -3772.0711219 -0.377207E+04  0.216E-04   11.42       0.0  T
   2  -3772.0711219 -0.785576E-08  0.132E-04   11.42      12.7  T
   3  -3772.0711219 -0.836735E-10  0.208E-05   11.42      80.9  T
     SCC iter.                  ...        3 min, 45.132 sec
     gradient                   ...        4 min, 18.419 sec
 * total energy  : -3716.2460721 Eh     change    :  -0.4610243E-05 Eh
   gradient norm :     0.0020987 Eh/a0  converged?    E=T G=F D=F
   time step     :     0.6484356 fs     power     :   0.7848444E-10
   step length   :     0.0059055 a0     speed     :   0.2202952E-03

........................................................................
.............................. CYCLE   36 ..............................
........................................................................

 iter      E             dE          RMSdq      gap      omega  full diag
   1  -3772.0726445 -0.377207E+04  0.261E-04   11.42       0.0  T
   2  -3772.0726445 -0.317550E-08  0.154E-04   11.42      10.9  T
   3  -3772.0726445 -0.163254E-09  0.156E-05   11.42     107.9  T
     SCC iter.                  ...        3 min, 47.225 sec
     gradient                   ...        4 min, 15.858 sec
 * total energy  : -3716.2460786 Eh     change    :  -0.6452507E-05 Eh
   gradient norm :     0.0018276 Eh/a0  converged?    E=F G=F D=F
   time step     :     0.7132792 fs     power     :   0.1069536E-09
   step length   :     0.0065760 a0     speed     :   0.2230067E-03

........................................................................
.............................. CYCLE   37 ..............................
........................................................................

 iter      E             dE          RMSdq      gap      omega  full diag
   1  -3772.0761066 -0.377208E+04  0.347E-04   11.43       0.0  T
   2  -3772.0761066 -0.151408E-07  0.202E-04   11.43       8.3  T
   3  -3772.0761066 -0.250111E-10  0.360E-05   11.43      46.7  T
     SCC iter.                  ...        3 min, 44.433 sec
     gradient                   ...        4 min, 16.218 sec
 * total energy  : -3716.2460858 Eh     change    :  -0.7259315E-05 Eh
   gradient norm :     0.0013975 Eh/a0  converged?    E=F G=F D=F
   time step     :     0.7846071 fs     power     :   0.9565474E-10
   step length   :     0.0075499 a0     speed     :   0.2327574E-03

........................................................................
.............................. CYCLE   38 ..............................
........................................................................

 iter      E             dE          RMSdq      gap      omega  full diag
   1  -3772.0796573 -0.377208E+04  0.341E-04   11.43       0.0  T
   2  -3772.0796573 -0.182049E-07  0.198E-04   11.43       8.5  T
   3  -3772.0796573 -0.409273E-09  0.371E-05   11.43      45.3  T
     SCC iter.                  ...        3 min, 40.642 sec
     gradient                   ...        4 min, 15.770 sec
 * total energy  : -3716.2460922 Eh     change    :  -0.6393958E-05 Eh
   gradient norm :     0.0017569 Eh/a0  converged?    E=F G=F D=F
   time step     :     0.8630678 fs     power     :   0.7230470E-10
   step length   :     0.0086087 a0     speed     :   0.2412737E-03

........................................................................
.............................. CYCLE   39 ..............................
........................................................................

 iter      E             dE          RMSdq      gap      omega  full diag
   1  -3772.0806276 -0.377208E+04  0.272E-04   11.43       0.0  T
   2  -3772.0806276 -0.772252E-08  0.160E-04   11.43      10.5  T
   3  -3772.0806276 -0.285127E-09  0.270E-05   11.43      62.2  T
     SCC iter.                  ...        3 min, 46.806 sec
     gradient                   ...        4 min, 15.947 sec
 * total energy  : -3716.2461000 Eh     change    :  -0.7774309E-05 Eh
   gradient norm :     0.0016793 Eh/a0  converged?    E=F G=F D=F
   time step     :     0.9493746 fs     power     :   0.9393903E-10
   step length   :     0.0096140 a0     speed     :   0.2449515E-03

........................................................................
.............................. CYCLE   40 ..............................
........................................................................

 iter      E             dE          RMSdq      gap      omega  full diag
   1  -3772.0784467 -0.377208E+04  0.343E-04   11.43       0.0  T
   2  -3772.0784468 -0.244913E-07  0.204E-04   11.43       8.2  T
   3  -3772.0784468  0.128694E-09  0.502E-05   11.43      33.5  T
     SCC iter.                  ...        3 min, 44.174 sec
     gradient                   ...        4 min, 15.727 sec
 * total energy  : -3716.2461089 Eh     change    :  -0.8948840E-05 Eh
   gradient norm :     0.0013871 Eh/a0  converged?    E=F G=F D=F
   time step     :     1.0443120 fs     power     :   0.8511504E-10
   step length   :     0.0110177 a0     speed     :   0.2551977E-03

........................................................................
.............................. CYCLE   41 ..............................
........................................................................

 iter      E             dE          RMSdq      gap      omega  full diag
   1  -3772.0766932 -0.377208E+04  0.357E-04   11.43       0.0  T
   2  -3772.0766932 -0.133764E-07  0.212E-04   11.43       7.9  T
   3  -3772.0766932  0.636646E-11  0.302E-05   11.43      55.6  T
     SCC iter.                  ...        3 min, 44.948 sec
     gradient                   ...        4 min, 14.795 sec
 * total energy  : -3716.2461177 Eh     change    :  -0.8808197E-05 Eh
   gradient norm :     0.0016595 Eh/a0  converged?    E=F G=F D=F
   time step     :     1.1487432 fs     power     :   0.8047642E-10
   step length   :     0.0125339 a0     speed     :   0.2639242E-03

........................................................................
.............................. CYCLE   42 ..............................
........................................................................

 iter      E             dE          RMSdq      gap      omega  full diag
   1  -3772.0789237 -0.377208E+04  0.408E-04   11.43       0.0  T
   2  -3772.0789237 -0.210648E-07  0.236E-04   11.43       7.1  T
   3  -3772.0789237  0.154614E-10  0.470E-05   11.43      35.8  T
     SCC iter.                  ...        3 min, 41.531 sec
     gradient                   ...        4 min, 15.260 sec
 * total energy  : -3716.2461282 Eh     change    :  -0.1050380E-04 Eh
   gradient norm :     0.0012983 Eh/a0  converged?    E=F G=F D=F
   time step     :     1.2500000 fs     power     :   0.8595070E-10
   step length   :     0.0140932 a0     speed     :   0.2727192E-03
 * RMSD in coord.:     0.0017637 a0     energy gain  -0.1128949E-03 Eh

........................................................................
.............................. CYCLE   43 ..............................
........................................................................

 iter      E             dE          RMSdq      gap      omega  full diag
   1  -3772.0794010 -0.377208E+04  0.684E-05   11.43       0.0  T
   2  -3772.0794010 -0.545697E-09  0.403E-05   11.43      41.8  T
   3  -3772.0794010  0.136424E-11  0.643E-06   11.43     261.6  T
     SCC iter.                  ...        3 min, 41.485 sec
     gradient                   ...        4 min, 17.010 sec
 * total energy  : -3716.2461301 Eh     change    :  -0.1881727E-05 Eh
   gradient norm :     0.0012998 Eh/a0  converged?    E=T G=F D=F
   time step     :     0.2500000 fs     power     :   0.9529940E-10
   step length   :     0.0027142 a0     speed     :   0.2626155E-03

........................................................................
.............................. CYCLE   44 ..............................
........................................................................

 iter      E             dE          RMSdq      gap      omega  full diag
   1  -3772.0798224 -0.377208E+04  0.648E-05   11.43       0.0  T
   2  -3772.0798224 -0.586169E-09  0.380E-05   11.43      44.3  T
   3  -3772.0798224 -0.118234E-10  0.783E-06   11.43     214.9  T
     SCC iter.                  ...        3 min, 42.341 sec
     gradient                   ...        4 min, 15.516 sec
 * total energy  : -3716.2461321 Eh     change    :  -0.2007800E-05 Eh
   gradient norm :     0.0012209 Eh/a0  converged?    E=T G=F D=F
   time step     :     0.2500000 fs     power     :   0.1028531E-09
   step length   :     0.0026367 a0     speed     :   0.2551180E-03

........................................................................
.............................. CYCLE   45 ..............................
........................................................................

 iter      E             dE          RMSdq      gap      omega  full diag
   1  -3772.0801270 -0.377208E+04  0.726E-05   11.43       0.0  T
   2  -3772.0801270 -0.701220E-09  0.426E-05   11.43      39.4  T
   3  -3772.0801270 -0.172804E-10  0.777E-06   11.43     216.4  T
     SCC iter.                  ...        3 min, 43.095 sec
     gradient                   ...        4 min, 16.430 sec
 * total energy  : -3716.2461342 Eh     change    :  -0.2069065E-05 Eh
   gradient norm :     0.0010982 Eh/a0  converged?    E=T G=F D=F
   time step     :     0.2500000 fs     power     :   0.1050413E-09
   step length   :     0.0025887 a0     speed     :   0.2504724E-03

........................................................................
.............................. CYCLE   46 ..............................
........................................................................

 iter      E             dE          RMSdq      gap      omega  full diag
   1  -3772.0802820 -0.377208E+04  0.823E-05   11.43       0.0  T
   2  -3772.0802820 -0.621185E-09  0.483E-05   11.43      34.8  T
   3  -3772.0802820 -0.236469E-10  0.779E-06   11.43     215.9  T
     SCC iter.                  ...        3 min, 43.120 sec
     gradient                   ...        4 min, 16.620 sec
 * total energy  : -3716.2461362 Eh     change    :  -0.2019322E-05 Eh
   gradient norm :     0.0009975 Eh/a0  converged?    E=T G=T D=F
   time step     :     0.2500000 fs     power     :   0.1019270E-09
   step length   :     0.0025654 a0     speed     :   0.2482130E-03

   *** GEOMETRY OPTIMIZATION CONVERGED AFTER 46 CYCLES ***

------------------------------------------------------------------------
 total energy gain   :        -0.0004844 Eh       -0.3040 kcal/mol
 total RMSD          :         0.0022273 a0        0.0012 Å
 total power (kW/mol):        -0.0276465 (step)   -0.0001 (real)
------------------------------------------------------------------------

 FIRE (total)                  0 d,  6 h, 26 min, 21.527 sec
 setup                          ...        0 min,  0.140 sec (  0.001%)
 velocities                     ...        0 min,  0.003 sec (  0.000%)
 propagation                    ...        0 min,  0.005 sec (  0.000%)
 singlepoint calculation        ...      386 min, 20.513 sec ( 99.996%)
 log and printout               ...        0 min,  0.760 sec (  0.003%)
 preconditioner                 ...        0 min,  0.000 sec (  0.000%)
 model hessian                  ...        0 min,  0.000 sec (  0.000%)
 hessian update                 ...        0 min,  0.000 sec (  0.000%)

================
 final structure:
================
3536
 xtb: 6.6.1 (8d0f1dd)
C           60.74563171290257       52.71752311858143       38.70770188489612
C           61.22641912393343       51.50277836507375       39.49545777719573
C           60.02430366498551       50.68595161074252       39.96642053797924
C           62.07373646097554       51.92038028032444       40.70301975668760
C           63.39141533830452       52.63087889490595       40.37506891265945
C           64.34716191304841       51.71215404626263       39.61257861746312
C           64.09770065825812       53.11255189048249       41.65121148699147
C           63.32206956782890       54.09448484703408       42.53937910180991
C           62.80515937208184       55.28915646267615       41.73882210862804
C           64.21481611391600       54.60342769893224       43.68214125878641
C           64.57255281500477       53.56454239308123       44.75173292028406
C           63.35997082269809       53.24424477882878       45.62650693559764
C           65.71181454018661       54.06500700471167       45.65171432409031
C           67.07943783176871       54.27095316915286       44.98544626936791
C           67.50937961442813       53.05565466956352       44.16328593704227
C           68.16166225070094       54.55016399741404       46.04071555389223
C           67.98608307090339       55.82028638110235       46.88080704926597
C           68.05175285887547       57.07543748545230       46.01271947391023
C           69.07457007971672       55.88640710633427       47.96432344148829
C           68.77737288336812       55.07307896229984       49.23432924107745
C           67.73363927655734       55.79580683570057       50.08136763357606
C           70.09556905368967       54.88136837638069       49.99934935196666
C           70.02087114525527       54.24926646946125       51.39642463068206
C           71.41745009006043       54.29171876907328       52.01914908078548
C           69.47842394714164       52.81695069851511       51.34571753042719
C           69.29585300648529       52.16987091529289       52.73308909841872
C           70.33680460624770       51.07239727069079       52.95927045481426
C           67.89357834265802       51.57347963750593       52.91556376547910
C           66.75102909494245       52.59537354886955       52.99574206087497
C           66.80010625424659       53.37321716703825       54.30769921986805
C           65.40748862954395       51.86773109514807       52.85179973701138
C           64.19761641307751       52.76753708770617       52.55911273216159
C           62.91513809048018       51.97073273558017       52.79714719919700
C           64.25464283706206       53.28355474052633       51.11692434417694
C           63.34567123264799       54.47436371170535       50.78769576579583
C           63.25838239910996       54.60334582822905       49.26722679685150
C           63.87691006355654       55.77447051935263       51.40255247014098
C           62.83784555250743       56.90266161374469       51.48349424113180
C           63.56524814072186       58.23676815349848       51.65235124873603
C           61.84476237301227       56.66826189464786       52.63595568536589
C           60.36765195504746       56.92246915645114       52.30462274586458
C           60.14442218255509       58.35274672799608       51.82070585268335
C           59.48967729259542       56.64393857502622       53.54308587155099
C           58.68551602674111       55.33592303067545       53.54089016829406
C           59.60095919791170       54.11510018428632       53.46618069330670
C           57.63366876311742       55.26802372895971       52.42646748296746
C           56.54617248891999       56.34942739095359       52.45635000707077
C           55.82693940305908       56.38956740056775       53.80517671704410
C           55.50395022021171       56.09380027124054       51.35638089085423
C           55.99594591663826       56.21462215610668       49.90885964816245
C           56.40450583013124       57.65281726152431       49.59483500041202
C           54.90613061942705       55.79050093989290       48.91250705569377
C           54.44320152957247       54.33260919316258       49.00715462702275
C           55.57240277377728       53.35885030679640       48.68088522479644
C           53.24566767750520       54.08983119683694       48.07279430174609
C           52.27292236737306       53.01026379050975       48.57912480362117
C           51.74512338116403       52.18029388480248       47.40730060016240
C           51.07428587592580       53.61864444339748       49.32152576510236
C           51.38958162456552       54.50058168474649       50.53515452219435
C           51.91040952933098       53.67394558748139       51.70857671609367
C           50.13944058622777       55.28478596845107       50.97027523331230
C           50.45640446798659       56.62111960799963       51.67187180049320
C           49.83357852264140       56.67782643872555       53.06566836454807
C           49.96021741651528       57.80965222488115       50.83711778164614
C           50.67359800802920       57.95246489726024       49.48463182714929
C           52.01235785094311       58.66539745131617       49.66246883354162
C           49.79578464212744       58.69467919567026       48.46633359283135
C           50.12591337230933       58.37061305340979       47.00054839733630
C           49.58096054974858       59.47574064010425       46.09967262969159
C           49.53984023782271       57.00520558870886       46.61887397994902
C           49.85596321114561       56.48638019260056       45.20687997601317
C           49.15635653873900       55.14027944766728       45.01668800647080
C           51.37028911588177       56.37199963842971       44.99522856727062
C           51.84561197639024       55.72686248800081       43.68415950703189
C           53.36597081179720       55.58495829033424       43.74907855746959
C           51.43247581593705       56.56540609634377       42.46954416688111
C           51.60887098101091       55.89453369636890       41.09753786505286
C           51.54693226086885       56.97080646562608       40.01473498184900
C           50.52306431673036       54.83483274475605       40.88481891964545
C           50.59707299783284       54.02150929781610       39.58493161279893
C           49.35657324925418       53.12964335464034       39.50961213204383
C           51.87561563965463       53.16862829575553       39.48697490768111
C           52.98674145532926       53.77888718297519       38.61815002252834
C           52.62715772542186       53.66977408933045       37.13738700023060
C           54.32943650854490       53.08977977083553       38.89899353716606
C           55.56430317827003       53.80600934300692       38.33262237638831
C           56.81512206742494       52.97294653018989       38.61219127985721
C           55.73855022243710       55.24201355604390       38.85084569016024
C           55.85044667527610       55.38021659547453       40.36755288200371
C           55.93885899186961       56.84239706594560       40.78562848292348
H           60.07945303496417       52.40399087592930       37.90739366978394
H           60.20013100609168       53.39819614727249       39.35906057594936
H           61.57972261566788       53.25306755620525       38.26337206298046
H           56.01665796383474       56.92832144862749       41.86717923485451
H           56.81156887737014       57.31570061772225       40.34033388787713
H           55.05101360772087       57.38222365224362       40.46126222225865
H           56.64224363189918       55.65835562866024       38.39652550058499
H           54.90077104954479       55.85120287554171       38.50549542107181
H           54.45819554670187       52.98111025682301       39.97779333568093
H           54.29902364386359       52.07932532238162       38.48196177346372
H           53.07959871672404       54.83459160313468       38.87702033436806
H           52.61556002460190       52.62620047420298       36.82699828540012
H           51.64412392170956       54.09187206616865       36.94154773490443
H           53.34716587873147       54.20174421306599       36.52040874385978
H           52.25589140191719       52.99670050058413       40.49631279363540
H           51.62198130297112       52.19207315284550       39.07132659260191
H           50.54992254697444       54.12978773403681       41.71906003843664
H           49.55246576547925       55.33834206833716       40.91642841504366
H           55.45389630959480       53.87418045939935       37.24427173949174
H           57.70277943865369       53.48603283922418       38.25111097753366
H           56.93349548887875       52.78974493169935       39.67724669307865
H           56.75163376221549       52.00963645718842       38.11138153125048
H           50.55664157980240       54.70920242423030       38.73632631713042
H           49.33275174540854       52.58012367947907       38.57176202865570
H           49.35646654081926       52.41742847579167       40.33251650303345
H           48.44776057784131       53.72505935877166       39.57461643156068
H           52.58975355550851       55.41611369699891       41.05421103334357
H           52.34119279518864       57.70104583568904       40.15637198265406
H           51.65781832394288       56.54629269121153       39.02074895976261
H           50.59094295895984       57.48907312303284       40.05654009195645
H           50.38335537330438       56.84776705504063       42.56395486899646
H           52.01936323898024       57.48693567196133       42.48807330406525
H           51.41601691005614       54.72529825121021       43.60518570221621
H           53.75233175736081       55.06508504332378       42.87778084718349
H           53.83447526666274       56.56595270812866       43.79886180439760
H           53.65749313638465       55.02120927829060       44.63283670496633
H           51.80655267571434       57.37141449980258       45.04777896761178
H           51.78076173323440       55.78834384182151       45.82361521136758
H           49.43979558027674       57.18933911894264       44.47985790212240
H           48.10662208717155       55.21555461608384       45.29354823242040
H           49.20872617263569       54.81221242023107       43.98210298447903
H           49.61466609890337       54.37953922638236       45.64530900858585
H           49.89232062427057       56.25876154823514       47.33462753123391
H           48.45266905309489       57.06365644837591       46.72409866602841
H           51.21261541269104       58.33969215109276       46.89255452033947
H           49.98987188237333       60.44081376272512       46.39071256860330
H           49.84333690305314       59.29722079650314       45.06064827264955
H           48.49757161745990       59.52909455140784       46.17876507180404
H           48.74501982475325       58.45016453445201       48.64081932966049
H           49.90751375766845       59.76884017644728       48.62691330342145
H           50.87284013922697       56.95096042285434       49.09670096661732
H           52.55803878408370       58.71021987749972       48.72332880511737
H           51.85600648822020       59.68296003351355       50.01483119348441
H           52.63205327392485       58.14567591911263       50.38997744728669
H           48.88709963661312       57.68004517335139       50.67419607257785
H           50.09106950179940       58.73238703704251       51.40740238359868
H           51.54088308909240       56.70941484939442       51.79182765985520
H           50.17328675763563       55.84116902271929       53.67113584960027
H           50.11330490618274       57.59934510799146       53.57180714153051
H           48.74811038398595       56.63753894279530       53.00233563003177
H           49.51464509050410       55.48407087409442       50.09788562897253
H           49.54954207233090       54.65406880868345       51.63734064163645
H           52.15736659661087       55.22146474197414       50.24444210934366
H           52.14473553106390       54.32085900333489       52.55176947318503
H           51.15819195982188       52.95347466432212       52.02470076145817
H           52.80876336629135       53.12381287635064       51.43853236804585
H           50.51904439755479       54.21986982316484       48.59526259967503
H           50.41639726461174       52.80761774875067       49.64387223578643
H           52.80823092977558       52.33466061095080       49.25350235071873
H           52.55912237870190       51.67116739220315       46.89747129381413
H           51.03704433252773       51.42938552873338       47.75072634899634
H           51.23734096731948       52.82045621093197       46.68815475802053
H           52.69332563581088       55.02151643595016       47.93310508502515
H           53.62875854450466       53.79954646423987       47.09183886663871
H           54.11934415925470       54.13840760721963       50.02991721006739
H           56.00907379399678       53.59651433897161       47.71242951959002
H           56.35661273795653       53.40547351974068       49.43232348804113
H           55.19482577733988       52.33864727842043       48.64810136313098
H           54.04168002596823       56.44236658294941       49.06193778344812
H           55.27557734485809       55.96956532230359       47.89908407547846
H           56.86682696079676       55.57073349151850       49.76336250055524
H           57.25134835859789       57.95688590023970       50.20344413925739
H           56.68636628020276       57.74528600107706       48.54871150389202
H           55.57975850843389       58.33635195304280       49.78788741560238
H           55.10177024646742       55.09312039041451       51.52069408992667
H           54.68172720616345       56.80250636628899       51.48901662822734
H           57.00490474226854       57.32660186331378       52.28950524300350
H           55.00128360021987       57.09764593533659       53.76964826481227
H           55.42811222566888       55.40832783852738       54.05322233703557
H           56.49927780919751       56.70040684559939       54.60003589569269
H           58.14385121043335       55.31214428122081       51.46318618670387
H           57.14202169691804       54.29367588412173       52.48778655833713
H           58.16725530894349       55.28404611195524       54.50432173247611
H           60.35084637656416       54.15348647976354       54.25310222096824
H           59.02597240113825       53.19986051741553       53.59284771649219
H           60.10675501479705       54.06770512094620       52.50488075887643
H           60.12712683153703       56.63345755449280       54.43015059525704
H           58.78506802639018       57.46627330829741       53.67350130332681
H           60.07935612221137       56.24938754208384       51.49132603332214
H           59.08659230763850       58.52822504330090       51.63738390645189
H           60.48491192030109       59.06396835223712       52.57105048454692
H           60.67983807936809       58.54306204179111       50.89564564386152
H           61.93121862647696       55.63558475452872       52.97288833777774
H           62.12664761071202       57.30740672833438       53.47535414851203
H           62.28377758854936       56.92657178427014       50.54062672187051
H           64.17511978342932       58.21876932266868       52.55361076953394
H           64.22049981794436       58.42445354542844       50.80450494946144
H           62.86340021534161       59.06204274960022       51.72834027714027
H           64.25651797106431       55.58667130681209       52.40846420362402
H           64.72396705585192       56.11388638669836       50.80220750328601
H           62.34153173209272       54.27767684767389       51.17385156836745
H           64.24545513908434       54.78559956031760       48.84645650249625
H           62.86821215385915       53.68842410857022       48.82814167622006
H           62.60425940867461       55.41966289954307       48.97379457046120
H           65.27768931487284       53.57295536654224       50.87203534491280
H           63.98713019983713       52.45552094800760       50.45896535574725
H           64.20711668282358       53.61304021615203       53.25223887138828
H           62.90086718411707       51.08295084000164       52.16742760228907
H           62.84785870336617       51.64965024438938       53.83490293531488
H           62.03478916768618       52.56528324753813       52.57023986824935
H           65.48170057735534       51.13498918717160       52.04389177298386
H           65.22419176069711       51.30964375450306       53.77331846986181
H           66.86029924332443       53.30496850320123       52.17092791577446
H           65.99822620035077       54.10542815059655       54.35464396544102
H           66.69802024790710       52.69596373806236       55.15143053289847
H           67.73977163595322       53.90804465312094       54.40961855122978
H           67.70718021097872       50.88808752648136       52.08438720385277
H           67.88211171302952       50.98056211113677       53.83331936052737
H           69.44107577007499       52.93555949768081       53.50051294950039
H           70.19021772108547       50.26297573352345       52.24637025092656
H           71.34373583976736       51.46160281000302       52.83332694794047
H           70.25347109728543       50.65981632667111       53.96309202084190
H           68.52117466431729       52.82972084640250       50.82502795571604
H           70.15803766925998       52.20746943065072       50.74642774327804
H           69.35264200800833       54.85047001114554       52.02115197934586
H           71.79905058078621       55.31117502665300       52.03333863023390
H           71.40727290882211       53.92509311302748       53.04214144298744
H           72.10835292920667       53.68128854178091       51.44098446231364
H           70.76445642829594       54.27313833865813       49.38456606661699
H           70.55986851427669       55.86604169534337       50.10401031268537
H           68.38301230719705       54.09411127810858       48.94537814150699
H           66.86952687500312       56.06507258290243       49.47836724408421
H           67.38650053066820       55.17066853684619       50.89955060757982
H           68.15556569601695       56.70809257510616       50.49672042726007
H           70.01597992100862       55.54399216909984       47.52845445145659
H           69.21863477008519       56.92756179015431       48.26307853980893
H           67.00902197440722       55.79189998502312       47.36962137806791
H           67.92545850229583       57.96494930405594       46.62624182362333
H           69.01393536498472       57.13963749314433       45.50899619337038
H           67.26822028099816       57.07698319625619       45.25993705411317
H           68.21149256626414       53.69012079740067       46.71313694336388
H           69.12556645864643       54.61868134928445       45.52896374091635
H           67.02641800229398       55.12855323711392       44.30881160519355
H           68.52091236902980       53.19618328151670       43.78734478707005
H           67.49785387599516       52.15634703505002       44.77509864351148
H           66.85534688898761       52.90434007786862       43.30918992051195
H           65.39227220157947       55.00973991538780       46.09716668831267
H           65.83846288534887       53.34715434559584       46.46575125756821
H           64.88924528819263       52.63695469857810       44.27084237749188
H           63.62038370505949       52.49758118360305       46.37331693311961
H           63.01412004715197       54.13881024500314       46.14104104156625
H           62.54077346508080       52.84928300188072       45.03144384118962
H           65.13146962375357       54.99724543582870       43.23937516271407
H           63.70931324061766       55.43617004528754       44.17899609156411
H           62.46312500564379       53.57694546518619       42.97503590731535
H           63.63030813879968       55.80823475006945       41.25507106490209
H           62.09931145305009       54.97632188187698       40.97501106091465
H           62.29398703207207       55.98970190460153       42.39519359812355
H           64.35517122460307       52.23103615825102       42.24321900336832
H           65.03430309961344       53.59227772586225       41.35286018645697
H           63.18600497405291       53.49929835056242       39.74505656505054
H           65.29086075902380       52.22048394368736       39.42503598824158
H           64.55571302514862       50.81263099891802       40.18894327204574
H           63.93030856599769       51.41820079532046       38.65316571990342
H           61.45940582345437       52.57591682960339       41.32279975088793
H           62.30498684569925       51.03125028327031       41.29449525553210
H           61.82199865168833       50.86798650771592       38.83245487521562
H           59.41612250911486       50.37963432883043       39.11859265116954
H           60.35182143636017       49.79279408485186       40.49228804216627
H           59.40118550465458       51.27719103871769       40.63494962994235
H           54.97660060372051       54.93300856115700       40.84305641301824
H           56.73601432951934       54.85265048734625       40.72430237600933
C           43.72351836816649       70.98784168403206       49.25812344652842
C           44.52322032332750       69.90551053648082       48.53687856194804
C           44.84261095428279       70.35966633113468       47.11268169629864
C           43.76584697086985       68.57284161166071       48.48599833848229
C           43.40716261408998       67.96009879977099       49.84398281134983
C           44.64673529056912       67.78135187384760       50.71963724050389
C           42.74792990065028       66.58311912199319       49.67779754741856
C           41.46885227202910       66.51843529174734       48.83655731258915
C           40.39358023180269       67.44757985672956       49.39853533538486
C           40.91689191424068       65.08402136060070       48.80867438919924
C           41.76114060910479       64.04398928740224       48.05678843376196
[...]
  3287   6 C     3288   6 C                                       1.5273858
  3287   6 C     3289   6 C                                       1.5337245
  3289   6 C     3290   6 C                                       1.5349472
  3290   6 C     3291   6 C                                       1.5289388
  3290   6 C     3292   6 C                                       1.5327602
  3293   6 C     3294   6 C                                       1.5287399
  3293   6 C     3295   6 C                                       1.5353611
  3295   6 C     3296   6 C                                       1.5323220
  3296   6 C     3297   6 C                                       1.5287636
  3296   6 C     3298   6 C                                       1.5374662
  3298   6 C     3299   6 C                                       1.5336582
  3299   6 C     3300   6 C                                       1.5286956
  3299   6 C     3301   6 C                                       1.5377537
  3301   6 C     3302   6 C                                       1.5338487
  3302   6 C     3303   6 C                                       1.5287604
  3302   6 C     3304   6 C                                       1.5381797
  3304   6 C     3305   6 C                                       1.5331196
  3305   6 C     3306   6 C                                       1.5289025
  3305   6 C     3307   6 C                                       1.5355815
  3307   6 C     3308   6 C                                       1.5380579
  3308   6 C     3309   6 C                                       1.5260577
  3308   6 C     3310   6 C                                       1.5371371
  3310   6 C     3311   6 C                                       1.5364132
  3311   6 C     3312   6 C                                       1.5314310
  3311   6 C     3313   6 C                                       1.5366478
  3313   6 C     3314   6 C                                       1.5316110
  3314   6 C     3315   6 C                                       1.5285307
  3314   6 C     3316   6 C                                       1.5358045
  3316   6 C     3317   6 C                                       1.5354688
  3317   6 C     3318   6 C                                       1.5253491
  3317   6 C     3319   6 C                                       1.5347130
  3319   6 C     3320   6 C                                       1.5356303
  3320   6 C     3321   6 C                                       1.5299253
  3320   6 C     3322   6 C                                       1.5342042
  3323   6 C     3324   6 C                                       1.5303896
  3323   6 C     3325   6 C                                       1.5346371
  3325   6 C     3326   6 C                                       1.5330069
  3326   6 C     3327   6 C                                       1.5280698
  3326   6 C     3328   6 C                                       1.5367292
  3328   6 C     3329   6 C                                       1.5348869
  3329   6 C     3330   6 C                                       1.5286629
  3329   6 C     3331   6 C                                       1.5356956
  3331   6 C     3332   6 C                                       1.5333632
  3332   6 C     3333   6 C                                       1.5296545
  3332   6 C     3334   6 C                                       1.5361470
  3334   6 C     3335   6 C                                       1.5339674
  3335   6 C     3336   6 C                                       1.5278089
  3335   6 C     3337   6 C                                       1.5385338
  3337   6 C     3338   6 C                                       1.5355911
  3338   6 C     3339   6 C                                       1.5268850
  3338   6 C     3340   6 C                                       1.5363036
  3340   6 C     3341   6 C                                       1.5391794
  3341   6 C     3342   6 C                                       1.5277922
  3341   6 C     3343   6 C                                       1.5342598
  3343   6 C     3344   6 C                                       1.5380800
  3344   6 C     3345   6 C                                       1.5301386
  3344   6 C     3346   6 C                                       1.5332013
  3346   6 C     3347   6 C                                       1.5371451
  3347   6 C     3348   6 C                                       1.5285640
  3347   6 C     3349   6 C                                       1.5333726
  3349   6 C     3350   6 C                                       1.5350312
  3350   6 C     3351   6 C                                       1.5291704
  3350   6 C     3352   6 C                                       1.5353682
  3352   6 C     3353   6 C                                       1.5270177
  3353   6 C     3354   6 C                                       1.5238854
  3265   6 C     3355   1 H                                       1.0871198
  3265   6 C     3356   1 H                                       1.0879134
  3265   6 C     3357   1 H                                       1.0873709
  3354   6 C     3358   1 H                                       1.0876138
  3354   6 C     3359   1 H                                       1.0881442
  3354   6 C     3360   1 H                                       1.0876353
  3352   6 C     3361   1 H                                       1.0943114
  3352   6 C     3362   1 H                                       1.0921319
  3349   6 C     3363   1 H                                       1.0907898
  3349   6 C     3364   1 H                                       1.0934684
  3347   6 C     3365   1 H                                       1.0915487
  3348   6 C     3366   1 H                                       1.0863407
  3348   6 C     3367   1 H                                       1.0880265
  3348   6 C     3368   1 H                                       1.0884253
  3346   6 C     3369   1 H                                       1.0911166
  3346   6 C     3370   1 H                                       1.0924545
  3343   6 C     3371   1 H                                       1.0927978
  3343   6 C     3372   1 H                                       1.0935339
  3350   6 C     3373   1 H                                       1.0960130
  3351   6 C     3374   1 H                                       1.0872906
  3351   6 C     3375   1 H                                       1.0882259
  3351   6 C     3376   1 H                                       1.0873589
  3344   6 C     3377   1 H                                       1.0932525
  3345   6 C     3378   1 H                                       1.0882137
  3345   6 C     3379   1 H                                       1.0864731
  3345   6 C     3380   1 H                                       1.0881581
  3341   6 C     3381   1 H                                       1.0925782
  3342   6 C     3382   1 H                                       1.0880852
  3342   6 C     3383   1 H                                       1.0866897
  3342   6 C     3384   1 H                                       1.0881094
  3340   6 C     3385   1 H                                       1.0925274
  3340   6 C     3386   1 H                                       1.0924599
  3338   6 C     3387   1 H                                       1.0939506
  3339   6 C     3388   1 H                                       1.0888703
  3339   6 C     3389   1 H                                       1.0864123
  3339   6 C     3390   1 H                                       1.0858631
  3337   6 C     3391   1 H                                       1.0927416
  3337   6 C     3392   1 H                                       1.0927111
  3335   6 C     3393   1 H                                       1.0932395
  3336   6 C     3394   1 H                                       1.0880522
  3336   6 C     3395   1 H                                       1.0865625
  3336   6 C     3396   1 H                                       1.0880186
  3334   6 C     3397   1 H                                       1.0928591
  3334   6 C     3398   1 H                                       1.0937919
  3332   6 C     3399   1 H                                       1.0927478
  3333   6 C     3400   1 H                                       1.0867601
  3333   6 C     3401   1 H                                       1.0879376
  3333   6 C     3402   1 H                                       1.0882887
  3331   6 C     3403   1 H                                       1.0912430
  3331   6 C     3404   1 H                                       1.0922475
  3329   6 C     3405   1 H                                       1.0926393
  3330   6 C     3406   1 H                                       1.0880910
  3330   6 C     3407   1 H                                       1.0888755
  3330   6 C     3408   1 H                                       1.0878812
  3328   6 C     3409   1 H                                       1.0915722
  3328   6 C     3410   1 H                                       1.0922024
  3326   6 C     3411   1 H                                       1.0939018
  3327   6 C     3412   1 H                                       1.0880000
  3327   6 C     3413   1 H                                       1.0862223
  3327   6 C     3414   1 H                                       1.0881598
  3325   6 C     3415   1 H                                       1.0923500
  3325   6 C     3416   1 H                                       1.0938480
  3323   6 C     3417   1 H                                       1.0919281
  3324   6 C     3418   1 H                                       1.0877802
  3324   6 C     3419   1 H                                       1.0881535
  3324   6 C     3420   1 H                                       1.0886020
  3322   6 C     3421   1 H                                       1.0904874
  3322   6 C     3422   1 H                                       1.0923767
  3320   6 C     3423   1 H                                       1.0925657
  3321   6 C     3424   1 H                                       1.0883477
  3321   6 C     3425   1 H                                       1.0881234
  3321   6 C     3426   1 H                                       1.0866284
  3319   6 C     3427   1 H                                       1.0934261
  3319   6 C     3428   1 H                                       1.0933193
  3317   6 C     3429   1 H                                       1.0929739
  3318   6 C     3430   1 H                                       1.0868546
  3318   6 C     3431   1 H                                       1.0874980
  3318   6 C     3432   1 H                                       1.0873581
  3316   6 C     3433   1 H                                       1.0928780
  3316   6 C     3434   1 H                                       1.0933195
  3314   6 C     3435   1 H                                       1.0921210
  3315   6 C     3436   1 H                                       1.0877911
  3315   6 C     3437   1 H                                       1.0886885
  3315   6 C     3438   1 H                                       1.0862925
  3313   6 C     3439   1 H                                       1.0907162
  3313   6 C     3440   1 H                                       1.0927613
  3311   6 C     3441   1 H                                       1.0916073
  3312   6 C     3442   1 H                                       1.0881892
  3312   6 C     3443   1 H                                       1.0871216
  3312   6 C     3444   1 H                                       1.0862049
  3310   6 C     3445   1 H                                       1.0930657
  3310   6 C     3446   1 H                                       1.0927514
  3308   6 C     3447   1 H                                       1.0928891
  3309   6 C     3448   1 H                                       1.0866891
  3309   6 C     3449   1 H                                       1.0870696
  3309   6 C     3450   1 H                                       1.0867106
  3307   6 C     3451   1 H                                       1.0934174
  3307   6 C     3452   1 H                                       1.0941749
  3305   6 C     3453   1 H                                       1.0928665
  3306   6 C     3454   1 H                                       1.0882146
  3306   6 C     3455   1 H                                       1.0885260
  3306   6 C     3456   1 H                                       1.0861905
  3304   6 C     3457   1 H                                       1.0922296
  3304   6 C     3458   1 H                                       1.0935824
  3302   6 C     3459   1 H                                       1.0923843
  3303   6 C     3460   1 H                                       1.0871724
  3303   6 C     3461   1 H                                       1.0880604
  3303   6 C     3462   1 H                                       1.0878070
  3301   6 C     3463   1 H                                       1.0920325
  3301   6 C     3464   1 H                                       1.0939896
  3299   6 C     3465   1 H                                       1.0928631
  3300   6 C     3466   1 H                                       1.0876049
  3300   6 C     3467   1 H                                       1.0863894
  3300   6 C     3468   1 H                                       1.0877939
  3298   6 C     3469   1 H                                       1.0918478
  3298   6 C     3470   1 H                                       1.0934944
  3296   6 C     3471   1 H                                       1.0919101
  3297   6 C     3472   1 H                                       1.0881575
  3297   6 C     3473   1 H                                       1.0882272
  3297   6 C     3474   1 H                                       1.0866622
  3295   6 C     3475   1 H                                       1.0912146
  3295   6 C     3476   1 H                                       1.0931673
  3293   6 C     3477   1 H                                       1.0934497
  3294   6 C     3478   1 H                                       1.0874775
  3294   6 C     3479   1 H                                       1.0869976
  3294   6 C     3480   1 H                                       1.0883613
  3292   6 C     3481   1 H                                       1.0893995
  3292   6 C     3482   1 H                                       1.0925597
  3290   6 C     3483   1 H                                       1.0933441
  3291   6 C     3484   1 H                                       1.0872905
  3291   6 C     3485   1 H                                       1.0884850
  3291   6 C     3486   1 H                                       1.0879399
  3289   6 C     3487   1 H                                       1.0922398
  3289   6 C     3488   1 H                                       1.0934052
  3287   6 C     3489   1 H                                       1.0928531
  3288   6 C     3490   1 H                                       1.0873080
  3288   6 C     3491   1 H                                       1.0879506
  3288   6 C     3492   1 H                                       1.0862458
  3286   6 C     3493   1 H                                       1.0925361
  3286   6 C     3494   1 H                                       1.0925626
  3284   6 C     3495   1 H                                       1.0932672
  3285   6 C     3496   1 H                                       1.0882324
  3285   6 C     3497   1 H                                       1.0867029
  3285   6 C     3498   1 H                                       1.0879648
  3283   6 C     3499   1 H                                       1.0928353
  3283   6 C     3500   1 H                                       1.0910752
  3281   6 C     3501   1 H                                       1.0941383
  3282   6 C     3502   1 H                                       1.0885037
  3282   6 C     3503   1 H                                       1.0867430
  3282   6 C     3504   1 H                                       1.0865213
  3280   6 C     3505   1 H                                       1.0935869
  3280   6 C     3506   1 H                                       1.0936788
  3278   6 C     3507   1 H                                       1.0928034
  3279   6 C     3508   1 H                                       1.0885056
  3279   6 C     3509   1 H                                       1.0868647
  3279   6 C     3510   1 H                                       1.0886205
  3277   6 C     3511   1 H                                       1.0900791
  3277   6 C     3512   1 H                                       1.0922856
  3275   6 C     3513   1 H                                       1.0940020
  3276   6 C     3514   1 H                                       1.0880982
  3276   6 C     3515   1 H                                       1.0866951
  3276   6 C     3516   1 H                                       1.0883926
  3274   6 C     3517   1 H                                       1.0935124
  3274   6 C     3518   1 H                                       1.0933620
  3272   6 C     3519   1 H                                       1.0941145
  3273   6 C     3520   1 H                                       1.0867874
  3273   6 C     3521   1 H                                       1.0879237
  3273   6 C     3522   1 H                                       1.0865345
  3271   6 C     3523   1 H                                       1.0935223
  3271   6 C     3524   1 H                                       1.0934798
  3269   6 C     3525   1 H                                       1.0929067
  3270   6 C     3526   1 H                                       1.0882758
  3270   6 C     3527   1 H                                       1.0867504
  3270   6 C     3528   1 H                                       1.0879649
  3268   6 C     3529   1 H                                       1.0921178
  3268   6 C     3530   1 H                                       1.0932161
  3266   6 C     3531   1 H                                       1.0935363
  3267   6 C     3532   1 H                                       1.0878294
  3267   6 C     3533   1 H                                       1.0880774
  3267   6 C     3534   1 H                                       1.0862389
  3353   6 C     3535   1 H                                       1.0909364
  3353   6 C     3536   1 H                                       1.0905859

 * 2 distinct bonds (by element types)

   Z      Z             #   av. dist./Å        max./Å        min./Å
   1 H    6 C        2366     1.0900614     1.0975504     1.0843116
   6 C    6 C        1119     1.5325932     1.5401185     1.5227433


optimized geometry written to: xtbopt.xyz


           -------------------------------------------------
          | TOTAL ENERGY            -3716.246136226947 Eh   |
          | GRADIENT NORM               0.000997477158 Eh/α |
          | HOMO-LUMO GAP              11.427804484717 eV   |
           -------------------------------------------------

------------------------------------------------------------------------
 * finished run on 2024/10/04 at 21:06:11.390     
------------------------------------------------------------------------
 total:
 * wall-time:     0 d,  6 h, 53 min, 34.657 sec
 *  cpu-time:     1 d, 13 h,  6 min,  4.844 sec
 * ratio c/w:     5.382 speedup
 SCF:
 * wall-time:     0 d,  0 h, 17 min, 21.716 sec
 *  cpu-time:     0 d,  1 h, 52 min, 11.456 sec
 * ratio c/w:     6.462 speedup
 ANC optimizer:
 * wall-time:     0 d,  6 h, 34 min, 44.499 sec
 *  cpu-time:     1 d, 11 h, 12 min,  6.524 sec
 * ratio c/w:     5.351 speedup

