3536
 energy: -3716.256068912046 gnorm: 0.000969884855 xtb: 6.6.1 (8d0f1dd)
C           55.87469812136656       66.12200702360458       37.42540860482165
C           55.88636506507257       66.60099322677570       38.87496899899985
C           57.04317709450289       67.57710940217940       39.09036745894839
C           56.02261152432865       65.43570191212366       39.86108772845759
C           54.90642756636660       64.38525579063500       39.82965675101830
C           53.54065319948139       65.01138322197509       40.11355592147603
C           55.17166503880435       63.28843663178980       40.87201714180850
C           56.40451812413935       62.41008775085395       40.62877110591451
C           56.26324741532981       61.60728000705475       39.33514507612208
C           56.61971165983066       61.42971294918799       41.79145429515739
C           56.84874438902594       62.05149349543454       43.17419023131424
C           57.98843927233441       63.06933248648453       43.14466407256242
C           57.19483541825780       60.97370408681630       44.21224793882703
C           56.18217794723284       59.83508411855282       44.37513385382098
C           54.78728420780212       60.37423925828348       44.69496015555550
C           56.60343532736943       58.88502688049912       45.50661351968962
C           58.02596072338293       58.31867273814954       45.43293880257721
C           58.28502273837391       57.60373299468044       44.10613393727475
C           58.27679891447971       57.33423542515937       46.58574787030842
C           58.07973643371554       57.88395829716313       48.00295845960336
C           58.93451037783983       59.12818582937292       48.24673004035244
C           58.44505750132851       56.83395277069860       49.06179905281638
C           57.65508843576473       55.51705574059849       49.04917197068464
C           56.17091833984948       55.76356615789932       49.30231596550488
C           58.27056212081769       54.60222325604834       50.11799765838323
C           57.71613107454756       53.17595635547673       50.25198366112360
C           58.45967110259124       52.49323497286095       51.40008695309783
C           57.86056103655358       52.38471927659885       48.94888370077079
C           57.29900452407941       50.95531340681826       48.95466607171447
C           57.52306472253228       50.34071354155840       47.57253612248047
C           55.84072304584199       50.84653885060331       49.43644788634335
C           54.79313254751301       51.76499403642625       48.78601903567021
C           53.68011928345156       52.04625492363407       49.79712491288516
C           54.19408839640995       51.16106554237533       47.50853160436899
C           53.54643531645845       52.19561400963819       46.57386957693090
C           52.62240670077129       51.49068951854843       45.58327652274233
C           54.62970301658704       53.00050807689252       45.84574662208433
C           54.15467372068760       54.16144427141774       44.95798941667202
C           55.38502256734455       54.80560112357075       44.32030141388401
C           53.35533061716037       55.18653867629795       45.76925168154068
C           52.82817520981707       56.41139750265923       45.00534556515395
C           52.16186944050375       57.35400963666779       46.00717579534296
C           51.85829582398404       55.98121080083566       43.89681974766072
C           51.07171899870504       57.09968477119433       43.19579292127350
C           50.09841542285730       56.46173892572303       42.20410981180056
C           52.01872210686442       58.08247515050268       42.49737414633764
C           51.36880590338736       59.33852030817182       41.89769793076167
C           52.39488010096267       60.05131154285399       41.01615242208329
C           50.85856398033540       60.27861629610883       42.99734509810330
C           49.86967104807945       61.34833647491829       42.51461919685703
C           49.65173962770825       62.37428399188925       43.62749060573291
C           48.53164944201099       60.72363604109682       42.07289650984811
C           48.11835885570678       61.07876729654532       40.64025523081860
C           47.74496005495437       62.55822511765564       40.54160797332261
C           46.92569921306375       60.23429080161375       40.16737396892808
C           47.19498961330431       58.75278508255497       39.86003449184329
C           48.17769284391452       58.59541762263163       38.70373240387377
C           45.84566451254901       58.09229373228723       39.53832670508964
C           45.84605462909331       56.59124234395398       39.21236330880406
C           44.45096385411115       56.21491385676932       38.70883488369632
C           46.22656228988387       55.73768459481916       40.42819838200371
C           46.57120620085807       54.28085599089663       40.08381115631558
C           46.49357145964797       53.42638647701760       41.34879047201140
C           47.96008133212460       54.15615895139361       39.42866252145034
C           47.97703078564786       53.34718674853457       38.12460907022238
C           47.52829401856752       51.90704580959912       38.36557550102459
C           49.38521831739619       53.34027581989618       37.51185057492391
C           49.79344672897337       54.64863096236340       36.81857312852372
C           49.30174966075625       54.66296417950964       35.37278841145181
C           51.31715527662925       54.82906085644028       36.87227961908241
C           51.79803345142265       55.29646795209379       38.25500603368467
C           51.74327825074974       56.81971502387208       38.34229328794370
C           53.20020190992501       54.76583906888837       38.57795719581001
C           53.58136599573191       54.91220130473408       40.06315775724120
C           54.60588053655398       56.02963847074471       40.26059503249926
C           54.16019980454215       53.61714889474082       40.64852900926375
C           53.23668220753743       52.39246028443085       40.66692349686743
C           51.91190204296421       52.68034438798155       41.37310121406275
C           53.92424406983479       51.22075832362654       41.38403451169230
C           55.27526714815875       50.77336605517225       40.81576979867157
C           55.17031194595496       50.39676856503640       39.33815243785504
C           55.82005386004101       49.56809895198720       41.59479196291606
C           56.11515141194898       49.79428460199746       43.08300985093232
C           57.09909591962759       50.94377159472295       43.28583960120362
C           56.68760170886572       48.50998297783320       43.69968411664156
C           55.63044029748167       47.44630877310675       44.02098286707047
C           55.03045442389325       47.70253848318679       45.40161962560322
C           56.22533978379889       46.03341431426106       43.97662327470827
C           56.47350704807797       45.48739738193073       42.56956754315334
C           55.18987546490868       45.17162592475775       41.81012438104571
H           55.86044311997374       66.97239516701747       36.74694373186514
H           56.76443357915370       65.53156364102880       37.21471966764673
H           54.99871170001445       65.51257001477019       37.21922417329201
H           55.42227504726777       44.72620135025645       40.84548965466425
H           54.57733986068743       44.46870475048038       42.37056963400043
H           54.60585143289067       46.07099674391445       41.63113909043508
H           57.16639911011643       46.03620417732996       44.53132771651870
H           55.54622580362623       45.35263190836671       44.49413297735796
H           57.43043138357032       48.10080056579625       43.01361790717623
H           57.21212930240824       48.76095433233373       44.62394774690928
H           55.18371213134846       50.03805914669342       43.60311951341309
H           58.00601885814229       50.76539074393033       42.71422855187475
H           56.67030565749906       51.89094888011250       42.96892126298212
H           57.37124405859171       51.02889179864739       44.33583965511829
H           55.10774351492547       48.74595279019174       41.49419611099804
H           56.74884581274931       49.24795154179947       41.11404753373549
H           54.06179124122463       51.50909761709169       42.42804816159391
H           53.24744375877672       50.36175580838342       41.36773088047193
H           54.82354309877073       47.50838902837241       43.28618681372068
H           54.64076591706503       48.71441685737314       45.47550424311357
H           54.21679812487096       47.01031160256716       45.60048238535509
H           55.78759593747083       47.56821415391209       46.17170062890981
H           55.99207090472746       51.59311881766597       40.90622540755875
H           54.91123637722807       51.25848019692678       38.72869017081497
H           56.12006387286684       50.00582196068075       38.97747165889348
H           54.40964001071858       49.63270942468804       39.19651327793520
H           53.00727652344026       52.08827340669643       39.64170695478590
H           52.08522720538390       53.07587555953980       42.37135223907638
H           51.31670368361861       53.39874244037031       40.81677017125057
H           51.32973767019730       51.76648414957918       41.46977334031875
H           55.05841166855178       53.37210418530465       40.07876746014475
H           54.46894167819389       53.81991798546109       41.67698471924970
H           52.68512882702824       55.17552949121524       40.63129222117021
H           54.78432143666868       56.20696524743683       41.31989257347434
H           55.55197651859422       55.75639345143034       39.80017114300324
H           54.26268571515411       56.95845142138764       39.81229325691388
H           53.23539642941212       53.71147993716012       38.30126109729086
H           53.93232139251452       55.28333581536145       37.95434998289263
H           51.10912786428761       54.88964397814412       39.00304062510762
H           52.50534930818171       57.26414074899505       37.70450860849041
H           50.77316932915718       57.18573127514945       38.01578598693580
H           51.90206400143808       57.15811984850379       39.36256628513330
H           51.78529835890865       53.87726026894209       36.61090174808739
H           51.62680844761184       55.55843939857395       36.12132132897118
H           49.33019189322204       55.49258146182186       37.33858485644100
H           48.23044052512540       54.48040074272875       35.32900182080917
H           49.50254912231388       55.62587806075532       34.90777628923983
H           49.80502257993582       53.89134304435840       34.79323248725349
H           50.09699160217204       53.10314463057211       38.30549581338703
H           49.44918771877254       52.53537257697167       36.77544115812840
H           47.28260725442995       53.81169357333233       37.41566205228564
H           46.50994999945661       51.87104573459990       38.74313951222305
H           47.56376916601049       51.33412605452567       37.44094785783393
H           48.18391899221808       51.42954064208722       39.09173655322967
H           48.35089581265687       55.15331037481894       39.22338304744075
H           48.64862916346632       53.68702708676190       40.13592320569320
H           45.81743624950303       53.91052995481714       39.38417876563723
H           46.76295570609289       52.39445814990624       41.13960089870128
H           47.17447217051490       53.81252958191047       42.10526173508676
H           45.48466518881038       53.43692674480454       41.75470179788469
H           47.08193381957490       56.17961973132902       40.94115901357769
H           45.38725145857990       55.74572236175506       41.12833405319253
H           46.55647413511890       56.39900296912504       38.40412813013694
H           44.19550220303987       56.79315331576607       37.82351495180708
H           44.39548096303712       55.16148729385411       38.44758693003806
H           43.70443042314180       56.41600345365973       39.47499380891264
H           45.17518567878583       58.25203804892634       40.38649149637101
H           45.41487073574063       58.62091309467942       38.68362888620177
H           47.61900232636873       58.27625572345188       40.74865032679885
H           49.12503622475921       59.07937640405259       38.92703608003359
H           48.38106170615976       57.54471458877321       38.51566736946616
H           47.77068941958650       59.03614558096179       37.79595177288367
H           46.14692747164362       60.29050623460566       40.93159054715964
H           46.52351049177661       60.69169888256143       39.25952329713483
H           48.97037647526513       60.90106457607347       39.97732322530136
H           48.56813954840374       63.19122240124582       40.86238480506646
H           47.49529254757158       62.82324743522856       39.51634811739522
H           46.88180597716737       62.77342258288922       41.16923617601194
H           48.60240151701615       59.63914691228449       42.15787656404197
H           47.73919963952033       61.04848144877568       42.75101814114672
H           50.31548564502312       61.86949387314527       41.66234793423214
H           50.58885671660282       62.86206960295213       43.88884703335633
H           48.94614454390211       63.14028425253947       43.31515059005601
H           49.26045425822574       61.88951769462046       44.51969497198974
H           50.36489063050202       59.69845376946197       43.77916568383264
H           51.72039963478203       60.77233593236681       43.45392312431180
H           50.53172465773079       59.04021741534628       41.26191744188895
H           53.27174988537620       60.32195469323644       41.60165486843135
H           52.71532993032135       59.40730559159975       40.19970542505354
H           51.97840308608832       60.95744063086241       40.58286982401535
H           52.77854379994756       58.41351356406354       43.20652071209805
H           52.53350988039074       57.54295067653482       41.69963415134180
H           50.47994635787470       57.62930851860650       43.94674963098643
H           49.46820355586029       57.21147462486289       41.73422954039165
H           50.63758597739897       55.93455077731297       41.42042892562966
H           49.45153255834775       55.74853791792907       42.71138490654630
H           52.41935065738732       55.43784267835499       43.13428507756431
H           51.13398451074060       55.28620126539296       44.33161902216902
H           53.67647173648840       56.93718705559914       44.55832583027924
H           51.24738278177947       56.91371039559383       46.39795195514353
H           52.83232675590589       57.54357146629578       46.84308089169842
H           51.91630871518634       58.30794363335044       45.54908306775216
H           52.49529800346401       54.68718504413537       46.21825244311852
H           53.99268625563143       55.53739338918413       46.58562439845146
H           53.52335013470901       53.75808492003947       44.16212215742710
H           55.99694493674442       55.28036520445993       45.08487033993858
H           55.99539126058560       54.05603147632488       43.82036641063780
H           55.10248345383992       55.55744337708507       43.58772451225205
H           55.31844428950597       53.41478731047750       46.58515278193084
H           55.20102418497332       52.30946601779465       45.22040550299343
H           52.94246130376126       52.87354647349320       47.18254797852347
H           51.86999571971246       50.91050510394778       46.11213872530546
H           52.10798378472101       52.20633810362109       44.94824746267899
H           53.18768347487373       50.81252666420200       44.94712564360324
H           54.96284549655861       50.62828795162869       46.95205886103204
H           53.44103240479692       50.42465404107911       47.80087276825311
H           55.26539740421639       52.71633272678055       48.53762184616635
H           53.23795934870653       51.11152975217963       50.13574121448883
H           54.06822552879866       52.57712793136442       50.66435600209473
H           52.89546021537634       52.65334233132687       49.35326462701240
H           55.51783022789884       49.80917074054191       49.31798303967695
H           55.84364831694135       51.05210183093004       50.50944685958429
H           57.88805017195004       50.35874741205476       49.66044551186113
H           58.58956293541306       50.25968897457638       47.36925672356758
H           57.09061337980384       49.34387608389075       47.52072188907765
H           57.08004143836176       50.95716671371115       46.79488543479845
H           57.37309849097539       52.93673629395551       48.14444335102613
H           58.92289466613136       52.32260861833860       48.69637991485225
H           56.65834769464585       53.23636809651538       50.51611020649489
H           58.07490465728293       51.49404575855059       51.58068929167739
H           59.52184367590651       52.41799016973765       51.17336094477520
H           58.35207349114409       53.07015505873463       52.31634436592051
H           59.34389527166769       54.52804306089944       49.92045042049899
H           58.15216455079204       55.09356840993570       51.08702412929433
H           57.77655289290458       55.04654255943578       48.07012545572916
H           55.61783501955011       54.82874943838417       49.33649962838511
H           56.03167787246985       56.27955407676975       50.24950253981243
H           55.74473273253867       56.37515610414632       48.51019317100233
H           59.50529913877245       56.59683107524218       48.94994694299239
H           58.31788394075419       57.29122097600551       50.04603437266420
H           57.03119320097321       58.16036259056478       48.13741477326997
H           59.98403082557704       58.91322607378356       48.05602070773125
H           58.62786606066660       59.94845698860527       47.60380621059893
H           58.83414842835483       59.45637567408817       49.27949670912111
H           57.61209495708086       56.47932965155063       46.44700403784936
H           59.30296123313236       56.96661965714684       46.50444913881000
H           58.74280277630447       59.13828722977066       45.52050138661661
H           58.23354494043647       58.29538133565651       43.26981321970740
H           59.27695024435104       57.15506751684102       44.10651716657632
H           57.55475060756991       56.81414188119845       43.94456559611575
H           56.49700367745668       59.42852489579291       46.44656893957828
H           55.89966177994700       58.04845517283706       45.52901455929646
H           56.12778323174379       59.26479621330308       43.44369139731381
H           54.36945955150384       60.91804809426131       43.85159015153792
H           54.11239502979461       59.55781627202445       44.94210008960351
H           54.82765001153034       61.04709872025497       45.54949442448813
H           58.16106182670125       60.54939957000742       43.93464385703976
H           57.31717775684574       61.46226363241073       45.18358783965655
H           55.93793645557023       62.56418164179497       43.49626963319862
H           57.72662755852033       63.93891178622715       42.54872414713690
H           58.21725305664453       63.40734627464936       44.15381207969018
H           58.88540703981828       62.61860857598671       42.72306698381502
H           55.75136161467419       60.76979502752462       41.83667629895815
H           57.48860259950682       60.80980671672822       41.55335033810530
H           57.29292703797718       63.03970700053814       40.54022440729698
H           56.23413643287341       62.26159699623199       38.46833452910277
H           57.10626059242151       60.93058959643607       39.21573695766658
H           55.34953851725021       61.01621439774781       39.35217105790890
H           55.26368209472432       63.77476743240327       41.84511790315644
H           54.29712099591991       62.63402634643146       40.91447584299925
H           54.86975803409617       63.92731291439632       38.83852157242882
H           53.25999692394363       65.71515449160511       39.33500498842351
H           52.77403351283490       64.24041598902095       40.15931983165176
H           53.55097935179438       65.53802844429480       41.06600774014428
H           56.97603454589165       64.94263903528667       39.65946195091200
H           56.07226490306810       65.85042796600671       40.87151148756084
H           54.95339950690354       67.13631763932253       39.07621421487458
H           57.05656325072359       67.93604472624152       40.11726978820570
H           57.99489797009731       67.09070888591521       38.88395479452797
H           56.94872263223905       68.43556981304981       38.42911880915773
H           57.06428420444157       46.19969569275448       41.99086662336190
H           57.06096834994432       44.56979155106763       42.65511583559829
C           65.67555811110270       41.25430973677930       53.43329972325566
C           66.32516562285322       42.61243827123018       53.18039650645470
C           67.60492813941482       42.42537932586072       52.36518311400829
C           66.66738021196377       43.34429437908460       54.48456478666544
C           65.50138278436678       43.57723298628657       55.45173142270714
C           64.35049158666601       44.31950097222964       54.77305800428390
C           65.95158337149225       44.39321591308204       56.67316181209859
C           67.09242391282920       43.80310733890978       57.51177356980767
C           66.73963791530984       42.40299334690059       58.01277316350957
C           67.39638118600595       44.70747458709445       58.71672808245849
C           68.07726559492436       46.04032445287275       58.37751887241347
C           69.56712783702584       45.82963410100230       58.10842141604361
C           67.90610631259690       47.05448833800130       59.51818926176897
C           66.49112546042110       47.62664888320106       59.66596221395324
C           66.18202106760636       48.59560768444443       58.52600692361211
C           66.32103752361814       48.35030042764948       61.00887406226447
C           66.24191918858122       47.43932530720570       62.23991133834173
C           64.89540552077247       46.71954726463753       62.29761091741221
C           66.44826167791844       48.25725124144960       63.52392715800258
C           67.90447147690973       48.65911458117478       63.79010430044336
C           68.70656756730348       47.46111359141204       64.29990060700699
C           67.99814305444130       49.79074812454425       64.82371775843227
C           67.54514449876677       51.17937093656364       64.35437222297473
C           68.52039431986051       51.75873473785642       63.33288596287288
C           67.43993432373300       52.12592904207428       65.56033563662719
C           66.17521398266888       51.91011368324748       66.40682505875409
C           65.01981153777419       52.72384270062124       65.82952275717170
C           66.43722201476405       52.27825737716645       67.87197147592134
C           65.37064166450700       51.80127484282350       68.86728101205787
C           65.72420777307737       52.31903474179845       70.26193765899667
C           65.24496850591250       50.26580119351097       68.86990872769381
C           63.98511922383850       49.74548790233720       68.15732746060144
C           62.79208302673371       49.82791830184238       69.10766244050882
C           64.21313530699638       48.31638205406754       67.65024478242742
C           63.10088534772461       47.75982639983108       66.75154256472341
C           63.37561541337983       46.28389631571905       66.46106489611302
C           62.96124480558078       48.55183747095894       65.43572337817932
C           61.62918617458869       49.30297772514427       65.30967421390112
C           60.47465090133206       48.32417944597631       65.11606903809614
C           61.67837763219421       50.38841238678091       64.22162898116774
C           61.88951167429431       49.93220876693116       62.76408055736794
C           62.74890944493389       50.96492773012492       62.03578347139908
C           60.54036796606793       49.74087544159652       62.05779146170659
C           60.56239467914083       49.36950452215117       60.56435170222646
C           59.12527343101984       49.05574721682334       60.14615217871648
C           61.50161396584879       48.19279175722476       60.27360594445553
C           61.52188145573452       47.67326819744660       58.82472030417851
C           62.61769884117203       46.61439387633115       58.71219815239296
C           61.74063134554196       48.81349466249462       57.82626217875784
C           61.84205895259664       48.44031739288439       56.33670893718712
C           61.86116711173425       49.74804525293005       55.54858874129236
C           60.68751841776191       47.52798321210021       55.90078901097789
C           60.46860844975198       47.32031857364079       54.39097131590335
C           59.35517709663873       46.28334883901127       54.22642323773455
C           61.73777144504750       46.85801956463903       53.66584037204237
C           61.61874211511305       46.79587653299158       52.12734183072071
C           62.02585698891106       45.40999590862841       51.62421610894651
C           62.47199227074685       47.85894469129006       51.41680161878931
C           61.85028188855381       49.25939341057519       51.34008576292285
C           60.73938076262066       49.29799001942398       50.29344777686772
C           62.92380720110148       50.30099646194147       50.98529109709911
C           63.73197850489125       50.78737764215652       52.19472211540121
C           62.95101160309368       51.86450078823986       52.94604145801090
C           65.11927500885795       51.32446502180714       51.80249751964988
C           66.22870986716764       50.93161463252650       52.79162969737234
C           67.42359219201603       51.86030584694642       52.58348484411351
C           66.63009768682001       49.45795657248327       52.58833129592257
C           66.79681307426908       48.57789394970972       53.83840885874563
C           65.48281510394132       48.44297885609430       54.60731252876447
C           67.90923735044869       49.02596585969518       54.79376090706844
C           69.34736956653117       48.74674362093111       54.33642846391717
C           69.61460653422461       47.24606739203504       54.22428040126852
C           70.32963742009673       49.37928166021008       55.33915846304537
C           70.67234383890204       50.84309356930342       55.02609698362355
C           71.87053296457897       50.90367052429574       54.07854080578787
C           70.97031947017845       51.65351910626828       56.29442941802908
C           69.75019118525424       51.96653450686655       57.16957462950154
C           68.74081107812253       52.84275309105771       56.42738559206999
C           70.16176001602641       52.69989177362892       58.45471467386305
C           71.06051760773131       51.93612574813174       59.43221969184745
C           70.41570963918271       50.61946337121599       59.86642246201910
C           71.35163585219964       52.78994968294698       60.67700140830082
C           72.11276461680444       54.10147289348500       60.43964533472740
C           73.49107373092735       53.84190122825205       59.83320926816776
C           72.26596916807624       54.86873854508723       61.76340249366972
C           71.03223114409650       55.68245709991077       62.17712876560092
C           70.96620303490597       56.98672484891067       61.38205074197635
C           71.06208735335676       55.99778459731060       63.67928552133023
C           70.67140840142841       54.81450484329000       64.56134239365778
C           70.80170020101738       55.14878702836900       66.04228434500806
H           64.70798974090897       41.36334396368124       53.91564024559511
H           65.52400074677567       40.73051729459046       52.49153074350664
H           66.31236087273305       40.63971990711403       54.06677572261397
H           70.19512695080174       56.01594234172191       66.29536684952464
H           70.47395113811582       54.31199602042067       66.65491027823609
H           71.83562581968864       55.37518614065254       66.29372507831312
H           72.06375023683361       56.34005890363963       63.95034377239826
H           70.37004492607387       56.81794037223845       63.88522510726209
H           72.51493472957324       54.15272199487144       62.54833396119578
H           73.10848238331607       55.55943235267633       61.68044454716931
H           71.54632828992489       54.72618546430854       59.74400256656021
H           74.03300999211415       54.77732808523727       59.70982630791743
H           74.07499035452958       53.19074887298898       60.48059924432206
H           73.40827898485325       53.37425485538397       58.85583403816979
H           70.40195507656560       53.01728177653004       61.16678619858686
H           71.93724056686536       52.18362709572555       61.37348242108730
H           70.66883050838670       53.61993823118102       58.16026271747913
H           69.25207577749411       52.98463991947017       58.98964210358442
H           70.12908256785974       55.09917001235762       61.96701130817480
H           70.04626910794261       57.52502636217270       61.60082144528877
H           71.80743055820771       57.62706583747656       61.64114295278716