      -----------------------------------------------------------      
     |                   =====================                   |     
     |                           x T B                           |     
     |                   =====================                   |     
     |                         S. Grimme                         |     
     |          Mulliken Center for Theoretical Chemistry        |     
     |                    University of Bonn                     |     
      -----------------------------------------------------------      

   * xtb version 6.6.1 (8d0f1dd) compiled by 'stahn@M-Bot' on 2023-08-01

   xtb is free software: you can redistribute it and/or modify it under
   the terms of the GNU Lesser General Public License as published by
   the Free Software Foundation, either version 3 of the License, or
   (at your option) any later version.
   
   xtb is distributed in the hope that it will be useful,
   but WITHOUT ANY WARRANTY; without even the implied warranty of
   MERCHANTABILITY or FITNESS FOR A PARTICULAR PURPOSE.  See the
   GNU Lesser General Public License for more details.
   
   Cite this work as:
   * C. Bannwarth, E. Caldeweyher, S. Ehlert, A. Hansen, P. Pracht,
     J. Seibert, S. Spicher, S. Grimme, WIREs Comput. Mol. Sci., 2020, 11,
     e01493. DOI: 10.1002/wcms.1493
   
   for GFN2-xTB:
   * C. Bannwarth, S. Ehlert and S. Grimme., J. Chem. Theory Comput., 2019,
     15, 1652-1671. DOI: 10.1021/acs.jctc.8b01176
   for GFN1-xTB:
   * S. Grimme, C. Bannwarth, P. Shushkov, J. Chem. Theory Comput., 2017,
     13, 1989-2009. DOI: 10.1021/acs.jctc.7b00118
   for GFN0-xTB:
   * P. Pracht, E. Caldeweyher, S. Ehlert, S. Grimme, ChemRxiv, 2019, preprint.
     DOI: 10.26434/chemrxiv.8326202.v1
   for GFN-FF:
   * S. Spicher and S. Grimme, Angew. Chem. Int. Ed., 2020, 59, 15665-15673.
     DOI: 10.1002/anie.202004239
   
   for ALPB and GBSA implicit solvation:
   * S. Ehlert, M. Stahn, S. Spicher, S. Grimme, J. Chem. Theory Comput.,
     2021, 17, 4250-4261. DOI: 10.1021/acs.jctc.1c00471
   
   for DFT-D4:
   * E. Caldeweyher, C. Bannwarth and S. Grimme, J. Chem. Phys., 2017,
     147, 034112. DOI: 10.1063/1.4993215
   * E. Caldeweyher, S. Ehlert, A. Hansen, H. Neugebauer, S. Spicher,
     C. Bannwarth and S. Grimme, J. Chem. Phys., 2019, 150, 154122.
     DOI: 10.1063/1.5090222
   * E. Caldeweyher, J.-M. Mewes, S. Ehlert and S. Grimme, Phys. Chem. Chem. Phys.
     2020, 22, 8499-8512. DOI: 10.1039/D0CP00502A
   
   for sTDA-xTB:
   * S. Grimme and C. Bannwarth, J. Chem. Phys., 2016, 145, 054103.
     DOI: 10.1063/1.4959605
   
   in the mass-spec context:
   * V. Asgeirsson, C. Bauer and S. Grimme, Chem. Sci., 2017, 8, 4879.
     DOI: 10.1039/c7sc00601b
   * J. Koopman and S. Grimme, ACS Omega 2019, 4, 12, 15120-15133.
     DOI: 10.1021/acsomega.9b02011
   
   for metadynamics refer to:
   * S. Grimme, J. Chem. Theory Comput., 2019, 155, 2847-2862
     DOI: 10.1021/acs.jctc.9b00143
   
   for SPH calculations refer to:
   * S. Spicher and S. Grimme, J. Chem. Theory Comput., 2021, 17, 1701-1714
     DOI: 10.1021/acs.jctc.0c01306
   
   with help from (in alphabetical order)
   P. Atkinson, C. Bannwarth, F. Bohle, G. Brandenburg, E. Caldeweyher
   M. Checinski, S. Dohm, S. Ehlert, S. Ehrlich, I. Gerasimov, C. Hölzer
   A. Katbashev, J. Koopman, C. Lavigne, S. Lehtola, F. März, M. Müller,
   F. Musil, H. Neugebauer, J. Pisarek, C. Plett, P. Pracht, F. Pultar,
   J. Seibert, P. Shushkov, S. Spicher, M. Stahn, M. Steiner, T. Strunk,
   J. Stückrath, T. Rose, and J. Unsleber
   
 * started run on 2024/10/04 at 14:12:37.307     

           -------------------------------------------------
          |                Calculation Setup                |
           -------------------------------------------------

          program call               : /home/abt-grimme/AK-bin/xtb input.xyz --input input.inp --opt
          hostname                   : boar050.thch.uni-bonn.de
          coordinate file            : input.xyz
          omp threads                :                     8

   ID    Z sym.   atoms
    1    6 C      1-90, 273-362, 545-634, 817-906, 1089-1178, 1361-1450,
                  1633-1722, 1905-1994, 2177-2266, 2449-2538, 2721-2810,
                  2993-3082, 3265-3354
    2    1 H      91-272, 363-544, 635-816, 907-1088, 1179-1360, 1451-1632,
                  1723-1904, 1995-2176, 2267-2448, 2539-2720, 2811-2992,
                  3083-3264, 3355-3536

molecular fragmentation (1/2 indicates fragments):
111111111111111111111111111111111111111111111111111111111111111111111111
111111111111111111111111111111111111111111111111111111111111111111111111
111111111111111111111111111111111111111111111111111111111111111111111111
111111111111111111111111111111111111111111111111111111112222222222222222
222222222222222222222222222222222222222222222222222222222222222222222222
222222222222222222222222222222222222222222222222222222222222222222222222
222222222222222222222222222222222222222222222222222222222222222222222222
222222222222222222222222222222222222222222222222222222222222222222222222
222222222222222222222222222222222222222222222222222222222222222222222222
222222222222222222222222222222222222222222222222222222222222222222222222
222222222222222222222222222222222222222222222222222222222222222222222222
222222222222222222222222222222222222222222222222222222222222222222222222
222222222222222222222222222222222222222222222222222222222222222222222222
222222222222222222222222222222222222222222222222222222222222222222222222
222222222222222222222222222222222222222222222222222222222222222222222222
222222222222222222222222222222222222222222222222222222222222222222222222
222222222222222222222222222222222222222222222222222222222222222222222222
222222222222222222222222222222222222222222222222222222222222222222222222
222222222222222222222222222222222222222222222222222222222222222222222222
222222222222222222222222222222222222222222222222222222222222222222222222
222222222222222222222222222222222222222222222222222222222222222222222222
222222222222222222222222222222222222222222222222222222222222222222222222
222222222222222222222222222222222222222222222222222222222222222222222222
222222222222222222222222222222222222222222222222222222222222222222222222
222222222222222222222222222222222222222222222222222222222222222222222222
222222222222222222222222222222222222222222222222222222222222222222222222
222222222222222222222222222222222222222222222222222222222222222222222222
222222222222222222222222222222222222222222222222222222222222222222222222
222222222222222222222222222222222222222222222222222222222222222222222222
222222222222222222222222222222222222222222222222222222222222222222222222
222222222222222222222222222222222222222222222222222222222222222222222222
222222222222222222222222222222222222222222222222222222222222222222222222
222222222222222222222222222222222222222222222222222222222222222222222222
222222222222222222222222222222222222222222222222222222222222222222222222
222222222222222222222222222222222222222222222222222222222222222222222222
222222222222222222222222222222222222222222222222222222222222222222222222
222222222222222222222222222222222222222222222222222222222222222222222222
222222222222222222222222222222222222222222222222222222222222222222222222
222222222222222222222222222222222222222222222222222222222222222222222222
222222222222222222222222222222222222222222222222222222222222222222222222
222222222222222222222222222222222222222222222222222222222222222222222222
222222222222222222222222222222222222222222222222222222222222222222222222
222222222222222222222222222222222222222222222222222222222222222222222222
222222222222222222222222222222222222222222222222222222222222222222222222
222222222222222222222222222222222222222222222222222222222222222222222222
222222222222222222222222222222222222222222222222222222222222222222222222
222222222222222222222222222222222222222222222222222222222222222222222222
222222222222222222222222222222222222222222222222222222222222222222222222
222222222222222222222222222222222222222222222222222222222222222222222222
22222222
# atoms in fragment 1/2:   272  3264
 fragment masses (1/2) :     1264.41    15172.94
CMA distance (Bohr)    :  22.991
constraining FC (au)   :  0.0500

           -------------------------------------------------
          |                 G F N 2 - x T B                 |
           -------------------------------------------------

        Reference                      10.1021/acs.jctc.8b01176
      * Hamiltonian:
        H0-scaling (s, p, d)           1.850000    2.230000    2.230000
        zeta-weighting                 0.500000
      * Dispersion:
        s8                             2.700000
        a1                             0.520000
        a2                             5.000000
        s9                             5.000000
      * Repulsion:
        kExp                           1.500000    1.000000
        rExp                           1.000000
      * Coulomb:
        alpha                          2.000000
        third order                    shell-resolved
        anisotropic                    true
        a3                             3.000000
        a5                             4.000000
        cn-shift                       1.200000
        cn-exp                         4.000000
        max-rad                        5.000000


          ...................................................
          :                      SETUP                      :
          :.................................................:
          :  # basis functions                7046          :
          :  # atomic orbitals                7046          :
          :  # shells                         4706          :
          :  # electrons                      7046          :
          :  max. iterations                   250          :
          :  Hamiltonian                  GFN2-xTB          :
          :  restarted?                      false          :
          :  GBSA solvation                  false          :
          :  PC potential                    false          :
          :  electronic temp.          300.0000000     K    :
          :  accuracy                    1.0000000          :
          :  -> integral cutoff          0.2500000E+02      :
          :  -> integral neglect         0.1000000E-07      :
          :  -> SCF convergence          0.1000000E-05 Eh   :
          :  -> wf. convergence          0.1000000E-03 e    :
          :  Broyden damping             0.4000000          :
          ...................................................

 iter      E             dE          RMSdq      gap      omega  full diag
   1  -3766.7647570 -0.376676E+04  0.227E+00   11.44       0.0  T
   2  -3771.7939376 -0.502918E+01  0.126E+00   11.45       1.0  T
   3  -3772.0062483 -0.212311E+00  0.559E-01   11.48       1.0  T
   4  -3772.0283275 -0.220793E-01  0.143E-01   11.47       1.0  T
   5  -3772.0480463 -0.197188E-01  0.512E-02   11.47       1.0  T
   6  -3772.0480683 -0.219702E-04  0.722E-03   11.48       1.0  T
   7  -3772.0481008 -0.325120E-04  0.155E-03   11.48       1.1  T
   8  -3772.0481028 -0.194532E-05  0.553E-04   11.48       3.0  T
   9  -3772.0481029 -0.100183E-06  0.187E-04   11.48       9.0  T
  10  -3772.0481029 -0.157374E-07  0.714E-05   11.48      23.6  T

   *** convergence criteria satisfied after 10 iterations ***

         #    Occupation            Energy/Eh            Energy/eV
      -------------------------------------------------------------
         1        2.0000           -0.6270956             -17.0641
       ...           ...                  ...                  ...
      3517        2.0000           -0.3952566             -10.7555
      3518        2.0000           -0.3952171             -10.7544
      3519        2.0000           -0.3951188             -10.7517
      3520        2.0000           -0.3949150             -10.7462
      3521        2.0000           -0.3944428             -10.7333
      3522        2.0000           -0.3940719             -10.7232
      3523        2.0000           -0.3937108             -10.7134 (HOMO)
      3524                          0.0279909               0.7617 (LUMO)
      3525                          0.0282075               0.7676
      3526                          0.0298938               0.8135
      3527                          0.0299764               0.8157
      3528                          0.0306644               0.8344
       ...                                ...                  ...
      7046                          0.3905843              10.6283
      -------------------------------------------------------------
                  HL-Gap            0.4217017 Eh           11.4751 eV
             Fermi-level           -0.1828600 Eh           -4.9759 eV

 SCC (total)                   0 d,  0 h, 17 min, 31.874 sec
 SCC setup                      ...        0 min,  0.521 sec (  0.049%)
 Dispersion                     ...        0 min,  4.143 sec (  0.394%)
 classical contributions        ...        0 min,  0.145 sec (  0.014%)
 integral evaluation            ...        0 min,  6.971 sec (  0.663%)
 iterations                     ...       13 min,  2.582 sec ( 74.399%)
 molecular gradient             ...        4 min,  6.492 sec ( 23.434%)
 printout                       ...        0 min, 11.021 sec (  1.048%)

         :::::::::::::::::::::::::::::::::::::::::::::::::::::
         ::                     SUMMARY                     ::
         :::::::::::::::::::::::::::::::::::::::::::::::::::::
         :: total energy           -3716.255551616371 Eh    ::
         :: gradient norm              0.019569394059 Eh/a0 ::
         :: HOMO-LUMO gap             11.475088080954 eV    ::
         ::.................................................::
         :: SCC energy             -3772.048102891813 Eh    ::
         :: -> isotropic ES            0.584812159465 Eh    ::
         :: -> anisotropic ES          1.298982539696 Eh    ::
         :: -> anisotropic XC          2.077122987955 Eh    ::
         :: -> dispersion             -4.549263594584 Eh    ::
         :: repulsion energy          55.108073365902 Eh    ::
         :: add. restraining           0.000000000000 Eh    ::
         :: total charge              -0.000000000009 e     ::
         :::::::::::::::::::::::::::::::::::::::::::::::::::::

      ----------------------------------------------------------- 
     |              Fast Inertial Relaxation Engine              |
      ----------------------------------------------------------- 

          ...................................................
          :                      SETUP                      :
          :.................................................:
          :   energy convergence        0.5000000E-05 Eh    :
          :   grad. convergence         0.1000000E-02 Eh/a0 :
          :   optimization log               true           :
          :   writing optlog all                1     steps :
          :   Hessian reset                    20     steps :
          :   time step scaling                 5     steps :
          :   maximium step len.        1.0000000     a0    :
          :   initial time step         0.2500000     fs    :
          :   maximum time step         1.2500000     fs    :
          :   power reset thr           0.0000000     au    :
          :   alpha parameter           0.1000000           :
          :   BFGS update                   false           :
          :   preconditioning               false           :
          ...................................................

........................................................................
.............................. CYCLE    1 ..............................
........................................................................

 iter      E             dE          RMSdq      gap      omega  full diag
   1  -3772.0516675 -0.377205E+04  0.262E-04   11.48       0.0  T
   2  -3772.0516675 -0.291266E-07  0.155E-04   11.48      10.9  T
   3  -3772.0516675 -0.441560E-09  0.497E-05   11.48      33.8  T
     SCC iter.                  ...        3 min, 51.316 sec
     gradient                   ...        4 min,  6.768 sec
 * total energy  : -3716.2555948 Eh     change    :  -0.4323114E-04 Eh
   gradient norm :     0.0181455 Eh/a0  converged?    E=F G=F D=F
   time step     :     0.2500000 fs     power     :   0.2208028E-08
   step length   :     0.0022935 a0     speed     :   0.2219076E-03

........................................................................
.............................. CYCLE    2 ..............................
........................................................................

 iter      E             dE          RMSdq      gap      omega  full diag
   1  -3772.0568531 -0.377206E+04  0.384E-04   11.48       0.0  T
   2  -3772.0568532 -0.589625E-07  0.227E-04   11.48       7.4  T
   3  -3772.0568532 -0.934051E-09  0.698E-05   11.48      24.1  T
     SCC iter.                  ...        3 min, 42.905 sec
     gradient                   ...        4 min,  5.679 sec
 * total energy  : -3716.2556523 Eh     change    :  -0.5742965E-04 Eh
   gradient norm :     0.0161065 Eh/a0  converged?    E=F G=F D=F
   time step     :     0.2500000 fs     power     :   0.2863105E-08
   step length   :     0.0033565 a0     speed     :   0.3247570E-03

........................................................................
.............................. CYCLE    3 ..............................
........................................................................

 iter      E             dE          RMSdq      gap      omega  full diag
   1  -3772.0634286 -0.377206E+04  0.491E-04   11.48       0.0  T
   2  -3772.0634287 -0.947939E-07  0.291E-04   11.48       5.8  T
   3  -3772.0634287 -0.148702E-08  0.880E-05   11.48      19.1  T
     SCC iter.                  ...        3 min, 46.578 sec
     gradient                   ...        4 min,  6.104 sec
 * total energy  : -3716.2557158 Eh     change    :  -0.6355329E-04 Eh
   gradient norm :     0.0135860 Eh/a0  converged?    E=F G=F D=F
   time step     :     0.2500000 fs     power     :   0.3074197E-08
   step length   :     0.0042983 a0     speed     :   0.4158845E-03

........................................................................
.............................. CYCLE    4 ..............................
........................................................................

 iter      E             dE          RMSdq      gap      omega  full diag
   1  -3772.0710897 -0.377207E+04  0.582E-04   11.48       0.0  T
   2  -3772.0710898 -0.128807E-06  0.345E-04   11.48       4.9  T
   3  -3772.0710898 -0.197315E-08  0.102E-04   11.48      16.5  T
     SCC iter.                  ...        3 min, 42.616 sec
     gradient                   ...        4 min,  7.453 sec
 * total energy  : -3716.2557770 Eh     change    :  -0.6112059E-04 Eh
   gradient norm :     0.0107965 Eh/a0  converged?    E=F G=F D=F
   time step     :     0.2500000 fs     power     :   0.2834949E-08
   step length   :     0.0050868 a0     speed     :   0.4921754E-03

........................................................................
.............................. CYCLE    5 ..............................
........................................................................

 iter      E             dE          RMSdq      gap      omega  full diag
   1  -3772.0794499 -0.377208E+04  0.651E-04   11.48       0.0  T
   2  -3772.0794501 -0.154471E-06  0.386E-04   11.48       4.4  T
   3  -3772.0794501 -0.237196E-08  0.111E-04   11.48      15.2  T
     SCC iter.                  ...        3 min, 41.728 sec
     gradient                   ...        4 min,  7.412 sec
 * total energy  : -3716.2558281 Eh     change    :  -0.5112418E-04 Eh
   gradient norm :     0.0080979 Eh/a0  converged?    E=F G=F D=F
   time step     :     0.2500000 fs     power     :   0.2221167E-08
   step length   :     0.0056943 a0     speed     :   0.5509553E-03

........................................................................
.............................. CYCLE    6 ..............................
........................................................................

 iter      E             dE          RMSdq      gap      omega  full diag
   1  -3772.0889047 -0.377209E+04  0.770E-04   11.48       0.0  T
   2  -3772.0889049 -0.202222E-06  0.458E-04   11.48       3.7  T
   3  -3772.0889049 -0.300406E-08  0.125E-04   11.48      13.5  T
     SCC iter.                  ...        3 min, 46.284 sec
     gradient                   ...        4 min,  7.569 sec
 * total energy  : -3716.2558671 Eh     change    :  -0.3901350E-04 Eh
   gradient norm :     0.0060302 Eh/a0  converged?    E=F G=F D=F
   time step     :     0.2750000 fs     power     :   0.1293246E-08
   step length   :     0.0067458 a0     speed     :   0.5933531E-03

........................................................................
.............................. CYCLE    7 ..............................
........................................................................

 iter      E             dE          RMSdq      gap      omega  full diag
   1  -3772.0985506 -0.377210E+04  0.866E-04   11.48       0.0  T
   2  -3772.0985508 -0.217909E-06  0.515E-04   11.48       3.3  T
   3  -3772.0985508 -0.323826E-08  0.125E-04   11.48      13.5  T
     SCC iter.                  ...        3 min, 45.640 sec
     gradient                   ...        4 min,  8.114 sec
 * total energy  : -3716.2558877 Eh     change    :  -0.2057673E-04 Eh
   gradient norm :     0.0060078 Eh/a0  converged?    E=F G=F D=F
   time step     :     0.3025000 fs     power     :   0.3104035E-09
   step length   :     0.0075694 a0     speed     :   0.6052749E-03

........................................................................
.............................. CYCLE    8 ..............................
........................................................................

 iter      E             dE          RMSdq      gap      omega  full diag
   1  -3772.1068456 -0.377211E+04  0.905E-04   11.48       0.0  T
   2  -3772.1068458 -0.174639E-06  0.539E-04   11.48       3.1  T
   3  -3772.1068458 -0.255068E-08  0.103E-04   11.48      16.3  T
     SCC iter.                  ...        3 min, 43.248 sec
     gradient                   ...        4 min,  8.199 sec
 * total energy  : -3716.2558915 Eh     change    :  -0.3865780E-05 Eh
   gradient norm :     0.0075882 Eh/a0  converged?    E=T G=F D=F
   time step     :     0.3327500 fs     power     :  -0.3171833E-09
   step length   :     0.0078640 a0     speed     :   0.5716638E-03

........................................................................
.............................. CYCLE    9 ..............................
........................................................................
 * reset velocities

 iter      E             dE          RMSdq      gap      omega  full diag
   1  -3772.1065653 -0.377211E+04  0.306E-05   11.48       0.0  T
   2  -3772.1065653 -0.110094E-08  0.148E-05   11.48     113.4  T
   3  -3772.1065653 -0.180080E-09  0.812E-06   11.48     207.0  T
     SCC iter.                  ...        3 min, 42.079 sec
     gradient                   ...        4 min,  7.938 sec
 * total energy  : -3716.2558930 Eh     change    :  -0.1489711E-05 Eh
   gradient norm :     0.0074678 Eh/a0  converged?    E=T G=F D=T
   time step     :     0.1663750 fs     power     :   0.1172941E-09
   step length   :     0.0001969 a0     speed     :   0.2863217E-04

........................................................................
.............................. CYCLE   10 ..............................
........................................................................

 iter      E             dE          RMSdq      gap      omega  full diag
   1  -3772.1060090 -0.377211E+04  0.464E-05   11.48       0.0  T
   2  -3772.1060090 -0.639830E-09  0.276E-05   11.48      61.0  T
   3  -3772.1060090  0.368345E-10  0.747E-06   11.48     225.1  T
     SCC iter.                  ...        3 min, 41.446 sec
     gradient                   ...        4 min,  6.850 sec
 * total energy  : -3716.2558959 Eh     change    :  -0.2870270E-05 Eh
   gradient norm :     0.0072239 Eh/a0  converged?    E=T G=F D=T
   time step     :     0.1663750 fs     power     :   0.2250949E-09
   step length   :     0.0003907 a0     speed     :   0.5680954E-04

........................................................................
.............................. CYCLE   11 ..............................
........................................................................

 iter      E             dE          RMSdq      gap      omega  full diag
   1  -3772.1051884 -0.377211E+04  0.673E-05   11.48       0.0  T
   2  -3772.1051884 -0.142518E-08  0.400E-05   11.48      42.1  T
   3  -3772.1051884  0.291038E-10  0.109E-05   11.48     154.4  T
     SCC iter.                  ...        3 min, 50.241 sec
     gradient                   ...        4 min,  5.734 sec
 * total energy  : -3716.2559000 Eh     change    :  -0.4073278E-05 Eh
   gradient norm :     0.0068680 Eh/a0  converged?    E=T G=F D=T
   time step     :     0.1663750 fs     power     :   0.3165306E-09
   step length   :     0.0005782 a0     speed     :   0.8406390E-04

........................................................................
.............................. CYCLE   12 ..............................
........................................................................

 iter      E             dE          RMSdq      gap      omega  full diag
   1  -3772.1041210 -0.377210E+04  0.880E-05   11.48       0.0  T
   2  -3772.1041210 -0.239424E-08  0.523E-05   11.48      32.2  T
   3  -3772.1041210 -0.227374E-11  0.140E-05   11.48     119.7  T
     SCC iter.                  ...        3 min, 51.123 sec
     gradient                   ...        4 min,  7.455 sec
 * total energy  : -3716.2559050 Eh     change    :  -0.5023415E-05 Eh
   gradient norm :     0.0064111 Eh/a0  converged?    E=F G=F D=T
   time step     :     0.1663750 fs     power     :   0.3860852E-09
   step length   :     0.0007564 a0     speed     :   0.1099641E-03

........................................................................
.............................. CYCLE   13 ..............................
........................................................................

 iter      E             dE          RMSdq      gap      omega  full diag
   1  -3772.1028301 -0.377210E+04  0.107E-04   11.48       0.0  T
   2  -3772.1028301 -0.332420E-08  0.636E-05   11.48      26.4  T
   3  -3772.1028301 -0.117325E-09  0.169E-05   11.48      99.7  T
     SCC iter.                  ...        3 min, 48.301 sec
     gradient                   ...        4 min,  7.578 sec
 * total energy  : -3716.2559106 Eh     change    :  -0.5651651E-05 Eh
   gradient norm :     0.0058698 Eh/a0  converged?    E=F G=F D=T
   time step     :     0.1663750 fs     power     :   0.4300284E-09
   step length   :     0.0009224 a0     speed     :   0.1341104E-03

........................................................................
.............................. CYCLE   14 ..............................
........................................................................

 iter      E             dE          RMSdq      gap      omega  full diag
   1  -3772.1013452 -0.377210E+04  0.124E-04   11.47       0.0  T
   2  -3772.1013452 -0.437740E-08  0.739E-05   11.47      22.8  T
   3  -3772.1013452 -0.204636E-10  0.193E-05   11.47      87.3  T
     SCC iter.                  ...        3 min, 42.055 sec
     gradient                   ...        4 min,  6.731 sec
 * total energy  : -3716.2559166 Eh     change    :  -0.5945520E-05 Eh
   gradient norm :     0.0052663 Eh/a0  converged?    E=F G=F D=F
   time step     :     0.1663750 fs     power     :   0.4467850E-09
   step length   :     0.0010740 a0     speed     :   0.1561430E-03

........................................................................
.............................. CYCLE   15 ..............................
........................................................................

 iter      E             dE          RMSdq      gap      omega  full diag
   1  -3772.0995192 -0.377210E+04  0.155E-04   11.47       0.0  T
   2  -3772.0995192 -0.675345E-08  0.920E-05   11.47      18.3  T
   3  -3772.0995192 -0.113687E-10  0.237E-05   11.47      71.0  T
     SCC iter.                  ...        3 min, 47.497 sec
     gradient                   ...        4 min,  7.886 sec
 * total energy  : -3716.2559231 Eh     change    :  -0.6506044E-05 Eh
   gradient norm :     0.0045626 Eh/a0  converged?    E=F G=F D=F
   time step     :     0.1830125 fs     power     :   0.4345799E-09
   step length   :     0.0013446 a0     speed     :   0.1777182E-03

........................................................................
.............................. CYCLE   16 ..............................
........................................................................

 iter      E             dE          RMSdq      gap      omega  full diag
   1  -3772.0973446 -0.377210E+04  0.188E-04   11.47       0.0  T
   2  -3772.0973447 -0.956470E-08  0.112E-04   11.47      15.0  T
   3  -3772.0973447 -0.236469E-10  0.279E-05   11.47      60.2  T
     SCC iter.                  ...        3 min, 44.513 sec
     gradient                   ...        4 min,  7.643 sec
 * total energy  : -3716.2559297 Eh     change    :  -0.6636893E-05 Eh
   gradient norm :     0.0038092 Eh/a0  converged?    E=F G=F D=F
   time step     :     0.2013138 fs     power     :   0.3889125E-09
   step length   :     0.0016465 a0     speed     :   0.1978346E-03

........................................................................
.............................. CYCLE   17 ..............................
........................................................................

 iter      E             dE          RMSdq      gap      omega  full diag
   1  -3772.0948607 -0.377209E+04  0.223E-04   11.47       0.0  T
   2  -3772.0948607 -0.125524E-07  0.132E-04   11.47      12.7  T
   3  -3772.0948607 -0.101863E-09  0.314E-05   11.47      53.5  T
     SCC iter.                  ...        3 min, 44.637 sec
     gradient                   ...        4 min,  6.657 sec
 * total energy  : -3716.2559359 Eh     change    :  -0.6202264E-05 Eh
   gradient norm :     0.0031379 Eh/a0  converged?    E=F G=F D=F
   time step     :     0.2214451 fs     power     :   0.3116273E-09
   step length   :     0.0019690 a0     speed     :   0.2150797E-03

........................................................................
.............................. CYCLE   18 ..............................
........................................................................

 iter      E             dE          RMSdq      gap      omega  full diag
   1  -3772.0921972 -0.377209E+04  0.254E-04   11.47       0.0  T
   2  -3772.0921972 -0.144660E-07  0.151E-04   11.47      11.1  T
   3  -3772.0921972 -0.164619E-09  0.329E-05   11.47      51.1  T
     SCC iter.                  ...        3 min, 49.530 sec
     gradient                   ...        4 min,  7.951 sec
 * total energy  : -3716.2559411 Eh     change    :  -0.5168958E-05 Eh
   gradient norm :     0.0027935 Eh/a0  converged?    E=F G=F D=F
   time step     :     0.2435896 fs     power     :   0.2167803E-09
   step length   :     0.0022890 a0     speed     :   0.2273051E-03

........................................................................
.............................. CYCLE   19 ..............................
........................................................................

 iter      E             dE          RMSdq      gap      omega  full diag
   1  -3772.0896211 -0.377209E+04  0.276E-04   11.47       0.0  T
   2  -3772.0896212 -0.139839E-07  0.165E-04   11.47      10.2  T
   3  -3772.0896212 -0.213277E-09  0.307E-05   11.47      54.7  T
     SCC iter.                  ...        3 min, 42.125 sec
     gradient                   ...        4 min,  6.558 sec
 * total energy  : -3716.2559450 Eh     change    :  -0.3911694E-05 Eh
   gradient norm :     0.0029429 Eh/a0  converged?    E=T G=F D=F
   time step     :     0.2679486 fs     power     :   0.1340533E-09
   step length   :     0.0025658 a0     speed     :   0.2316241E-03

........................................................................
.............................. CYCLE   20 ..............................
........................................................................

 iter      E             dE          RMSdq      gap      omega  full diag
   1  -3772.0874870 -0.377209E+04  0.287E-04   11.47       0.0  T
   2  -3772.0874870 -0.107352E-07  0.170E-04   11.47       9.9  T
   3  -3772.0874870 -0.319687E-09  0.248E-05   11.47      67.9  T
     SCC iter.                  ...        3 min, 43.670 sec
     gradient                   ...        4 min,  6.169 sec
 * total energy  : -3716.2559482 Eh     change    :  -0.3155471E-05 Eh
   gradient norm :     0.0033730 Eh/a0  converged?    E=T G=F D=F
   time step     :     0.2947435 fs     power     :   0.9480789E-10
   step length   :     0.0027769 a0     speed     :   0.2278948E-03
 * RMSD in coord.:     0.0007025 a0     energy gain  -0.3965500E-03 Eh

........................................................................
.............................. CYCLE   21 ..............................
........................................................................

 iter      E             dE          RMSdq      gap      omega  full diag
   1  -3772.0863964 -0.377209E+04  0.222E-04   11.47       0.0  T
   2  -3772.0863964 -0.404452E-08  0.132E-04   11.47      12.8  T
   3  -3772.0863964 -0.186446E-09  0.138E-05   11.47     121.8  T
     SCC iter.                  ...        3 min, 44.735 sec
     gradient                   ...        4 min,  6.130 sec
 * total energy  : -3716.2559508 Eh     change    :  -0.2605295E-05 Eh
   gradient norm :     0.0036514 Eh/a0  converged?    E=T G=F D=F
   time step     :     0.2500000 fs     power     :   0.1139667E-09
   step length   :     0.0022570 a0     speed     :   0.2183816E-03

........................................................................
.............................. CYCLE   22 ..............................
........................................................................

 iter      E             dE          RMSdq      gap      omega  full diag
   1  -3772.0860288 -0.377209E+04  0.206E-04   11.47       0.0  T
   2  -3772.0860288 -0.228874E-08  0.122E-04   11.47      13.8  T
   3  -3772.0860288 -0.282398E-09  0.114E-05   11.47     147.7  T
     SCC iter.                  ...        3 min, 47.346 sec
     gradient                   ...        4 min,  8.106 sec
 * total energy  : -3716.2559540 Eh     change    :  -0.3234812E-05 Eh
   gradient norm :     0.0037159 Eh/a0  converged?    E=T G=F D=F
   time step     :     0.2500000 fs     power     :   0.1559339E-09
   step length   :     0.0021875 a0     speed     :   0.2116500E-03

........................................................................
.............................. CYCLE   23 ..............................
........................................................................

 iter      E             dE          RMSdq      gap      omega  full diag
   1  -3772.0863407 -0.377209E+04  0.199E-04   11.47       0.0  T
   2  -3772.0863407 -0.262435E-08  0.116E-04   11.47      14.5  T
   3  -3772.0863407 -0.995897E-10  0.139E-05   11.47     121.1  T
     SCC iter.                  ...        3 min, 47.650 sec
     gradient                   ...        4 min,  5.230 sec
 * total energy  : -3716.2559580 Eh     change    :  -0.3988892E-05 Eh
   gradient norm :     0.0035466 Eh/a0  converged?    E=T G=F D=F
   time step     :     0.2500000 fs     power     :   0.1981859E-09
   step length   :     0.0021651 a0     speed     :   0.2094836E-03

........................................................................
.............................. CYCLE   24 ..............................
........................................................................

 iter      E             dE          RMSdq      gap      omega  full diag
   1  -3772.0872614 -0.377209E+04  0.199E-04   11.47       0.0  T
   2  -3772.0872614 -0.412820E-08  0.116E-04   11.47      14.5  T
   3  -3772.0872614 -0.509317E-10  0.190E-05   11.47      88.5  T
     SCC iter.                  ...        3 min, 44.475 sec
     gradient                   ...        4 min,  5.116 sec
 * total energy  : -3716.2559625 Eh     change    :  -0.4535693E-05 Eh
   gradient norm :     0.0031685 Eh/a0  converged?    E=T G=F D=F
   time step     :     0.2500000 fs     power     :   0.2233618E-09
   step length   :     0.0021866 a0     speed     :   0.2115636E-03

........................................................................
.............................. CYCLE   25 ..............................
........................................................................

 iter      E             dE          RMSdq      gap      omega  full diag
   1  -3772.0887005 -0.377209E+04  0.204E-04   11.47       0.0  T
   2  -3772.0887005 -0.637328E-08  0.118E-04   11.47      14.3  T
   3  -3772.0887005 -0.732143E-10  0.240E-05   11.47      70.1  T
     SCC iter.                  ...        3 min, 44.929 sec
     gradient                   ...        4 min,  4.281 sec
 * total energy  : -3716.2559672 Eh     change    :  -0.4620420E-05 Eh
   gradient norm :     0.0026406 Eh/a0  converged?    E=T G=F D=F
   time step     :     0.2500000 fs     power     :   0.2218502E-09
   step length   :     0.0022367 a0     speed     :   0.2164122E-03

........................................................................
.............................. CYCLE   26 ..............................
........................................................................

 iter      E             dE          RMSdq      gap      omega  full diag
   1  -3772.0907562 -0.377209E+04  0.231E-04   11.47       0.0  T
   2  -3772.0907562 -0.103701E-07  0.133E-04   11.47      12.6  T
   3  -3772.0907562 -0.827640E-10  0.309E-05   11.47      54.4  T
     SCC iter.                  ...        3 min, 46.417 sec
     gradient                   ...        4 min,  6.650 sec
 * total energy  : -3716.2559717 Eh     change    :  -0.4584837E-05 Eh
   gradient norm :     0.0020155 Eh/a0  converged?    E=T G=F D=F
   time step     :     0.2750000 fs     power     :   0.1878255E-09
   step length   :     0.0025395 a0     speed     :   0.2233696E-03

........................................................................
.............................. CYCLE   27 ..............................
........................................................................

 iter      E             dE          RMSdq      gap      omega  full diag
   1  -3772.0933489 -0.377209E+04  0.256E-04   11.47       0.0  T
   2  -3772.0933489 -0.143759E-07  0.147E-04   11.47      11.4  T
   3  -3772.0933489 -0.354703E-10  0.360E-05   11.47      46.7  T
     SCC iter.                  ...        3 min, 42.998 sec
     gradient                   ...        4 min,  6.477 sec
 * total energy  : -3716.2559755 Eh     change    :  -0.3800597E-05 Eh
   gradient norm :     0.0016003 Eh/a0  converged?    E=T G=F D=F
   time step     :     0.3025000 fs     power     :   0.1258215E-09
   step length   :     0.0028735 a0     speed     :   0.2297775E-03

........................................................................
.............................. CYCLE   28 ..............................
........................................................................

 iter      E             dE          RMSdq      gap      omega  full diag
   1  -3772.0961583 -0.377210E+04  0.265E-04   11.47       0.0  T
   2  -3772.0961583 -0.146842E-07  0.152E-04   11.47      11.0  T
   3  -3772.0961583 -0.768523E-10  0.357E-05   11.47      47.1  T
     SCC iter.                  ...        3 min, 43.799 sec
     gradient                   ...        4 min,  5.385 sec
 * total energy  : -3716.2559781 Eh     change    :  -0.2609377E-05 Eh
   gradient norm :     0.0018040 Eh/a0  converged?    E=T G=F D=F
   time step     :     0.3327500 fs     power     :   0.6443355E-10
   step length   :     0.0031699 a0     speed     :   0.2304291E-03

........................................................................
.............................. CYCLE   29 ..............................
........................................................................

 iter      E             dE          RMSdq      gap      omega  full diag
   1  -3772.0986468 -0.377210E+04  0.248E-04   11.47       0.0  T
   2  -3772.0986468 -0.977707E-08  0.143E-04   11.47      11.8  T
   3  -3772.0986468 -0.568434E-10  0.279E-05   11.47      60.3  T
     SCC iter.                  ...        3 min, 43.583 sec
     gradient                   ...        4 min,  5.450 sec
 * total energy  : -3716.2559800 Eh     change    :  -0.1887943E-05 Eh
   gradient norm :     0.0023039 Eh/a0  converged?    E=T G=F D=F
   time step     :     0.3660250 fs     power     :   0.4183208E-10
   step length   :     0.0033522 a0     speed     :   0.2215331E-03

........................................................................
.............................. CYCLE   30 ..............................
........................................................................

 iter      E             dE          RMSdq      gap      omega  full diag
   1  -3772.1003926 -0.377210E+04  0.220E-04   11.47       0.0  T
   2  -3772.1003926 -0.380078E-08  0.128E-04   11.47      13.2  T
   3  -3772.1003926 -0.577529E-10  0.161E-05   11.47     104.7  T
     SCC iter.                  ...        3 min, 48.093 sec
     gradient                   ...        4 min,  5.578 sec
 * total energy  : -3716.2559824 Eh     change    :  -0.2349323E-05 Eh
   gradient norm :     0.0026082 Eh/a0  converged?    E=T G=F D=F
   time step     :     0.4026275 fs     power     :   0.6364489E-10
   step length   :     0.0035083 a0     speed     :   0.2107704E-03

........................................................................
.............................. CYCLE   31 ..............................
........................................................................

 iter      E             dE          RMSdq      gap      omega  full diag
   1  -3772.1011058 -0.377210E+04  0.202E-04   11.47       0.0  T
   2  -3772.1011058 -0.132059E-08  0.119E-04   11.47      14.1  T
   3  -3772.1011058 -0.891305E-10  0.937E-06   11.47     179.4  T
     SCC iter.                  ...        3 min, 44.845 sec
     gradient                   ...        4 min,  5.537 sec
 * total energy  : -3716.2559862 Eh     change    :  -0.3805460E-05 Eh
   gradient norm :     0.0025079 Eh/a0  converged?    E=T G=F D=F
   time step     :     0.4428903 fs     power     :   0.1042004E-09
   step length   :     0.0037630 a0     speed     :   0.2055175E-03

........................................................................
.............................. CYCLE   32 ..............................
........................................................................

 iter      E             dE          RMSdq      gap      omega  full diag
   1  -3772.1006548 -0.377210E+04  0.210E-04   11.47       0.0  T
   2  -3772.1006548 -0.544605E-08  0.126E-04   11.47      13.3  T
   3  -3772.1006548 -0.773070E-11  0.193E-05   11.47      87.0  T
     SCC iter.                  ...        3 min, 48.413 sec
     gradient                   ...        4 min,  4.789 sec
 * total energy  : -3716.2559914 Eh     change    :  -0.5235550E-05 Eh
   gradient norm :     0.0020177 Eh/a0  converged?    E=F G=F D=F
   time step     :     0.4871793 fs     power     :   0.1249662E-09
   step length   :     0.0041925 a0     speed     :   0.2081594E-03

........................................................................
.............................. CYCLE   33 ..............................
........................................................................

 iter      E             dE          RMSdq      gap      omega  full diag
   1  -3772.0992175 -0.377210E+04  0.235E-04   11.47       0.0  T
   2  -3772.0992175 -0.147015E-07  0.143E-04   11.47      11.7  T
   3  -3772.0992175  0.368345E-10  0.346E-05   11.47      48.6  T
     SCC iter.                  ...        3 min, 43.884 sec
     gradient                   ...        4 min,  4.080 sec
 * total energy  : -3716.2559968 Eh     change    :  -0.5358365E-05 Eh
   gradient norm :     0.0015613 Eh/a0  converged?    E=F G=F D=F
   time step     :     0.5358972 fs     power     :   0.1030584E-09
   step length   :     0.0047801 a0     speed     :   0.2157601E-03

........................................................................
.............................. CYCLE   34 ..............................
........................................................................

 iter      E             dE          RMSdq      gap      omega  full diag
   1  -3772.0976265 -0.377210E+04  0.238E-04   11.47       0.0  T
   2  -3772.0976265 -0.178038E-07  0.146E-04   11.48      11.5  T
   3  -3772.0976265 -0.198270E-09  0.375E-05   11.48      44.8  T
     SCC iter.                  ...        3 min, 43.595 sec
     gradient                   ...        4 min,  6.300 sec
 * total energy  : -3716.2560012 Eh     change    :  -0.4386244E-05 Eh
   gradient norm :     0.0018067 Eh/a0  converged?    E=T G=F D=F
   time step     :     0.5894869 fs     power     :   0.6868241E-10
   step length   :     0.0053907 a0     speed     :   0.2211999E-03

........................................................................
.............................. CYCLE   35 ..............................
........................................................................

 iter      E             dE          RMSdq      gap      omega  full diag
   1  -3772.0971882 -0.377210E+04  0.224E-04   11.48       0.0  T
   2  -3772.0971882 -0.817863E-08  0.137E-04   11.48      12.3  T
   3  -3772.0971882  0.427463E-10  0.208E-05   11.48      80.9  T
     SCC iter.                  ...        3 min, 51.072 sec
     gradient                   ...        4 min,  5.439 sec
 * total energy  : -3716.2560057 Eh     change    :  -0.4523924E-05 Eh
   gradient norm :     0.0021227 Eh/a0  converged?    E=T G=F D=F
   time step     :     0.6484356 fs     power     :   0.7567346E-10
   step length   :     0.0059023 a0     speed     :   0.2201747E-03

........................................................................
.............................. CYCLE   36 ..............................
........................................................................

 iter      E             dE          RMSdq      gap      omega  full diag
   1  -3772.0987507 -0.377210E+04  0.270E-04   11.48       0.0  T
   2  -3772.0987507 -0.349428E-08  0.159E-04   11.48      10.6  T
   3  -3772.0987507 -0.859472E-10  0.161E-05   11.48     104.8  T
     SCC iter.                  ...        3 min, 47.471 sec
     gradient                   ...        4 min,  5.748 sec
 * total energy  : -3716.2560121 Eh     change    :  -0.6373048E-05 Eh
   gradient norm :     0.0018474 Eh/a0  converged?    E=F G=F D=F
   time step     :     0.7132792 fs     power     :   0.1035917E-09
   step length   :     0.0065581 a0     speed     :   0.2223991E-03

........................................................................
.............................. CYCLE   37 ..............................
........................................................................

 iter      E             dE          RMSdq      gap      omega  full diag
   1  -3772.1022689 -0.377210E+04  0.354E-04   11.48       0.0  T
   2  -3772.1022689 -0.154919E-07  0.205E-04   11.48       8.2  T
   3  -3772.1022689 -0.245564E-10  0.362E-05   11.48      46.5  T
     SCC iter.                  ...        3 min, 45.217 sec
     gradient                   ...        4 min,  6.404 sec
 * total energy  : -3716.2560191 Eh     change    :  -0.7075629E-05 Eh
   gradient norm :     0.0014189 Eh/a0  converged?    E=F G=F D=F
   time step     :     0.7846071 fs     power     :   0.9169535E-10
   step length   :     0.0075105 a0     speed     :   0.2315429E-03

........................................................................
.............................. CYCLE   38 ..............................
........................................................................

 iter      E             dE          RMSdq      gap      omega  full diag
   1  -3772.1058829 -0.377211E+04  0.347E-04   11.48       0.0  T
   2  -3772.1058829 -0.188716E-07  0.202E-04   11.48       8.3  T
   3  -3772.1058829 -0.361524E-09  0.379E-05   11.48      44.4  T
     SCC iter.                  ...        3 min, 45.556 sec
     gradient                   ...        4 min,  6.628 sec
 * total energy  : -3716.2560253 Eh     change    :  -0.6164147E-05 Eh
   gradient norm :     0.0017669 Eh/a0  converged?    E=F G=F D=F
   time step     :     0.8630678 fs     power     :   0.6811508E-10
   step length   :     0.0085359 a0     speed     :   0.2392323E-03

........................................................................
.............................. CYCLE   39 ..............................
........................................................................

 iter      E             dE          RMSdq      gap      omega  full diag
   1  -3772.1069061 -0.377211E+04  0.283E-04   11.48       0.0  T
   2  -3772.1069061 -0.870568E-08  0.166E-04   11.48      10.1  T
   3  -3772.1069061 -0.356067E-09  0.289E-05   11.48      58.2  T
     SCC iter.                  ...        3 min, 45.167 sec
     gradient                   ...        4 min,  6.766 sec
 * total energy  : -3716.2560327 Eh     change    :  -0.7432498E-05 Eh
   gradient norm :     0.0016927 Eh/a0  converged?    E=F G=F D=F
   time step     :     0.9493746 fs     power     :   0.8828941E-10
   step length   :     0.0095078 a0     speed     :   0.2422453E-03

........................................................................
.............................. CYCLE   40 ..............................
........................................................................

 iter      E             dE          RMSdq      gap      omega  full diag
   1  -3772.1047260 -0.377210E+04  0.351E-04   11.48       0.0  T
   2  -3772.1047260 -0.245614E-07  0.209E-04   11.48       8.0  T
   3  -3772.1047260  0.191449E-09  0.504E-05   11.48      33.3  T
     SCC iter.                  ...        3 min, 44.820 sec
     gradient                   ...        4 min,  6.807 sec
 * total energy  : -3716.2560413 Eh     change    :  -0.8557307E-05 Eh
   gradient norm :     0.0014060 Eh/a0  converged?    E=F G=F D=F
   time step     :     1.0443120 fs     power     :   0.7942686E-10
   step length   :     0.0108607 a0     speed     :   0.2515602E-03

........................................................................
.............................. CYCLE   41 ..............................
........................................................................

 iter      E             dE          RMSdq      gap      omega  full diag
   1  -3772.1028484 -0.377210E+04  0.368E-04   11.48       0.0  T
   2  -3772.1028484 -0.138925E-07  0.219E-04   11.48       7.7  T
   3  -3772.1028484 -0.281943E-10  0.308E-05   11.48      54.5  T
     SCC iter.                  ...        3 min, 43.894 sec
     gradient                   ...        4 min,  5.733 sec
 * total energy  : -3716.2560496 Eh     change    :  -0.8302231E-05 Eh
   gradient norm :     0.0016691 Eh/a0  converged?    E=F G=F D=F
   time step     :     1.1487432 fs     power     :   0.7395673E-10
   step length   :     0.0123135 a0     speed     :   0.2592838E-03

........................................................................
.............................. CYCLE   42 ..............................
........................................................................

 iter      E             dE          RMSdq      gap      omega  full diag
   1  -3772.1049188 -0.377210E+04  0.413E-04   11.48       0.0  T
   2  -3772.1049189 -0.209338E-07  0.240E-04   11.48       7.0  T
   3  -3772.1049189 -0.236469E-10  0.465E-05   11.48      36.2  T
     SCC iter.                  ...        3 min, 43.266 sec
     gradient                   ...        4 min,  5.880 sec
 * total energy  : -3716.2560595 Eh     change    :  -0.9935955E-05 Eh
   gradient norm :     0.0013158 Eh/a0  converged?    E=F G=F D=F
   time step     :     1.2500000 fs     power     :   0.7916810E-10
   step length   :     0.0138024 a0     speed     :   0.2670920E-03
 * RMSD in coord.:     0.0017459 a0     energy gain  -0.1113675E-03 Eh

........................................................................
.............................. CYCLE   43 ..............................
........................................................................

 iter      E             dE          RMSdq      gap      omega  full diag
   1  -3772.1053863 -0.377211E+04  0.698E-05   11.48       0.0  T
   2  -3772.1053863 -0.502496E-09  0.411E-05   11.48      41.0  T
   3  -3772.1053863  0.100044E-10  0.662E-06   11.48     254.0  T
     SCC iter.                  ...        3 min, 46.310 sec
     gradient                   ...        4 min,  7.015 sec
 * total energy  : -3716.2560613 Eh     change    :  -0.1752045E-05 Eh
   gradient norm :     0.0013159 Eh/a0  converged?    E=T G=F D=F
   time step     :     0.2500000 fs     power     :   0.8896001E-10
   step length   :     0.0026491 a0     speed     :   0.2563147E-03

........................................................................
.............................. CYCLE   44 ..............................
........................................................................

 iter      E             dE          RMSdq      gap      omega  full diag
   1  -3772.1058197 -0.377211E+04  0.665E-05   11.48       0.0  T
   2  -3772.1058197 -0.716227E-09  0.389E-05   11.48      43.2  T
   3  -3772.1058197 -0.545697E-10  0.814E-06   11.48     206.6  T
     SCC iter.                  ...        3 min, 51.168 sec
     gradient                   ...        4 min,  5.642 sec
 * total energy  : -3716.2560632 Eh     change    :  -0.1896999E-05 Eh
   gradient norm :     0.0012359 Eh/a0  converged?    E=T G=F D=F
   time step     :     0.2500000 fs     power     :   0.9684977E-10
   step length   :     0.0025662 a0     speed     :   0.2482952E-03

........................................................................
.............................. CYCLE   45 ..............................
........................................................................

 iter      E             dE          RMSdq      gap      omega  full diag
   1  -3772.1061545 -0.377211E+04  0.743E-05   11.48       0.0  T
   2  -3772.1061545 -0.792625E-09  0.436E-05   11.48      38.6  T
   3  -3772.1061545  0.645741E-10  0.809E-06   11.48     207.8  T
     SCC iter.                  ...        3 min, 43.620 sec
     gradient                   ...        4 min,  6.405 sec
 * total energy  : -3716.2560651 Eh     change    :  -0.1962254E-05 Eh
   gradient norm :     0.0011110 Eh/a0  converged?    E=T G=F D=F
   time step     :     0.2500000 fs     power     :   0.9935789E-10
   step length   :     0.0025133 a0     speed     :   0.2431800E-03

........................................................................
.............................. CYCLE   46 ..............................
........................................................................

 iter      E             dE          RMSdq      gap      omega  full diag
   1  -3772.1063517 -0.377211E+04  0.839E-05   11.48       0.0  T
   2  -3772.1063517 -0.727596E-09  0.492E-05   11.48      34.1  T
   3  -3772.1063517  0.186446E-10  0.800E-06   11.48     210.3  T
     SCC iter.                  ...        3 min, 46.738 sec
     gradient                   ...        4 min,  6.198 sec
 * total energy  : -3716.2560671 Eh     change    :  -0.1936592E-05 Eh
   gradient norm :     0.0010042 Eh/a0  converged?    E=T G=F D=F
   time step     :     0.2500000 fs     power     :   0.9647427E-10
   step length   :     0.0024853 a0     speed     :   0.2404624E-03

........................................................................
.............................. CYCLE   47 ..............................
........................................................................

 iter      E             dE          RMSdq      gap      omega  full diag
   1  -3772.1064049 -0.377211E+04  0.895E-05   11.48       0.0  T
   2  -3772.1064049 -0.612090E-09  0.525E-05   11.48      32.0  T
   3  -3772.1064049 -0.536602E-10  0.748E-06   11.48     224.7  T
     SCC iter.                  ...        3 min, 42.975 sec
     gradient                   ...        4 min,  6.073 sec
 * total energy  : -3716.2560689 Eh     change    :  -0.1830085E-05 Eh
   gradient norm :     0.0009699 Eh/a0  converged?    E=T G=T D=F
   time step     :     0.2500000 fs     power     :   0.9150792E-10
   step length   :     0.0024696 a0     speed     :   0.2389462E-03

   *** GEOMETRY OPTIMIZATION CONVERGED AFTER 47 CYCLES ***

------------------------------------------------------------------------
 total energy gain   :        -0.0005173 Eh       -0.3246 kcal/mol
 total RMSD          :         0.0022532 a0        0.0012 Å
 total power (kW/mol):        -0.0288970 (step)   -0.0001 (real)
------------------------------------------------------------------------

 FIRE (total)                  0 d,  6 h, 27 min, 36.916 sec
 setup                          ...        0 min,  0.138 sec (  0.001%)
 velocities                     ...        0 min,  0.003 sec (  0.000%)
 propagation                    ...        0 min,  0.005 sec (  0.000%)
 singlepoint calculation        ...      387 min, 35.938 sec ( 99.996%)
 log and printout               ...        0 min,  0.771 sec (  0.003%)
 preconditioner                 ...        0 min,  0.000 sec (  0.000%)
 model hessian                  ...        0 min,  0.000 sec (  0.000%)
 hessian update                 ...        0 min,  0.000 sec (  0.000%)

================
 final structure:
================
3536
 xtb: 6.6.1 (8d0f1dd)
C           55.87469812136656       66.12200702360458       37.42540860482165
C           55.88636506507257       66.60099322677570       38.87496899899985
C           57.04317709450289       67.57710940217940       39.09036745894839
C           56.02261152432865       65.43570191212366       39.86108772845759
C           54.90642756636660       64.38525579063500       39.82965675101830
C           53.54065319948139       65.01138322197509       40.11355592147603
C           55.17166503880435       63.28843663178980       40.87201714180850
C           56.40451812413935       62.41008775085395       40.62877110591451
C           56.26324741532981       61.60728000705475       39.33514507612208
C           56.61971165983066       61.42971294918799       41.79145429515739
C           56.84874438902594       62.05149349543454       43.17419023131424
C           57.98843927233441       63.06933248648453       43.14466407256242
C           57.19483541825780       60.97370408681630       44.21224793882703
C           56.18217794723284       59.83508411855282       44.37513385382098
C           54.78728420780212       60.37423925828348       44.69496015555550
C           56.60343532736943       58.88502688049912       45.50661351968962
C           58.02596072338293       58.31867273814954       45.43293880257721
C           58.28502273837391       57.60373299468044       44.10613393727475
C           58.27679891447971       57.33423542515937       46.58574787030842
C           58.07973643371554       57.88395829716313       48.00295845960336
C           58.93451037783983       59.12818582937292       48.24673004035244
C           58.44505750132851       56.83395277069860       49.06179905281638
C           57.65508843576473       55.51705574059849       49.04917197068464
C           56.17091833984948       55.76356615789932       49.30231596550488
C           58.27056212081769       54.60222325604834       50.11799765838323
C           57.71613107454756       53.17595635547673       50.25198366112360
C           58.45967110259124       52.49323497286095       51.40008695309783
C           57.86056103655358       52.38471927659885       48.94888370077079
C           57.29900452407941       50.95531340681826       48.95466607171447
C           57.52306472253228       50.34071354155840       47.57253612248047
C           55.84072304584199       50.84653885060331       49.43644788634335
C           54.79313254751301       51.76499403642625       48.78601903567021
C           53.68011928345156       52.04625492363407       49.79712491288516
C           54.19408839640995       51.16106554237533       47.50853160436899
C           53.54643531645845       52.19561400963819       46.57386957693090
C           52.62240670077129       51.49068951854843       45.58327652274233
C           54.62970301658704       53.00050807689252       45.84574662208433
C           54.15467372068760       54.16144427141774       44.95798941667202
C           55.38502256734455       54.80560112357075       44.32030141388401
C           53.35533061716037       55.18653867629795       45.76925168154068
C           52.82817520981707       56.41139750265923       45.00534556515395
C           52.16186944050375       57.35400963666779       46.00717579534296
C           51.85829582398404       55.98121080083566       43.89681974766072
C           51.07171899870504       57.09968477119433       43.19579292127350
C           50.09841542285730       56.46173892572303       42.20410981180056
C           52.01872210686442       58.08247515050268       42.49737414633764
C           51.36880590338736       59.33852030817182       41.89769793076167
C           52.39488010096267       60.05131154285399       41.01615242208329
C           50.85856398033540       60.27861629610883       42.99734509810330
C           49.86967104807945       61.34833647491829       42.51461919685703
C           49.65173962770825       62.37428399188925       43.62749060573291
C           48.53164944201099       60.72363604109682       42.07289650984811
C           48.11835885570678       61.07876729654532       40.64025523081860
C           47.74496005495437       62.55822511765564       40.54160797332261
C           46.92569921306375       60.23429080161375       40.16737396892808
C           47.19498961330431       58.75278508255497       39.86003449184329
C           48.17769284391452       58.59541762263163       38.70373240387377
C           45.84566451254901       58.09229373228723       39.53832670508964
C           45.84605462909331       56.59124234395398       39.21236330880406
C           44.45096385411115       56.21491385676932       38.70883488369632
C           46.22656228988387       55.73768459481916       40.42819838200371
C           46.57120620085807       54.28085599089663       40.08381115631558
C           46.49357145964797       53.42638647701760       41.34879047201140
C           47.96008133212460       54.15615895139361       39.42866252145034
C           47.97703078564786       53.34718674853457       38.12460907022238
C           47.52829401856752       51.90704580959912       38.36557550102459
C           49.38521831739619       53.34027581989618       37.51185057492391
C           49.79344672897337       54.64863096236340       36.81857312852372
C           49.30174966075625       54.66296417950964       35.37278841145181
C           51.31715527662925       54.82906085644028       36.87227961908241
C           51.79803345142265       55.29646795209379       38.25500603368467
C           51.74327825074974       56.81971502387208       38.34229328794370
C           53.20020190992501       54.76583906888837       38.57795719581001
C           53.58136599573191       54.91220130473408       40.06315775724120
C           54.60588053655398       56.02963847074471       40.26059503249926
C           54.16019980454215       53.61714889474082       40.64852900926375
C           53.23668220753743       52.39246028443085       40.66692349686743
C           51.91190204296421       52.68034438798155       41.37310121406275
C           53.92424406983479       51.22075832362654       41.38403451169230
C           55.27526714815875       50.77336605517225       40.81576979867157
C           55.17031194595496       50.39676856503640       39.33815243785504
C           55.82005386004101       49.56809895198720       41.59479196291606
C           56.11515141194898       49.79428460199746       43.08300985093232
C           57.09909591962759       50.94377159472295       43.28583960120362
C           56.68760170886572       48.50998297783320       43.69968411664156
C           55.63044029748167       47.44630877310675       44.02098286707047
C           55.03045442389325       47.70253848318679       45.40161962560322
C           56.22533978379889       46.03341431426106       43.97662327470827
C           56.47350704807797       45.48739738193073       42.56956754315334
C           55.18987546490868       45.17162592475775       41.81012438104571
H           55.86044311997374       66.97239516701747       36.74694373186514
H           56.76443357915370       65.53156364102880       37.21471966764673
H           54.99871170001445       65.51257001477019       37.21922417329201
H           55.42227504726777       44.72620135025645       40.84548965466425
H           54.57733986068743       44.46870475048038       42.37056963400043
H           54.60585143289067       46.07099674391445       41.63113909043508
H           57.16639911011643       46.03620417732996       44.53132771651870
H           55.54622580362623       45.35263190836671       44.49413297735796
H           57.43043138357032       48.10080056579625       43.01361790717623
H           57.21212930240824       48.76095433233373       44.62394774690928
H           55.18371213134846       50.03805914669342       43.60311951341309
H           58.00601885814229       50.76539074393033       42.71422855187475
H           56.67030565749906       51.89094888011250       42.96892126298212
H           57.37124405859171       51.02889179864739       44.33583965511829
H           55.10774351492547       48.74595279019174       41.49419611099804
H           56.74884581274931       49.24795154179947       41.11404753373549
H           54.06179124122463       51.50909761709169       42.42804816159391
H           53.24744375877672       50.36175580838342       41.36773088047193
H           54.82354309877073       47.50838902837241       43.28618681372068
H           54.64076591706503       48.71441685737314       45.47550424311357
H           54.21679812487096       47.01031160256716       45.60048238535509
H           55.78759593747083       47.56821415391209       46.17170062890981
H           55.99207090472746       51.59311881766597       40.90622540755875
H           54.91123637722807       51.25848019692678       38.72869017081497
H           56.12006387286684       50.00582196068075       38.97747165889348
H           54.40964001071858       49.63270942468804       39.19651327793520
H           53.00727652344026       52.08827340669643       39.64170695478590
H           52.08522720538390       53.07587555953980       42.37135223907638
H           51.31670368361861       53.39874244037031       40.81677017125057
H           51.32973767019730       51.76648414957918       41.46977334031875
H           55.05841166855178       53.37210418530465       40.07876746014475
H           54.46894167819389       53.81991798546109       41.67698471924970
H           52.68512882702824       55.17552949121524       40.63129222117021
H           54.78432143666868       56.20696524743683       41.31989257347434
H           55.55197651859422       55.75639345143034       39.80017114300324
H           54.26268571515411       56.95845142138764       39.81229325691388
H           53.23539642941212       53.71147993716012       38.30126109729086
H           53.93232139251452       55.28333581536145       37.95434998289263
H           51.10912786428761       54.88964397814412       39.00304062510762
H           52.50534930818171       57.26414074899505       37.70450860849041
H           50.77316932915718       57.18573127514945       38.01578598693580
H           51.90206400143808       57.15811984850379       39.36256628513330
H           51.78529835890865       53.87726026894209       36.61090174808739
H           51.62680844761184       55.55843939857395       36.12132132897118
H           49.33019189322204       55.49258146182186       37.33858485644100
H           48.23044052512540       54.48040074272875       35.32900182080917
H           49.50254912231388       55.62587806075532       34.90777628923983
H           49.80502257993582       53.89134304435840       34.79323248725349
H           50.09699160217204       53.10314463057211       38.30549581338703
H           49.44918771877254       52.53537257697167       36.77544115812840
H           47.28260725442995       53.81169357333233       37.41566205228564
H           46.50994999945661       51.87104573459990       38.74313951222305
H           47.56376916601049       51.33412605452567       37.44094785783393
H           48.18391899221808       51.42954064208722       39.09173655322967
H           48.35089581265687       55.15331037481894       39.22338304744075
H           48.64862916346632       53.68702708676190       40.13592320569320
H           45.81743624950303       53.91052995481714       39.38417876563723
H           46.76295570609289       52.39445814990624       41.13960089870128
H           47.17447217051490       53.81252958191047       42.10526173508676
H           45.48466518881038       53.43692674480454       41.75470179788469
H           47.08193381957490       56.17961973132902       40.94115901357769
H           45.38725145857990       55.74572236175506       41.12833405319253
H           46.55647413511890       56.39900296912504       38.40412813013694
H           44.19550220303987       56.79315331576607       37.82351495180708
H           44.39548096303712       55.16148729385411       38.44758693003806
H           43.70443042314180       56.41600345365973       39.47499380891264
H           45.17518567878583       58.25203804892634       40.38649149637101
H           45.41487073574063       58.62091309467942       38.68362888620177
H           47.61900232636873       58.27625572345188       40.74865032679885
H           49.12503622475921       59.07937640405259       38.92703608003359
H           48.38106170615976       57.54471458877321       38.51566736946616
H           47.77068941958650       59.03614558096179       37.79595177288367
H           46.14692747164362       60.29050623460566       40.93159054715964
H           46.52351049177661       60.69169888256143       39.25952329713483
H           48.97037647526513       60.90106457607347       39.97732322530136
H           48.56813954840374       63.19122240124582       40.86238480506646
H           47.49529254757158       62.82324743522856       39.51634811739522
H           46.88180597716737       62.77342258288922       41.16923617601194
H           48.60240151701615       59.63914691228449       42.15787656404197
H           47.73919963952033       61.04848144877568       42.75101814114672
H           50.31548564502312       61.86949387314527       41.66234793423214
H           50.58885671660282       62.86206960295213       43.88884703335633
H           48.94614454390211       63.14028425253947       43.31515059005601
H           49.26045425822574       61.88951769462046       44.51969497198974
H           50.36489063050202       59.69845376946197       43.77916568383264
H           51.72039963478203       60.77233593236681       43.45392312431180
H           50.53172465773079       59.04021741534628       41.26191744188895
H           53.27174988537620       60.32195469323644       41.60165486843135
H           52.71532993032135       59.40730559159975       40.19970542505354
H           51.97840308608832       60.95744063086241       40.58286982401535
H           52.77854379994756       58.41351356406354       43.20652071209805
H           52.53350988039074       57.54295067653482       41.69963415134180
H           50.47994635787470       57.62930851860650       43.94674963098643
H           49.46820355586029       57.21147462486289       41.73422954039165
H           50.63758597739897       55.93455077731297       41.42042892562966
H           49.45153255834775       55.74853791792907       42.71138490654630
H           52.41935065738732       55.43784267835499       43.13428507756431
H           51.13398451074060       55.28620126539296       44.33161902216902
H           53.67647173648840       56.93718705559914       44.55832583027924
H           51.24738278177947       56.91371039559383       46.39795195514353
H           52.83232675590589       57.54357146629578       46.84308089169842
H           51.91630871518634       58.30794363335044       45.54908306775216
H           52.49529800346401       54.68718504413537       46.21825244311852
H           53.99268625563143       55.53739338918413       46.58562439845146
H           53.52335013470901       53.75808492003947       44.16212215742710
H           55.99694493674442       55.28036520445993       45.08487033993858
H           55.99539126058560       54.05603147632488       43.82036641063780
H           55.10248345383992       55.55744337708507       43.58772451225205
H           55.31844428950597       53.41478731047750       46.58515278193084
H           55.20102418497332       52.30946601779465       45.22040550299343
H           52.94246130376126       52.87354647349320       47.18254797852347
H           51.86999571971246       50.91050510394778       46.11213872530546
H           52.10798378472101       52.20633810362109       44.94824746267899
H           53.18768347487373       50.81252666420200       44.94712564360324
H           54.96284549655861       50.62828795162869       46.95205886103204
H           53.44103240479692       50.42465404107911       47.80087276825311
H           55.26539740421639       52.71633272678055       48.53762184616635
H           53.23795934870653       51.11152975217963       50.13574121448883
H           54.06822552879866       52.57712793136442       50.66435600209473
H           52.89546021537634       52.65334233132687       49.35326462701240
H           55.51783022789884       49.80917074054191       49.31798303967695
H           55.84364831694135       51.05210183093004       50.50944685958429
H           57.88805017195004       50.35874741205476       49.66044551186113
H           58.58956293541306       50.25968897457638       47.36925672356758
H           57.09061337980384       49.34387608389075       47.52072188907765
H           57.08004143836176       50.95716671371115       46.79488543479845
H           57.37309849097539       52.93673629395551       48.14444335102613
H           58.92289466613136       52.32260861833860       48.69637991485225
H           56.65834769464585       53.23636809651538       50.51611020649489
H           58.07490465728293       51.49404575855059       51.58068929167739
H           59.52184367590651       52.41799016973765       51.17336094477520
H           58.35207349114409       53.07015505873463       52.31634436592051
H           59.34389527166769       54.52804306089944       49.92045042049899
H           58.15216455079204       55.09356840993570       51.08702412929433
H           57.77655289290458       55.04654255943578       48.07012545572916
H           55.61783501955011       54.82874943838417       49.33649962838511
H           56.03167787246985       56.27955407676975       50.24950253981243
H           55.74473273253867       56.37515610414632       48.51019317100233
H           59.50529913877245       56.59683107524218       48.94994694299239
H           58.31788394075419       57.29122097600551       50.04603437266420
H           57.03119320097321       58.16036259056478       48.13741477326997
H           59.98403082557704       58.91322607378356       48.05602070773125
H           58.62786606066660       59.94845698860527       47.60380621059893
H           58.83414842835483       59.45637567408817       49.27949670912111
H           57.61209495708086       56.47932965155063       46.44700403784936
H           59.30296123313236       56.96661965714684       46.50444913881000
H           58.74280277630447       59.13828722977066       45.52050138661661
H           58.23354494043647       58.29538133565651       43.26981321970740
H           59.27695024435104       57.15506751684102       44.10651716657632
H           57.55475060756991       56.81414188119845       43.94456559611575
H           56.49700367745668       59.42852489579291       46.44656893957828
H           55.89966177994700       58.04845517283706       45.52901455929646
H           56.12778323174379       59.26479621330308       43.44369139731381
H           54.36945955150384       60.91804809426131       43.85159015153792
H           54.11239502979461       59.55781627202445       44.94210008960351
H           54.82765001153034       61.04709872025497       45.54949442448813
H           58.16106182670125       60.54939957000742       43.93464385703976
H           57.31717775684574       61.46226363241073       45.18358783965655
H           55.93793645557023       62.56418164179497       43.49626963319862
H           57.72662755852033       63.93891178622715       42.54872414713690
H           58.21725305664453       63.40734627464936       44.15381207969018
H           58.88540703981828       62.61860857598671       42.72306698381502
H           55.75136161467419       60.76979502752462       41.83667629895815
H           57.48860259950682       60.80980671672822       41.55335033810530
H           57.29292703797718       63.03970700053814       40.54022440729698
H           56.23413643287341       62.26159699623199       38.46833452910277
H           57.10626059242151       60.93058959643607       39.21573695766658
H           55.34953851725021       61.01621439774781       39.35217105790890
H           55.26368209472432       63.77476743240327       41.84511790315644
H           54.29712099591991       62.63402634643146       40.91447584299925
H           54.86975803409617       63.92731291439632       38.83852157242882
H           53.25999692394363       65.71515449160511       39.33500498842351
H           52.77403351283490       64.24041598902095       40.15931983165176
H           53.55097935179438       65.53802844429480       41.06600774014428
H           56.97603454589165       64.94263903528667       39.65946195091200
H           56.07226490306810       65.85042796600671       40.87151148756084
H           54.95339950690354       67.13631763932253       39.07621421487458
H           57.05656325072359       67.93604472624152       40.11726978820570
H           57.99489797009731       67.09070888591521       38.88395479452797
H           56.94872263223905       68.43556981304981       38.42911880915773
H           57.06428420444157       46.19969569275448       41.99086662336190
H           57.06096834994432       44.56979155106763       42.65511583559829
[...]
  3287   6 C     3288   6 C                                       1.5275625
  3287   6 C     3289   6 C                                       1.5354841
  3289   6 C     3290   6 C                                       1.5310192
  3290   6 C     3291   6 C                                       1.5287383
  3290   6 C     3292   6 C                                       1.5351748
  3292   6 C     3293   6 C                                       1.5341943
  3293   6 C     3294   6 C                                       1.5275357
  3293   6 C     3295   6 C                                       1.5370830
  3295   6 C     3296   6 C                                       1.5360676
  3296   6 C     3297   6 C                                       1.5274695
  3296   6 C     3298   6 C                                       1.5339608
  3298   6 C     3299   6 C                                       1.5340650
  3299   6 C     3300   6 C                                       1.5298379
  3301   6 C     3302   6 C                                       1.5343944
  3302   6 C     3303   6 C                                       1.5290674
  3302   6 C     3304   6 C                                       1.5359787
  3304   6 C     3305   6 C                                       1.5351525
  3305   6 C     3306   6 C                                       1.5271207
  3305   6 C     3307   6 C                                       1.5370136
  3308   6 C     3309   6 C                                       1.5295864
  3308   6 C     3310   6 C                                       1.5352784
  3310   6 C     3311   6 C                                       1.5354049
  3311   6 C     3312   6 C                                       1.5268296
  3311   6 C     3313   6 C                                       1.5352646
  3313   6 C     3314   6 C                                       1.5365040
  3314   6 C     3315   6 C                                       1.5287106
  3314   6 C     3316   6 C                                       1.5336486
  3316   6 C     3317   6 C                                       1.5345970
  3317   6 C     3318   6 C                                       1.5288884
  3317   6 C     3319   6 C                                       1.5339070
  3319   6 C     3320   6 C                                       1.5361884
  3320   6 C     3321   6 C                                       1.5278742
  3320   6 C     3322   6 C                                       1.5341913
  3322   6 C     3323   6 C                                       1.5351528
  3323   6 C     3324   6 C                                       1.5286139
  3323   6 C     3325   6 C                                       1.5328094
  3325   6 C     3326   6 C                                       1.5360259
  3326   6 C     3327   6 C                                       1.5290476
  3326   6 C     3328   6 C                                       1.5399610
  3328   6 C     3329   6 C                                       1.5397837
  3329   6 C     3330   6 C                                       1.5273839
  3329   6 C     3331   6 C                                       1.5348395
  3331   6 C     3332   6 C                                       1.5374930
  3332   6 C     3333   6 C                                       1.5279124
  3332   6 C     3334   6 C                                       1.5329818
  3334   6 C     3335   6 C                                       1.5372093
  3335   6 C     3336   6 C                                       1.5291687
  3335   6 C     3337   6 C                                       1.5341934
  3337   6 C     3338   6 C                                       1.5353779
  3338   6 C     3339   6 C                                       1.5287852
  3338   6 C     3340   6 C                                       1.5324879
  3340   6 C     3341   6 C                                       1.5376950
  3341   6 C     3342   6 C                                       1.5288566
  3341   6 C     3343   6 C                                       1.5340315
  3343   6 C     3344   6 C                                       1.5363235
  3344   6 C     3345   6 C                                       1.5294974
  3344   6 C     3346   6 C                                       1.5327194
  3346   6 C     3347   6 C                                       1.5365355
  3347   6 C     3348   6 C                                       1.5286730
  3347   6 C     3349   6 C                                       1.5341642
  3349   6 C     3350   6 C                                       1.5359278
  3350   6 C     3351   6 C                                       1.5293907
  3350   6 C     3352   6 C                                       1.5316020
  3352   6 C     3353   6 C                                       1.5274753
  3353   6 C     3354   6 C                                       1.5242795
  3265   6 C     3355   1 H                                       1.0879754
  3265   6 C     3356   1 H                                       1.0881460
  3265   6 C     3357   1 H                                       1.0874882
  3354   6 C     3358   1 H                                       1.0876674
  3354   6 C     3359   1 H                                       1.0882453
  3354   6 C     3360   1 H                                       1.0880637
  3352   6 C     3361   1 H                                       1.0914774
  3352   6 C     3362   1 H                                       1.0917738
  3349   6 C     3363   1 H                                       1.0922722
  3349   6 C     3364   1 H                                       1.0935759
  3347   6 C     3365   1 H                                       1.0928162
  3348   6 C     3366   1 H                                       1.0879182
  3348   6 C     3367   1 H                                       1.0862999
  3348   6 C     3368   1 H                                       1.0881153
  3346   6 C     3369   1 H                                       1.0909853
  3346   6 C     3370   1 H                                       1.0937355
  3343   6 C     3371   1 H                                       1.0913546
  3343   6 C     3372   1 H                                       1.0936290
  3350   6 C     3373   1 H                                       1.0940472
  3351   6 C     3374   1 H                                       1.0863912
  3351   6 C     3375   1 H                                       1.0880792
  3351   6 C     3376   1 H                                       1.0880564
  3344   6 C     3377   1 H                                       1.0923434
  3345   6 C     3378   1 H                                       1.0878086
  3345   6 C     3379   1 H                                       1.0866744
  3345   6 C     3380   1 H                                       1.0884674
  3341   6 C     3381   1 H                                       1.0931080
  3342   6 C     3382   1 H                                       1.0864488
  3342   6 C     3383   1 H                                       1.0876646
  3342   6 C     3384   1 H                                       1.0882022
  3340   6 C     3385   1 H                                       1.0916593
  3340   6 C     3386   1 H                                       1.0934468
  3338   6 C     3387   1 H                                       1.0923972
  3339   6 C     3388   1 H                                       1.0882056
  3339   6 C     3389   1 H                                       1.0880381
  3339   6 C     3390   1 H                                       1.0863133
  3337   6 C     3391   1 H                                       1.0918940
  3337   6 C     3392   1 H                                       1.0929795
  3335   6 C     3393   1 H                                       1.0934281
  3336   6 C     3394   1 H                                       1.0870113
  3336   6 C     3395   1 H                                       1.0879842
  3336   6 C     3396   1 H                                       1.0867461
  3334   6 C     3397   1 H                                       1.0913973
  3334   6 C     3398   1 H                                       1.0936680
  3332   6 C     3399   1 H                                       1.0925205
  3333   6 C     3400   1 H                                       1.0867265
  3333   6 C     3401   1 H                                       1.0884060
  3333   6 C     3402   1 H                                       1.0879562
  3331   6 C     3403   1 H                                       1.0935055
  3331   6 C     3404   1 H                                       1.0926120
  3329   6 C     3405   1 H                                       1.0911869
  3330   6 C     3406   1 H                                       1.0880035
  3330   6 C     3407   1 H                                       1.0872852
  3330   6 C     3408   1 H                                       1.0883364
  3328   6 C     3409   1 H                                       1.0915733
  3328   6 C     3410   1 H                                       1.0915961
  3326   6 C     3411   1 H                                       1.0942910
  3327   6 C     3412   1 H                                       1.0882480
  3327   6 C     3413   1 H                                       1.0880504
  3327   6 C     3414   1 H                                       1.0877980
  3325   6 C     3415   1 H                                       1.0915838
  3325   6 C     3416   1 H                                       1.0931995
  3323   6 C     3417   1 H                                       1.0901248
  3324   6 C     3418   1 H                                       1.0870230
  3324   6 C     3419   1 H                                       1.0881155
  3324   6 C     3420   1 H                                       1.0880513
  3322   6 C     3421   1 H                                       1.0918572
  3322   6 C     3422   1 H                                       1.0931628
  3320   6 C     3423   1 H                                       1.0935248
  3321   6 C     3424   1 H                                       1.0879793
  3321   6 C     3425   1 H                                       1.0881240
  3321   6 C     3426   1 H                                       1.0865597
  3319   6 C     3427   1 H                                       1.0914802
  3319   6 C     3428   1 H                                       1.0925072
  3317   6 C     3429   1 H                                       1.0926502
  3318   6 C     3430   1 H                                       1.0884149
  3318   6 C     3431   1 H                                       1.0880059
  3318   6 C     3432   1 H                                       1.0870992
  3316   6 C     3433   1 H                                       1.0913395
  3316   6 C     3434   1 H                                       1.0925973
  3314   6 C     3435   1 H                                       1.0929312
  3315   6 C     3436   1 H                                       1.0868858
  3315   6 C     3437   1 H                                       1.0874810
  3315   6 C     3438   1 H                                       1.0876653
  3313   6 C     3439   1 H                                       1.0929202
  3313   6 C     3440   1 H                                       1.0933381
  3311   6 C     3441   1 H                                       1.0918428
  3312   6 C     3442   1 H                                       1.0865425
  3312   6 C     3443   1 H                                       1.0868474
  3312   6 C     3444   1 H                                       1.0887116
  3310   6 C     3445   1 H                                       1.0922914
  3310   6 C     3446   1 H                                       1.0932737
  3308   6 C     3447   1 H                                       1.0936309
  3309   6 C     3448   1 H                                       1.0882329
  3309   6 C     3449   1 H                                       1.0876588
  3309   6 C     3450   1 H                                       1.0882025
  3307   6 C     3451   1 H                                       1.0920781
  3307   6 C     3452   1 H                                       1.0926105
  3305   6 C     3453   1 H                                       1.0938179
  3306   6 C     3454   1 H                                       1.0884169
  3306   6 C     3455   1 H                                       1.0875500
  3306   6 C     3456   1 H                                       1.0879289
  3304   6 C     3457   1 H                                       1.0932612
  3304   6 C     3458   1 H                                       1.0931741
  3302   6 C     3459   1 H                                       1.0928082
  3303   6 C     3460   1 H                                       1.0879365
  3303   6 C     3461   1 H                                       1.0883163
  3303   6 C     3462   1 H                                       1.0868912
  3301   6 C     3463   1 H                                       1.0910524
  3301   6 C     3464   1 H                                       1.0930272
  3299   6 C     3465   1 H                                       1.0923368
  3300   6 C     3466   1 H                                       1.0879301
  3300   6 C     3467   1 H                                       1.0882962
  3300   6 C     3468   1 H                                       1.0882002
  3298   6 C     3469   1 H                                       1.0938373
  3298   6 C     3470   1 H                                       1.0934627
  3296   6 C     3471   1 H                                       1.0934829
  3297   6 C     3472   1 H                                       1.0861992
  3297   6 C     3473   1 H                                       1.0882974
  3297   6 C     3474   1 H                                       1.0875467
  3295   6 C     3475   1 H                                       1.0929672
  3295   6 C     3476   1 H                                       1.0924977
  3293   6 C     3477   1 H                                       1.0936026
  3294   6 C     3478   1 H                                       1.0865304
  3294   6 C     3479   1 H                                       1.0881973
  3294   6 C     3480   1 H                                       1.0871621
  3292   6 C     3481   1 H                                       1.0927349
  3292   6 C     3482   1 H                                       1.0932020
  3290   6 C     3483   1 H                                       1.0929348
  3291   6 C     3484   1 H                                       1.0858727
  3291   6 C     3485   1 H                                       1.0881515
  3291   6 C     3486   1 H                                       1.0888753
  3289   6 C     3487   1 H                                       1.0913256
  3289   6 C     3488   1 H                                       1.0935679
  3287   6 C     3489   1 H                                       1.0926291
  3288   6 C     3490   1 H                                       1.0882575
  3288   6 C     3491   1 H                                       1.0881515
  3288   6 C     3492   1 H                                       1.0867775
  3286   6 C     3493   1 H                                       1.0920344
  3286   6 C     3494   1 H                                       1.0941222
  3284   6 C     3495   1 H                                       1.0916689
  3285   6 C     3496   1 H                                       1.0888646
  3285   6 C     3497   1 H                                       1.0867661
  3285   6 C     3498   1 H                                       1.0873952
  3283   6 C     3499   1 H                                       1.0904567
  3283   6 C     3500   1 H                                       1.0938930
  3281   6 C     3501   1 H                                       1.0935493
  3282   6 C     3502   1 H                                       1.0880224
  3282   6 C     3503   1 H                                       1.0881742
  3282   6 C     3504   1 H                                       1.0855847
  3280   6 C     3505   1 H                                       1.0917747
  3280   6 C     3506   1 H                                       1.0939009
  3278   6 C     3507   1 H                                       1.0927714
  3279   6 C     3508   1 H                                       1.0860695
  3279   6 C     3509   1 H                                       1.0884047
  3279   6 C     3510   1 H                                       1.0886476
  3277   6 C     3511   1 H                                       1.0889223
  3277   6 C     3512   1 H                                       1.0909337
  3275   6 C     3513   1 H                                       1.0945552
  3276   6 C     3514   1 H                                       1.0879063
  3276   6 C     3515   1 H                                       1.0887255
  3276   6 C     3516   1 H                                       1.0860970
  3274   6 C     3517   1 H                                       1.0920564
  3274   6 C     3518   1 H                                       1.0942044
  3272   6 C     3519   1 H                                       1.0928671
  3273   6 C     3520   1 H                                       1.0882764
  3273   6 C     3521   1 H                                       1.0872862
  3273   6 C     3522   1 H                                       1.0873875
  3271   6 C     3523   1 H                                       1.0917163
  3271   6 C     3524   1 H                                       1.0928920
  3269   6 C     3525   1 H                                       1.0928153
  3270   6 C     3526   1 H                                       1.0879828
  3270   6 C     3527   1 H                                       1.0866959
  3270   6 C     3528   1 H                                       1.0883346
  3268   6 C     3529   1 H                                       1.0931755
  3268   6 C     3530   1 H                                       1.0928798
  3266   6 C     3531   1 H                                       1.0945043
  3267   6 C     3532   1 H                                       1.0881739
  3267   6 C     3533   1 H                                       1.0877957
  3267   6 C     3534   1 H                                       1.0860614
  3353   6 C     3535   1 H                                       1.0910029
  3353   6 C     3536   1 H                                       1.0927189

 * 2 distinct bonds (by element types)

   Z      Z             #   av. dist./Å        max./Å        min./Å
   1 H    6 C        2366     1.0900738     1.0988679     1.0833123
   6 C    6 C        1112     1.5325642     1.5400441     1.5231152


optimized geometry written to: xtbopt.xyz


           -------------------------------------------------
          | TOTAL ENERGY            -3716.256068912046 Eh   |
          | GRADIENT NORM               0.000969884855 Eh/α |
          | HOMO-LUMO GAP              11.478769870185 eV   |
           -------------------------------------------------

------------------------------------------------------------------------
 * finished run on 2024/10/04 at 21:07:30.686     
------------------------------------------------------------------------
 total:
 * wall-time:     0 d,  6 h, 54 min, 53.341 sec
 *  cpu-time:     1 d, 14 h, 12 min,  5.184 sec
 * ratio c/w:     5.525 speedup
 SCF:
 * wall-time:     0 d,  0 h, 17 min, 32.015 sec
 *  cpu-time:     0 d,  1 h, 55 min, 13.424 sec
 * ratio c/w:     6.572 speedup
 ANC optimizer:
 * wall-time:     0 d,  6 h, 35 min, 53.556 sec
 *  cpu-time:     1 d, 12 h, 15 min,  6.704 sec
 * ratio c/w:     5.494 speedup

