3864
 energy: -5104.043681774269 gnorm: 0.000993082210 xtb: 6.6.1 (8d0f1dd)
C           61.91581042269971       52.10607475059761       63.96392788143767
C           62.95283385288910       52.61435880654034       63.19272375046203
C           62.63588305095679       53.43270611489187       62.11724002089673
C           61.32085294053309       53.74112946493344       61.82231464512042
C           60.29631238602321       53.22737705993753       62.59599591849435
C           60.59974676416014       52.40351672968585       63.66445814476943
C           64.38983192776546       52.24245748349259       63.45783023799607
C           64.79928265078389       52.52510096351610       64.90323969680641
C           64.57783008204768       50.76228919864002       63.08631803005483
C           66.03562307248104       50.34026816202275       62.84755958759295
C           66.08775595136261       48.83521831005609       62.78434451688729
C           65.52026274241544       48.13379772474260       61.72726206786007
C           65.57745865548803       46.75283086738433       61.68658320294609
C           66.19854417965695       46.05471248839449       62.70701365066821
C           66.74832995639711       46.73973492597067       63.77425323125592
C           66.69075208018148       48.12033039298284       63.81014107576785
C           66.59590773915292       51.00258873925237       61.57993472251415
C           67.89872477550438       50.37248975232404       61.06993978678139
C           68.88182044585263       50.12765473765892       62.18665987997653
C           69.26327093101378       51.15111484852590       63.04629629552189
C           70.16743937519014       50.91866820616644       64.06644888930376
C           70.70992222340023       49.65672892540330       64.24025926759948
C           70.34382636190838       48.63239708345312       63.38485207470735
C           69.43751231160468       48.86784801891340       62.36622918660331
C           68.57392464565442       51.24573746051017       59.99879235218395
C           67.68820913907312       51.54067888013378       58.77681474358888
C           66.78301566095442       52.72927414836197       58.99088748383856
C           67.30361264897051       53.98426535899122       59.28769426009400
C           66.47331522607243       55.07933262833492       59.44664908003966
C           65.10289495640939       54.93953535772198       59.30874036714662
C           64.57085052707315       53.69842672269051       59.00433251073940
C           65.40615314477682       52.60660416010268       58.84777131473609
C           68.55922459098323       51.78660760646093       57.53252153514850
C           67.71075580467185       52.02286184900129       56.27559382845544
C           66.81779072401986       50.83607143580019       56.00558761556366
C           67.32525766843067       49.54421242950316       55.92356147020325
C           66.48099082906008       48.45939102824467       55.76307551649516
C           65.11238191565829       48.64929911220149       55.67171230262727
C           64.59831916290672       49.93347959851462       55.70293144484542
C           65.44640577339898       51.01455446208131       55.86588256938825
C           68.56993760607625       52.33928510944052       55.04103053103374
C           69.45058119547387       53.59570979088625       55.17875270124608
C           70.20632344965097       53.80575679620328       53.88988209984088
C           71.56006323691906       53.49961708209036       53.83184918963936
C           72.27922031700355       53.66366039799262       52.66172459641496
C           71.65202647451234       54.13926558684167       51.52397446971506
C           70.30371685905421       54.44858227270183       51.56954790393644
C           69.58620193905607       54.28038536952389       52.74041282869792
C           68.62392201094580       54.82386065996779       55.58486941183548
C           69.41106012187147       56.14426141040784       55.54981574657715
C           70.80052187974391       55.97970551394023       56.11090285051322
C           71.91101991884507       56.30257455362443       55.34325207267768
C           73.19068498076051       56.15178149713552       55.84775925436082
C           73.37924683358850       55.67336174783118       57.13231838841529
C           72.27953787588901       55.35180052217571       57.90976712475689
C           71.00275221068401       55.50697849101569       57.40256617510078
C           68.68002562549916       57.24558323609435       56.33774504106955
C           67.27666052449754       57.55088448911895       55.80303479396189
C           67.29729252069045       57.98816709105902       54.36086777386643
C           66.53523577053278       57.31728987888684       53.41336431087073
C           66.46687902308599       57.76605050488270       52.10735699621538
C           67.17132435557126       58.89297557980089       51.72317198555335
C           67.95824757365938       59.55377659199449       52.65078663481633
C           68.01788821877888       59.10625299287273       53.95777708050473
C           66.58571693369426       58.63064864448140       56.65177512984847
C           65.10002124359364       58.77113503329548       56.27659723517730
C           64.58990804605455       60.16407981412696       56.54358034190976
C           64.62734105354612       60.71487652301174       57.81906493988976
C           64.13453583035056       61.98566124273769       58.05593388924414
C           63.59670847566766       62.72822411305039       57.01857624517202
C           63.56404482382519       62.19481369299388       55.74170302155350
C           64.05850792935667       60.92353198257828       55.50817458736270
C           64.24686900358134       57.73392106088773       57.02003660478529
C           62.79077071139701       57.74055360746042       56.54075797141846
C           62.68402474384356       57.47157123181888       55.06084845971984
C           63.27090670405686       56.34911887345401       54.48760317705372
C           63.16918782753989       56.11174841517186       53.12896538958259
C           62.45531758896856       56.97888940906944       52.32002150066413
C           61.84990750634807       58.08814007180563       52.88292760771709
C           61.97199210541326       58.33560870482605       54.23932587569440
C           61.94377600274308       56.72204354549950       57.32075766822271
C           60.44007715053233       57.00214230902983       57.16403850065917
C           59.61977553808370       55.76169672938646       57.40840081631746
C           58.91987939449961       55.17300120053031       56.36308163811181
C           58.13089279308230       54.05667299543043       56.57869639953535
C           58.02444966960715       53.51255899486246       57.84654673881941
C           58.72434072469017       54.08584946304700       58.89542356429423
C           59.51902519375219       55.19638830806198       58.67432576685281
C           59.99487270517528       58.13666689662855       58.09788125537137
C           58.48803596060370       58.39183328411530       58.00903216091538
C           58.04070681943344       58.68741930960716       56.59812407713714
C           56.92921756805047       58.02824850615900       56.08705461765835
C           56.46971864512882       58.28833585726588       54.80972560587226
C           57.13086605231611       59.20180814204475       54.00752892118170
C           58.24107474083446       59.86417970137207       54.50157912869125
C           58.68319647846471       59.61776952193500       55.78989089344527
C           58.04501108479229       59.53133124227130       58.94137735721986
C           58.15929540506067       59.23805309268463       60.45045208509507
C           57.60021550399138       60.42947399491506       61.19030064408404
C           56.24174602283301       60.72522376378196       61.16493257947997
C           55.74728516915948       61.83536385209365       61.82487059027760
C           56.60345693299712       62.67349057365256       62.51836860822137
C           57.95808730112684       62.39166572890215       62.54701040994782
C           58.44956337172525       61.27883052853377       61.88733349999703
C           57.45558193368965       57.92932503198790       60.83728309860589
C           57.31234310439449       57.72339404342278       62.35288877206051
C           58.63765692795091       57.84243437041056       63.06045769447451
C           58.83459225467148       58.82583210143909       64.02139915343793
C           60.03660405062077       58.92191377911603       64.69990173691005
C           61.06133537397196       58.03107466897024       64.43038875582127
C           60.87911956707773       57.04939259811687       63.47162015638887
C           59.67831562377102       56.96142510001862       62.79174979129564
C           56.68227536427104       56.34875008850278       62.62450087457697
C           56.43210745711408       56.10178251488239       64.11865602975871
C           55.37413800393418       57.03826565369037       64.64526042110593
C           55.68609250986621       57.95979425478930       65.63635146412457
C           54.72939696329265       58.83551436302772       66.11833020714090
C           53.44165096931994       58.80390911770667       65.61357648559607
C           53.11648365293591       57.88585386848805       64.63107036409214
C           54.07404937879080       57.01084786559375       64.15314799776793
C           56.05369465763874       54.63621294039044       64.36953010621981
C           55.93652436777487       54.30673613786986       65.86265988542650
C           57.24175771529195       54.53042854264222       66.58083663017986
C           58.37800279381698       53.81290313163023       66.22924656698814
C           59.57838230044015       54.01395712634788       66.88506085933795
C           59.65534900465880       54.92738329456285       67.92287259954198
C           58.52669406200578       55.63830698502862       68.29273818677476
C           57.33099634408771       55.44287932897117       67.62341885071606
C           55.46249752410860       52.85406644300257       66.05765178232353
C           53.93099162913094       52.74504946634519       66.09193833485037
C           53.45997244501964       51.35648732568689       65.74374611341162
C           53.98523678559948       50.24467959905855       66.39406392236496
C           53.52409932483504       48.97225674652606       66.11342815645227
C           52.51212928885998       48.78783489815967       65.18586657739955
C           51.97962846310745       49.88370997694941       64.53060410748841
C           52.45845357118802       51.15418712755199       64.80282168406109
C           53.41964102547980       53.12777477272756       67.48954290787769
C           51.90766406412284       53.40824610442049       67.52099358277765
C           51.60650257158099       54.88710074836971       67.53313136733962
C           52.16437010134727       55.72123408769286       68.49584447475316
C           51.84974403684812       57.06659030704043       68.53796492293222
C           50.95985817822442       57.60292853021354       67.62342135781000
C           50.39543556476765       56.78501191707465       66.66191164671409
C           50.72100916113281       55.44058901522064       66.61815841477350
C           51.24770768969758       52.74879123303856       68.74395586449367
C           51.09137458563078       51.22670296059987       68.57887311232635
H           65.01423735980281       52.85183400559033       62.79735734934795
H           64.16696236776644       50.13951474061913       63.88448552666263
H           64.00341685227257       50.55648990477547       62.17830627486778
H           66.63990523198436       50.65533645936166       63.70336503212189
H           65.84638116536604       50.94187746448029       60.79104971685923
H           66.76763404497210       52.06138939869259       61.78054134034101
H           67.65901391396353       49.40381917617938       60.61792719693722
H           68.90046291491248       52.18174735184975       60.45443542728319
H           69.47192170533006       50.71860513425030       59.66552355838027
H           67.06592632849944       50.66045248940846       58.58126451403993
H           69.21397285974358       50.92782206293854       57.37644538298108
H           67.05646776216359       52.87954315796257       56.46351083910058
H           69.21784662740907       51.48757494949924       54.81995443566488
H           67.90365407155642       52.46677652813742       54.18408918830772
H           70.19425847979331       53.40931153610775       55.95905303954465
H           67.76532008808080       54.90968182388357       54.91798937293333
H           68.24649484762381       54.67203386186593       56.59769015417487
H           69.50160235745736       56.46848485397309       54.50776155654810
H           68.59342890612230       56.93898578199428       57.38264560918272
H           69.28901390188716       58.15178373844249       56.31261642271286
H           66.67901404971538       56.63804186851705       55.88086679189802
H           65.00476406225658       58.58528064391514       55.20162434355869
H           64.67980078045390       56.74119296042483       56.88766510734042
H           64.26213980493992       57.95976377199848       58.08866250532024
H           62.39189761237697       58.74181534402009       56.73380199581698
H           62.16784936518853       55.71633101085209       56.95669928582518
H           62.21069850091561       56.75803563781649       58.37948181977504
H           60.26182466748445       57.31242985799640       56.12883671285161
H           60.24726892183158       57.87887866139767       59.12785956900393
H           60.54009255981028       59.04907562571848       57.85176250373461
H           57.97118059377318       57.47831874259020       58.31706586497574
H           58.63557024146281       60.42480143196807       58.72124908262286
H           57.00311302408623       59.77227402516387       58.71750805959443
H           59.21738427898740       59.14634903575821       60.71757911204894
H           56.46071545615913       57.90731646850948       60.39151230030961
H           58.02126523805438       57.09074297143174       60.42694875693788
H           56.64058637126146       58.49303332719152       62.74803886610224
H           55.74030059841277       56.27749432389254       62.07752609550695
H           57.34296539976395       55.56723052733872       62.24271180012065
H           57.36836056828725       56.29867240889148       64.65343506673705
H           55.09964622978010       54.41050371826025       63.88999349696925
H           56.81154556320190       53.99412202777908       63.91493320608146
H           55.19251548005101       54.98300668759106       66.29689083668538
H           55.85707095697485       52.23110840033150       65.25103992675072
H           55.86281541756004       52.47349766587653       66.99907133352120
H           53.51370473920151       53.44913770768733       65.36341585862255
H           53.66448233172532       52.32226593965132       68.18451615261932
H           53.96228765977904       54.01008710200195       67.82905292911117
H           62.13877482924617       51.47082158723252       64.80887894638239
H           59.80489619155570       51.98185937440088       64.26180137707082
H           59.26516326674829       53.46220818450449       62.37281035095602
H           61.10233660874196       54.37554644001793       60.97736613912466
H           63.43113423853863       53.82896400165725       61.50165744477463
H           65.03427055635774       48.67210574673857       60.92653283248046
H           65.14163769307420       46.21689388351609       60.85528039022483
H           66.26285082610215       44.97706331258173       62.67130784103375
H           67.22917681911677       46.19856292665107       64.57558873542675
H           67.13203485480295       48.65173933382025       64.64124162544934
H           68.84659977604680       52.14062252078060       62.92299342311370
H           70.44994764193443       51.72427542502697       64.72934598439382
H           71.41460467429813       49.47462745769064       65.03840468495780
H           70.76269168474595       47.64483155576654       63.51253453133229
H           69.15074132201048       48.06103316281371       61.70583150100156
H           68.37120705770106       54.11117599089850       59.40198588623884
H           66.89700036113713       56.04607294605776       59.68055257479420
H           64.45399659765252       55.79249311488230       59.44061949869007
H           63.50332993619906       53.57526747193806       58.89066716364423
H           64.97968343577473       51.64327698059446       58.60824299204783
H           69.19374151087429       52.65408516493908       57.71358185404468
H           68.38929437555372       49.37422309397475       55.99973747907747
H           66.89373330666945       47.46244295646878       55.72840582406322
H           64.44743774188105       47.80249321078090       55.58342219325793
H           63.53512880174423       50.09242989276433       55.60725547153112
H           65.03231598182683       52.01292450872847       55.90172950232072
H           72.05984670203303       53.13513644814506       54.71873679692417
H           73.33206193589656       53.42247149322758       52.63926191936034
H           72.20621889869282       54.27055968024265       50.60599884050832
H           69.81489410031729       54.82492278713352       50.68370312697099
H           68.53493450949939       54.53021793273956       52.75786311913220
H           71.77138806336571       56.66762232688998       54.33553674320529
H           74.04278074197516       56.40465772620077       55.23386170742618
H           74.37715675943161       55.55102421763372       57.52710489365116
H           72.41899479021961       54.97737657302362       58.91414188508878
H           70.15261881293752       55.25302975402568       58.01914836733079
H           65.96931224469530       56.44369783262989       53.70371752008006
H           65.85513887812311       57.23641021749201       51.39213614317688
H           67.10625850914610       59.25510008183972       50.70797854901902
H           68.51963736862066       60.42910628323027       52.35719797003966
H           68.62605264083179       59.64203495454367       54.67175458030879
H           66.67685901327839       58.37324570931801       57.70906669672161
H           67.08918092695711       59.58701691545625       56.49837828331816
H           65.04773142830607       60.14768386324631       58.63683594001802
H           64.16973250768822       62.39851865103850       59.05394731664187
H           63.20903807546183       63.71943233400193       57.20311723934951
H           63.15293140140336       62.77378860843513       54.92680188499263
H           64.03146234703219       60.50882191667330       54.50959978866499
H           63.81531496372870       55.65368158767602       55.11173099058868
H           63.64156644863480       55.24582290145641       52.68530940966762
H           62.37043108283446       56.77421261463323       51.26278590307785
H           61.27630592504450       58.76752436604639       52.26769241693424
H           61.50423831830187       59.21203086166731       54.66549650214785
H           58.98723570865607       55.59449016076668       55.36995854755994
H           57.59817258369636       53.61993710802351       55.74769394612413
H           57.39994081184577       52.64868495615362       58.02245709387224
H           58.64569449154772       53.66483466299091       59.88767508804180
H           60.06163959216538       55.64086182434482       59.49660585884822
H           56.42040021934581       57.29834298743326       56.70250145721150
H           55.58999933167556       57.78239746730755       54.43930273457067
H           56.77198439524150       59.40041467814687       53.00692146893780
H           58.75493962862357       60.59139637128955       53.89098408503887
H           59.53695408540456       60.16396417180874       56.16500890248639
H           55.55413057431167       60.08845360809763       60.62948303351035
H           54.68732010941974       62.04381173758811       61.79622612829790
H           56.21765036758944       63.54109912747563       63.03352620354842
H           58.63482850033774       63.03941122130875       63.08556455376221
H           59.50861442164658       61.06310713294280       61.91947671644032
H           58.03604612844710       59.52133115117069       64.23807666641699
H           60.17189391776611       59.69260936138352       65.44508004412418
H           61.99707502919936       58.10077677569331       64.96559243818028
H           61.66955226602573       56.34389247343544       63.25688290257597
H           59.55080252235643       56.18778846055282       62.04960923804183
H           56.69272091881376       57.98945485463593       66.02983749354215
H           54.99141329969521       59.54743419839503       66.88781642159421
H           52.69570312813219       59.49132952547620       65.98249303112074
H           52.11215171979583       57.85402904327273       64.23481366665136
H           53.79956958997616       56.30264618879894       63.38403846619791
H           58.31828361737760       53.09007120145876       65.43042856235797
H           60.45717055091666       53.46271889862760       66.58078593823851
H           60.58986698094333       55.08364234065962       68.44163300487335
H           58.57912746047858       56.34951411375600       69.10460018237738
H           56.45430270436231       56.00680813246911       67.91027074422281
H           54.75904332849046       50.37892832039293       67.13522991518902
H           53.94815118126820       48.12052234603963       66.62710726617610
H           52.14309065082590       47.79396826134408       64.98251362020780
H           51.18405249429843       49.75596579771535       63.81042538970112
H           52.04110690327882       52.00080657302598       64.27528555986206
H           50.26729257545192       54.80833675948250       65.86712833301472
H           49.69191064838486       57.19405458515880       65.95073257752220
H           50.70151629916160       58.65068021657758       67.66593987387559
H           52.29319131334206       57.69845069392566       69.29402778631754
H           52.84567620751309       55.31128293135410       69.22686997344826
H           65.86393346335596       52.35034278517823       65.03842915857125
H           64.58745021591115       53.56174822939861       65.15807402115503
H           64.26098637477504       51.88349205836600       65.59674441945729
H           51.45038021914736       52.97362447125515       66.62665253851507
H           51.85542002696878       52.95830906204706       69.62581968344276
H           50.26552137980407       53.20006733510260       68.90349033479272
C           49.82676517205712       50.88876029911664       67.77651530129961
C           51.07622444096420       50.54305109151831       69.92123840375008
C           51.95737620915230       49.50171554685070       70.18461707909978
C           51.96323962762468       48.87017168479115       71.41561326782191
C           51.08536237190551       49.27373909086814       72.40650235303011
C           50.19979938624684       50.30795454419952       72.15458183046519
C           50.19501482322633       50.93555506913401       70.92181786197945
H           52.64691799278121       49.18587721512275       69.41421768313093
H           52.65541088167702       48.06188558881828       71.60433119837683
H           51.09076508238383       48.78602030321418       73.37021288084863
H           49.51113740034854       50.62767886071595       72.92348644143237
H           49.50134374858870       51.74305241540942       70.73911454817620
C           49.62260299623318       49.37885558738788       67.62171727056803
H           48.95994372011125       51.32726747010374       68.27367705285052
H           49.90798788864162       51.33597710315864       66.78331350298019
C           48.49168721116219       49.04082187192913       66.68996258824150
C           48.68668785956566       48.16377436085671       65.63112424830713
C           47.65033741266399       47.84179246837328       64.77218302990327
C           46.40031099519901       48.40937816791180       64.94676998322703
C           46.19091887872298       49.28052554813033       66.00218562809457
C           47.22402571036321       49.58478941554060       66.86988728789900
H           49.65844107964444       47.71425478414472       65.48817693678789
H           47.82130522041378       47.14342888281451       63.96651587945027
H           45.58962574949705       48.17474917760129       64.27148825068259
H           45.21495588699920       49.71872198787496       66.15151661716818
H           47.03959467917696       50.24985784681668       67.70118946859078
H           51.95082383182113       50.84498862889254       68.01930129530608
H           50.54388478547427       48.92971147431525       67.24411142797474
H           49.42141602621593       48.94451060992390       68.60566322452564
C           51.07038719971735       38.51786048181167       55.44128119022005
C           51.94720845326721       39.11297510216111       56.33935598013235
C           52.53457253335004       38.31780966973569       57.31609669458894
C           52.25350565912958       36.96552170980213       57.39374723006279
C           51.39102905229856       36.38181640512578       56.48201004594406
C           50.80001465957015       37.16319717286367       55.50454888693148
C           52.28746601424806       40.57645223515799       56.20973890789254
C           52.16106459242827       41.31362169229496       57.54404864327986
C           53.70925370264651       40.72243289521226       55.64602997820131
C           53.81176663929795       40.22520238015777       54.19718821371688
C           52.97167154667036       41.07187821160968       53.27249765488814
C           51.99851683744541       40.49356811396783       52.46724983607558
C           51.22768505194510       41.26421924118971       51.61409764237963
C           51.41897282416023       42.63300053482858       51.55354464562928
C           52.38471709638874       43.22286393165278       52.35042638385445
C           53.15649893301197       42.44811159241699       53.19555061880179
C           55.27053923893576       40.20222590853836       53.71775193370341
C           55.43443784869670       39.43267999260426       52.40063491659160
C           55.19750216985779       37.95375438013823       52.58713767270519
C           56.00093955815826       37.20096645672801       53.43624078518308
C           55.79828849403919       35.84082600830708       53.58320534754817
C           54.79016458497472       35.20770231570030       52.87736584434808
C           53.99009202597167       35.94309494387083       52.02073882423191
C           54.19422695213813       37.30412746837610       51.87880710257286
C           56.83701465995365       39.65753012936891       51.81473814989226
C           57.00157788287151       41.04979008115002       51.16793093735940
C           58.07379648643644       41.85786648968966       51.85338840976053
C           57.79230527992402       43.11049332005691       52.38402398990247
C           58.77596866891237       43.85481757103597       53.01296969722323
C           60.05872436803571       43.35090199574817       53.13449907671225
C           60.34585810992198       42.09594689891706       52.62368329025984
C           59.36678262209951       41.36141867709795       51.98065564563141
C           57.29634043361887       40.90463266084570       49.66581421664300
C           57.34077203870853       42.25379354554730       48.93827239948362
C           56.07760446330008       43.04308651010474       49.18769735935861
C           54.82332133843123       42.49740248949485       48.93795599288263
C           53.67323731611555       43.23435201987783       49.15302577966641
C           53.75532545129854       44.53466037218221       49.61901499812106
C           54.99643607639125       45.08622225668810       49.88194080983770
C           56.14503047154712       44.34529093314322       49.66542143685146
C           57.51879970220693       42.07705177345562       47.41969666137039
C           58.85365904294684       41.42577593910457       47.00170640800029
C           58.61532134884779       40.12707723252539       46.26678464981740
C           57.76744363456276       40.08515507518857       45.16494152937293
C           57.54200982698088       38.90192505327183       44.48773751633025
C           58.16889820226503       37.73653058832787       44.89588598785731
C           59.03147382995672       37.76933485733238       45.97659710158134
C           59.25307195524198       38.95662544997548       46.65451559430134
C           59.71724760660224       42.32372528934633       46.09622092859284
C           60.17293853520956       43.65312508048426       46.71689431690603
C           60.82404440222629       44.52298587642599       45.66642889147137
C           60.40413597925635       45.83571365737331       45.48384145028223
C           61.00777433543489       46.65360145000356       44.54406809969547
C           62.05162954577183       46.17187437520313       43.77435691605092
C           62.47910475577506       44.86733716545318       43.94598238457880
C           61.87054128596936       44.05131437086891       44.88232025742399
C           61.13731672123291       43.45002285483866       47.89543865653928
C           61.46930258887652       44.75909337493472       48.63350728388173
C           62.67322301640359       44.56227101385758       49.52227536732049
C           63.81445242458091       45.33697460518275       49.37331371281535
C           64.89093123650518       45.18742684911680       50.22929159326416