3864
 energy: -5104.230703335041 gnorm: 0.000903697238 xtb: 6.6.1 (8d0f1dd)
C           63.55671313523667       66.58059672042602       49.72658625752227
C           63.79475092264614       67.76273592839797       50.41954498404220
C           64.98747985868869       67.88615529937630       51.12038789802700
C           65.91710554552613       66.86010368578167       51.13185631054577
C           65.67142089776954       65.69337201494152       50.42944162375842
C           64.48797900033861       65.55872589456510       49.72407235909390
C           62.79891397990127       68.89652089074747       50.39569310092252
C           62.55998009169339       69.36739114998181       48.95789155940416
C           61.47353945546256       68.48616688295608       51.04935900816357
C           61.57782221885048       68.34170752429712       52.57481333716625
C           61.87517365294352       69.66856335302393       53.22135063874340
C           60.95501397068134       70.71029262481649       53.18558373138438
C           61.23683286126100       71.92522514077149       53.78306883800479
C           62.44842307532448       72.12256546194124       54.42387242600659
C           63.37394361539486       71.09409962567256       54.46394903422710
C           63.08618092760261       69.87853691946778       53.86863539028946
C           60.27841001610305       67.73011211082935       53.11358690752727
C           60.20446189699243       67.64164303937595       54.64541090954266
C           61.43801376566218       66.99254317645448       55.21510297670216
C           61.80568658470928       65.70179125793358       54.85587410103453
C           62.96583355239207       65.12784866284807       55.34137483127164
C           63.77097244491734       65.83322980120985       56.21961842937541
C           63.40614156028008       67.11230156425025       56.60331131548531
C           62.25254556350800       67.68765030404037       56.09956839247522
C           58.92626068354536       66.88065910489476       55.02536813924326
C           58.76226509968718       66.64636453148501       56.53440076116632
C           58.88044960695087       67.93232944009743       57.30816173953130
C           58.05821436490337       69.01827425583090       57.02705387897038
C           58.16657248842471       70.19571381084964       57.74320516540387
C           59.10118930327791       70.30807964029685       58.75872426267639
C           59.92801087452995       69.23602914750904       59.04656648947469
C           59.81923044929604       68.06110770339626       58.32456099665897
C           57.41545470839377       65.94633889821378       56.78324740397150
C           57.34032070044967       65.15798610358353       58.10280653626295
C           56.24707754423993       64.12764843408463       57.95413014923789
C           56.52456628336930       62.76798753984565       57.95176395669664
C           55.51658084959018       61.83868333221550       57.77019947384191
C           54.21048863723235       62.25463215922466       57.58626457738499
C           53.92250094104361       63.60860862007966       57.57027806907471
C           54.93275848884872       64.53326497282849       57.75578398414665
C           57.10185031397972       66.05545710886778       59.33231350776437
C           57.92693257968644       65.63554714181321       60.55971553641063
C           57.71314688579346       66.61827874644204       61.68243713814090
C           58.77081346989083       67.37267442006520       62.17194831810004
C           58.58707814534039       68.26469897260787       63.21383605465393
C           57.33590494396233       68.41808325785988       63.78506201382252
C           56.27103272935694       67.67799373442699       63.30050014455111
C           56.45912843584865       66.78925826147680       62.25850499782310
C           57.59140772075470       64.21313412054141       61.02347102062122
C           58.50239472899820       63.72472795921797       62.15692521631458
C           59.95681511161130       63.79824487711205       61.76503621354391
C           60.86180771446361       64.50436409988359       62.54670815264048
C           62.20193782643417       64.56527591714689       62.20476840220266
C           62.65988182342801       63.91654734562908       61.07129012066081
C           61.77022128993754       63.19941908012813       60.28938433054940
C           60.43358596373685       63.14036761985009       60.63667899379004
C           58.17393631747388       62.27382891389355       62.54514125978283
C           56.87431084597742       62.11099353107290       63.34747794943299
C           57.02367924035335       62.75167022480993       64.70200393919704
C           57.78520639513746       62.16541470128960       65.70647350907707
C           57.93089062666046       62.78085062939921       66.93609287380217
C           57.32582553796089       64.00174011831683       67.18245539502904
C           56.57617707003310       64.60324189759527       66.18711405096658
C           56.42748677998244       63.97964070304206       64.96135718448890
C           56.51868216734056       60.61875709678768       63.41302639324624
C           55.35389340971098       60.28422292711692       64.35335912838828
C           55.12060541614469       58.79289735127826       64.37186201325954
C           54.73258795202350       58.10969155939863       63.22516853223716
C           54.46577866110500       56.75342393234865       63.26357336353137
C           54.58110909065323       56.05400000520028       64.45310506884441
C           54.99173338500734       56.71815162862515       65.59558232297066
C           55.26382638092156       58.07422991003583       65.55218031630811
C           54.06816868194584       61.02695268739534       63.96323964660379
C           52.88926759284819       60.62857748975770       64.85909155656836
C           53.21675598083154       60.81298354955783       66.31918152730056
C           53.70257880172167       62.02608327574070       66.79599616615370
C           53.99595435775633       62.19810925207189       68.13571434740791
C           53.79331560924343       61.16168027506510       69.03167599488700
C           53.30177513516529       59.95262081491662       68.57205330265278
C           53.02199550672118       59.78000282589004       67.22749655190441
C           51.63105991269081       61.43768547149104       64.50942222581681
C           50.35605154494142       60.76987532897404       65.05543138329539
C           49.25514365298157       61.79741985445553       65.11887382688572
C           48.65150450731223       62.27133510413690       63.96015930820553
C           47.66396286957151       63.23778426346943       64.01710953797553
C           47.26576948850475       63.75467078201488       65.23862697162562
C           47.86236318402361       63.29447358442893       66.40023418032521
C           48.84679785378853       62.32351818143613       66.33772691074796
C           49.95177361891860       59.54357254449108       64.21194702218483
C           50.04992337565684       58.19340969088555       64.94109034564637
C           49.87571905642944       57.08963881574459       63.92612465889821
C           48.67582278629671       56.91404637358288       63.24568444631078
C           48.54165710964788       55.91540687734597       62.29780861021055
C           49.60223983794396       55.07051493855120       62.01917220623997
C           50.79899907455999       55.23115019663305       62.69422105623922
C           50.93373537051934       56.23779685788972       63.63519878565261
C           49.02224862640986       58.10107564960404       66.07966897894184
C           48.85952431909823       56.67458959399183       66.62114278157506
C           50.18573361698198       56.05800206376383       66.99657089014906
C           51.02678564755077       56.64501486784501       67.93384880238500
C           52.23013231568297       56.05305553038318       68.27138690848490
C           52.61429073827705       54.86315048914052       67.67852745064167
C           51.78689430132252       54.26785271038322       66.74456934386055
C           50.58428986241901       54.86373500834848       66.41332807487534
C           47.93078790396210       56.60547862667211       67.84390749832122
C           46.54361842826003       57.25178007773169       67.67970870429484
C           45.81653625327269       57.12179370110177       68.99386113412321
C           45.39884916840566       55.88683931330382       69.47424305242055
C           44.78419287194303       55.77869679431042       70.70819178313266
C           44.57038085571956       56.90507585500023       71.48372143622700
C           44.97996513139909       58.14155288226244       71.01535758854727
C           45.60154229025826       58.24450410297634       69.78382290236017
C           45.75767177175855       56.65463287940378       66.50639647479370
C           44.33055347885697       57.21920108394189       66.35020414367715
C           44.27570362110094       58.69666803371405       66.63277310304247
C           45.06229018814449       59.59752295693080       65.92426438588933
C           45.02818450113842       60.94895205668936       66.21243690692245
C           44.19266658972676       61.42699943406065       67.20728621885526
C           43.39666025516813       60.54233053975826       67.91423983580881
C           43.44558035098269       59.18851371107363       67.63170959284460
C           43.83850078281940       56.91576669323938       64.92654890484062
C           42.38752967776075       57.33062765343062       64.64656868310507
C           41.43987554322154       56.53942142000259       65.51238314857444
C           41.29947807260722       55.16646787977622       65.33942730840515
C           40.43276754857132       54.43333808281289       66.12871293936620
C           39.68179051554624       55.06780096773387       67.10440158841502
C           39.80440832818653       56.43493634061005       67.28221665825150
C           40.67662721951375       57.16269901600469       66.49039340473472
C           42.03452701403700       57.12841951354140       63.15644133997863
C           42.18303572230543       58.39315755491665       62.29630902656480
C           43.59256028633954       58.92321217407454       62.27553900547186
C           43.87913271625973       60.17792048575695       62.79695856342036
C           45.15961923793466       60.69947239554757       62.73082445717208
C           46.17631435884271       59.96739366902362       62.14521298141480
C           45.90615111823582       58.71098448785619       61.62950187080271
C           44.62593776458569       58.19423996413335       61.69569270999185
C           41.70682610444339       58.10378941862933       60.86296221140570
C           41.77346568815910       59.33837753406811       59.95092689765308
C           40.83343973927673       60.41262250317697       60.43301785039815
C           39.45955206757235       60.20415944154519       60.48341894097317
C           38.60419681432862       61.20065520607037       60.91808166837278
C           39.10963503203575       62.42920284940653       61.30991891740781
C           40.47614045693715       62.64778784337875       61.27068404930364
C           41.32775907647294       61.64640167442079       60.83787752162811
C           41.46799662821068       58.93109421055377       58.50082258340495
C           41.40792404420729       60.12372984430667       57.53573047256049
H           63.21591165533562       69.73671909313606       50.96307495979326
H           60.71381700343601       69.23399459973237       50.81407154226508
H           61.15095083973446       67.53342016061823       50.62700086689112
H           62.40602756406275       67.65923203177140       52.79912459088978
H           59.42656095798328       68.31362049894643       52.75903594717154
H           60.18527612042747       66.72725564235267       52.69659395274324
H           60.14163094165847       68.65696032203198       55.05215769842347
H           58.06853933160968       67.43814536392351       54.64398728741369
H           58.92916504040490       65.90657290599673       54.53172899965475
H           59.56919793668484       65.98010462442097       56.86021323338540
H           57.25080938582013       65.23707422820459       55.96699454161602
H           58.29908837462958       64.64273518346576       58.22979179062261
H           57.36915654323183       67.08619851558971       59.09368203071135
H           56.04217456019519       66.04662227698782       59.59306048330355
H           58.98621550466704       65.66541803834299       60.27884220270739
H           56.55634654585642       64.18663253617109       61.36227974537454
H           57.67671740311565       63.53081579747616       60.18052371977944
H           58.35150663336540       64.36748422699912       63.03230892275493
H           58.10204179055780       61.66932658350947       61.64115960703531
H           59.00035629435022       61.87389978534768       63.13577359187524
H           56.07171854213621       62.62665598855948       62.81466148435148
H           55.62984472830616       60.59967009836784       65.36618337402577
H           54.23197890798914       62.10157009411095       64.04111578801171
H           53.81438043424112       60.80055822832011       62.92687927085399
H           52.68017978976456       59.56935658112279       64.68244440312272
H           51.72188575008762       62.44215982519769       64.93080326898874
H           51.55136020452994       61.55336473018004       63.42687826254752
H           50.57396331195926       60.45099715411386       66.07938805501895
H           48.92142599411071       59.66481115423458       63.87164842239393
H           50.58681077811401       59.49072410663018       63.32526458968611
H           51.05181878118994       58.09253638274474       65.37192198093315
H           49.32259838577315       58.76764556833386       66.89027099579796
H           48.05718894187014       58.45508086520953       65.71454204549573
H           48.42505958333240       56.06011944251919       65.82671836121335
H           47.80566833534230       55.55236941342924       68.10458447092144
H           48.42283131216018       57.08864520093681       68.69239653040484
H           46.68605360061603       58.31995042828005       67.49081874074933
H           46.31295176154602       56.85611696027187       65.58956611155988
H           45.68828706749075       55.57147323182128       66.62137912484576
H           43.67522592461535       56.71317283411990       67.06814177911308
H           44.48290955475071       57.43776043468195       64.21749225254926
H           43.93399868397697       55.84183541306084       64.75894210311006
H           42.27847701577024       58.39242825456701       64.89446769624234
H           42.65012685061905       56.33026547807390       62.73878637723416
H           40.99130040185808       56.80815256039207       63.08926981317458
H           41.53228532784836       59.16791825314824       62.72066422867141
H           42.32002479241167       57.31267539735261       60.42760611331364
H           40.67842710497797       57.73868702470528       60.90199227529104
H           62.63615340977896       66.45249902161653       49.17640829906604
H           64.29597368064239       64.65270948196900       49.16826854972799
H           66.39754163194921       64.89296731239621       50.42616941548027
H           66.83810717000547       66.97624017681821       51.68624725069860
H           65.19290856928892       68.80003088429886       51.66172013515202
H           60.00487337157431       70.57381892653927       52.69011769771630
H           60.50882219529618       72.72339635195979       53.74995104834749
H           62.66958158292979       73.07196423540864       54.89012018364751
H           64.32207162999416       71.23875781383400       54.96294209803292
H           63.80994573966240       69.07588409607780       53.91187348904236
H           61.18039110742681       65.13788909287815       54.18091755548310
H           63.24604097536994       64.13097723231908       55.03252410102444
H           64.67980929449847       65.38970035680214       56.60217474600398
H           64.02672117505465       67.66875492788542       57.29233090669461
H           61.98216184838761       68.69259051983296       56.39457448578364
H           57.32546150369539       68.94751429643451       56.23626725253133
H           57.52161753068480       71.03081391645182       57.50825010826733
H           59.18614340349970       71.22671219900140       59.32147683065558
H           60.66211910015797       69.31797087001435       59.83593261681686
H           60.47340788835011       67.23076049470602       58.55376308102733
H           56.61041013613004       66.68099609934481       56.74669234086979
H           57.54204588772399       62.42706306646595       58.08950854580738
H           55.75450747281214       60.78613767098199       57.76419373925346
H           53.42108548700119       61.52950412339603       57.45740120439378
H           52.90951226711996       63.94513987726111       57.40524977688979
H           54.70250918064715       65.58862707087825       57.74111063452593
H           59.75260581755924       67.25558449361291       61.73400999609456
H           59.42342358965251       68.84160461728459       63.58368088893357
H           57.19155521299967       69.11165168729690       64.60125527286911
H           55.28975229933116       67.79729574035727       63.73966463354010
H           55.61507561152033       66.22492742672276       61.88942132295572
H           60.51072038288067       65.01714895634692       63.43290336394217
H           62.89009557225890       65.12396262529549       62.82473577364465
H           63.70454725864437       63.96877707044639       60.79799065844757
H           62.12042943204391       62.68681780018088       59.40431093102716
H           59.75612050041638       62.57262375338128       60.01762844685664
H           58.27272929029804       61.21778433886595       65.53270270581677
H           58.52344908865737       62.30772198466060       67.70683440650265
H           57.44238559108352       64.48290178947659       68.14344622561643
H           56.10792337434111       65.56154959688449       66.36557574991757
H           55.84509573097991       64.46288138506276       64.18934170416115
H           56.27537322031171       60.28513127779831       62.40341522888169
H           57.39385580152552       60.04850587371901       63.73419762657029
H           54.61793844759198       58.63988329687658       62.29301062929325
H           54.14838561523604       56.25156816954443       62.36084929185165
H           54.34408033497499       55.00168764954649       64.50012139626909
H           55.08657805783549       56.18209974219872       66.52918923806860
H           55.57426037673945       58.58828101230136       66.45272846391829
H           53.86684459547859       62.84854789226357       66.11537129727979
H           54.38716644231245       63.14451458047694       68.48235145544700
H           54.01917286717741       61.29639176005833       70.08022442932855
H           53.13925701686181       59.13837820544135       69.26450947454659
H           52.65760947387488       58.82190891129171       66.88324628392705
H           48.96820374170837       61.88745322596745       63.00269594081078
H           47.20090063561172       63.59592994691416       63.10727382369068
H           46.49474440414964       64.51122775609761       65.28593924241815
H           47.55663562284547       63.69108677818646       67.35846458715646
H           49.30788221905619       61.97272859061405       67.25136780494816
H           47.83684351342368       57.56302194669960       63.45437554921752
H           47.59987818511333       55.78477421413772       61.78487611306264
H           49.48777021885972       54.29215009382423       61.27874664518880
H           51.63027382157080       54.57025519968494       62.49699987027386
H           51.87364372657336       56.36430646193942       64.15362321169118
H           50.74464412083231       57.57491698422424       68.40806780355594
H           52.87357856078714       56.52246431686166       69.00315869980636
H           53.55318910669622       54.40249163721971       67.95136270900971
H           52.07563061374046       53.34062130634992       66.27127245451278
H           49.94505710279049       54.40216329078208       65.67628909191662
H           45.54847286509717       54.99536818376202       68.88349008420690
H           44.47465889703190       54.80840743996306       71.06801971409806
H           44.08967058169202       56.82027177432806       72.44796447557370
H           44.81801882784076       59.02769584605672       71.61306704013562
H           45.92182158761454       59.21457253308473       69.42820169592157
H           45.71538872553905       59.24577004690396       65.13976828926667
H           45.66320695336753       61.63158431821729       65.66754045301508
H           44.16522215870833       62.48366421115117       67.43352112151153
H           42.74311798902912       60.90608536697262       68.69527772233607
H           42.83683921008073       58.50056450274067       68.20286543764165
H           41.87143627390248       54.66229495565644       64.57462851348062
H           40.34235935374939       53.36574242091833       65.98929311727255
H           39.00123323915930       54.49884685674070       67.72230212415954
H           39.21872101970730       56.93771582434725       68.03980020947471
H           40.76504775303196       58.23127833497040       66.63351606630850
H           43.08954607565429       60.75763538052296       63.25684329972675
H           45.36214892111202       61.67973148156580       63.13772600024196
H           47.17442345705904       60.37682454646757       62.09479872504490
H           46.69342278772745       58.13835725016115       61.16417974923826
H           44.42892048256100       57.21498209904304       61.28533285019792
H           42.39352122598940       61.82514422832192       60.80958310350049
H           40.87959650584622       63.60329112730005       61.57646143869361
H           38.44089354574427       63.20972818171453       61.64524161650537
H           37.53795476716409       61.02427377308999       60.94806193109907
H           39.04709486175972       59.25245437041033       60.17999222963373
H           61.92950269951219       70.25387688129092       48.95440484080907
H           63.50471850504291       69.61509559461258       48.47832488253051
H           62.07075334298543       68.59308208851368       48.37270916457984
H           42.79222756230702       59.73959698986729       59.98489251352641
H           42.23520702702428       58.22819265803328       58.17232319443744
H           40.50810918489521       58.41338836080483       58.47600775431457
C           41.17895574834589       59.67769762719542       56.08122811892120
C           42.65346120246372       60.97347119495311       57.60826736318023
C           43.91020317527420       60.45602656859639       57.31803617962690
C           45.04011773016705       61.25218097121046       57.37392411067361
C           44.93291104576958       62.58743431420923       57.72364060917776
C           43.68785718444351       63.11813104695118       58.01355107923043
C           42.56065173633898       62.31664835480800       57.95226936524892
H           44.01755896749732       59.41916589478459       57.04262952928901
H           46.00400554333635       60.82136414514611       57.14406606355217
H           45.80664045159374       63.22117655969464       57.77639820314958
H           43.59709507517681       64.15989936695905       58.28883563365505
H           41.59048920402183       62.73606993386780       58.18456864235453
C           39.85246621140016       58.93713052179797       55.88137807280493
H           41.17279250930946       60.57129898742379       55.45330409392884
H           42.00410621360052       59.04556064444452       55.74707496140562
C           39.51471258736221       58.76223667944789       54.42869544144648
C           39.01936290804372       59.83171014103306       53.69158691805814
C           38.67083164003039       59.67312789269074       52.36269756264836
C           38.81049097317013       58.43934419912136       51.74913128591828
C           39.31164075210985       57.37114372195018       52.47253380853353
C           39.66724196182654       57.53325183833210       53.79965969062511
H           38.89125600009092       60.79408083847611       54.16858736201281
H           38.27895819623572       60.51395797790799       51.80693938988234
H           38.52331924398780       58.30638723602499       50.71483101446687
H           39.41566411880711       56.40449900913899       51.99968303487805
H           40.04591295589159       56.68943962405003       54.35897948776977
H           40.55626250979123       60.75084881902273       57.82664573659154
H           39.89812219408486       57.95666770864066       56.35443256370118
H           39.05995372804713       59.51891853918457       56.35627170770621
C           58.74651182225135       46.83716283113318       31.58837888142486
C           58.90783231053236       48.11685482626436       32.10386940178297
C           57.79847840383947       48.95436397400803       32.14821500575700
C           56.56884785428845       48.52743487140567       31.68042862991027
C           56.42405135454210       47.25126784127941       31.16247524520680
C           57.51805503697439       46.40543503819479       31.11965219954501
C           60.26890094014938       48.59236766256186       32.54747027147452
C           60.73179005265197       49.74163666405111       31.64695603070815
C           60.29691537007633       49.02428990647028       34.01848095597031
C           59.96266173804720       47.86869489786023       34.98890289606280
C           61.03339062555514       47.74830426729395       36.04370894985939
C           61.30207813620218       48.80715043060837       36.90511349509564
C           62.31062115170548       48.71636237744936       37.84641055818088
C           63.08016124240602       47.56835175569356       37.93198906094498
C           62.81923508184692       46.50490048779984       37.08594231277876
C           61.79866402500615       46.59471186031778       36.15377279129682
C           58.58082636540068       48.07623232121767       35.62204930118653
C           58.13746206701254       46.89383999714667       36.48757783430582
C           58.04780655409311       45.61308069707349       35.69587899732646
C           58.71698551833421       44.47865266709798       36.13516876794065
C           58.60253171028246       43.27398893272720       35.46654002230387
C           57.80817753440201       43.18536405023757       34.33731871356488
C           57.14250748900126       44.31051782359295       33.88314545280564
C           57.26210722638259       45.51273900845476       34.55476869335622
C           56.76531203048444       47.14341599796318       37.13980907665870
C           56.72564515851414       48.21698804208128       38.24048240315314
C           55.29209717323631       48.43409142910190       38.66317748299223
C           54.67515918109689       49.66112177965189       38.45585020760809
C           53.37518719225388       49.88567534382049       38.87457478254324
C           52.66342588253403       48.87492559728260       39.49504904110862
C           53.25904840449230       47.63953387071306       39.68225382305924
C           54.56112105702331       47.42044001807945       39.27204924850916
C           57.59993630872398       47.85561267629335       39.44899076680839
C           57.54914391005779       48.92050060067206       40.55804554563145
C           57.89733897373082       50.28197103131449       40.01814014809900
C           56.97636670199859       51.32024757327115       40.08639382888813
C           57.27720258977138       52.57478300719514       39.58779482333451
C           58.50982306926566       52.80961927485281       39.00310336794861
C           59.43181213286726       51.77980157815028       38.92241363279904
C           59.13152592854714       50.52920565087164       39.43031717861520
C           58.48463894082440       48.50640444580208       41.70338257735396
C           58.59472135057361       49.53902032924491       42.83695677129368
C           57.24815722178424       49.97120188004781       43.35118898102618
C           56.87430471604299       51.30763832411698       43.32148416933796
C           55.65827559061566       51.71322809087447       43.84248878872944
C           54.79197584876487       50.78331339622217       44.39001660609726
C           55.15277055207638       49.44769392938153       44.42172950227317
C           56.37362184416665       49.04977502128163       43.91150956179738
C           59.43067622536188       48.93235332966010       43.97515174910878
C           59.46695985058818       49.79113082907194       45.24640706317959
C           60.09019532040080       51.13773949767827       44.97931968541729
C           61.38558897390177       51.24945027400709       44.48867575537076
C           61.93824606981291       52.48684376642687       44.21106865783869
C           61.20505176997604       53.63824577571748       44.43756692487612
C           59.92281268947129       53.54425607345409       44.95115159980402
C           59.37273912993181       52.30360455666682       45.21986018684623
C           60.21628440562314       49.05621857311993       46.37008480313810
C           59.38997651744639       47.91621640568613       46.98716544619776
C           58.11079773545598       48.42261747618044       47.60519838037655
C           58.12239617725043       49.42834880017118       48.56441297203342
C           56.94630130864420       49.88670589488817       49.12854908714852