3864
 energy: -5104.246495454696 gnorm: 0.000981345840 xtb: 6.6.1 (8d0f1dd)
C           48.52071885953779       58.50137396684272       65.12126179311362
C           49.17168428197367       57.31199494490297       65.42713039268324
C           50.35831876911979       57.37496660621613       66.14816944795585
C           50.88060206416331       58.59187718314819       66.54953969950790
C           50.21649291545129       59.76899517527171       66.24822370963355
C           49.03174733077231       59.71903474723860       65.53410327244275
C           48.56420410519588       55.99120811604848       65.02010423303263
C           49.59160842872637       55.06623607598739       64.36614800757542
C           47.92869480348959       55.33807260041760       66.25871869408624
C           46.97708637242696       54.17253424981249       65.93499332020352
C           46.81946444315192       53.30027717120868       67.15564163477963
C           46.22262863373723       53.77884802585491       68.31646601678331
C           46.09471280446227       52.97152249924439       69.43155761425271
C           46.56190873304693       51.66846656811985       69.40612499339213
C           47.16043291236541       51.18073277141655       68.25756658254905
C           47.28883355132900       51.99264512526570       67.14448481385310
C           45.61753241747938       54.68400715690554       65.44404690605380
C           44.61889169623711       53.54566677367785       65.19602127778968
C           45.09579874870887       52.61434433268442       64.11007061888766
C           45.35136899217483       53.07801903302137       62.82400017942788
C           45.79808875030839       52.22099253995610       61.83460813906047
C           45.99388371094715       50.87926419358669       62.11503315303774
C           45.73321248002427       50.40025328990599       63.38738474702333
C           45.28692860882745       51.26358592826157       64.37355935951553
C           43.21687763697037       54.10126801915327       64.88103588728859
C           42.10983735538721       53.25477968937812       65.52890978782560
C           42.22030192661293       53.36211912272571       67.02781430096597
C           42.63771052336266       52.27446327783534       67.78468010768859
C           42.77924616637956       52.37308285079444       69.15753161156941
C           42.50120334340712       53.56731970759483       69.79873735955152
C           42.08416404396321       54.65902224932219       69.05590747047198
C           41.94960720723319       54.55802186551232       67.68361088468178
C           40.73500270689574       53.69972055364607       65.01352241286567
C           39.56546527440527       53.01174218368099       65.73062007429421
C           39.68118201195801       51.51170740563698       65.64426716957072
C           39.58932941383550       50.86096938798174       64.41975995011090
C           39.66157849096549       49.48309445510500       64.34528478988233
C           39.83774659471233       48.72876782856402       65.49260153534254
C           39.92965616968446       49.36594038870079       66.71772754426227
C           39.84499719219895       50.74580399632745       66.79090024544453
C           38.20903262828413       53.46200204338769       65.15263728833457
C           37.55678336031490       54.60465394333080       65.94310823979448
C           38.37288644207354       55.86972266994119       65.88448868682835
C           38.87006726474631       56.43852448301423       67.05022632253767
C           39.65038153076638       57.58156897383837       67.00779479906213
C           39.94805745432470       58.17603670617874       65.79388131967939
C           39.44724666932999       57.62694913091489       64.62572168977181
C           38.66542346709726       56.48717289646131       64.67265176668619
C           36.12949621989763       54.83676815566437       65.42730129466858
C           35.32312910463433       55.78496047757887       66.32263378615279
C           35.30230015948538       55.31700031093998       67.75602439947272
C           35.66225225580366       56.18585783883101       68.77852375289866
C           35.62591458245295       55.78203705861969       70.10184160351643
C           35.22566797525779       54.49678786501590       70.42428579183860
C           34.86105645938005       53.62276900410947       69.41390138761321
C           34.89685412351810       54.03012919225237       68.09276996402188
C           33.87130477831339       55.92764725911523       65.83226273879649
C           33.73906414167558       56.73215954444472       64.52847026945811
C           34.19695614879160       58.14980241845218       64.75461155444967
C           35.46110265966152       58.54692950920890       64.33731432524479
C           35.91661831618757       59.83206461163660       64.56683878472691
C           35.10731941782092       60.75042700342301       65.21047720665676
C           33.84799974217168       60.36610794833740       65.63780681148131
C           33.40154879675143       59.07530859592831       65.41952200231189
C           32.29746040081159       56.64137040237855       64.00682277245858
C           32.00978376184311       57.53845952419806       62.79034215851455
C           30.54881003787156       57.44406858359834       62.42738556149612
C           29.98718509988169       56.24930094602241       61.99015953354362
C           28.64672879319860       56.17504474482538       61.65900203232115
C           27.84030231609938       57.29550703492241       61.76092097339568
C           28.38604148608597       58.48971246219207       62.19866127037817
C           29.72817972100083       58.55994171402394       62.52879932786809
C           32.89374865441957       57.16996076097595       61.59522124881563
C           32.64758353260122       58.06657766170655       60.37451015728116
C           32.95670290478402       59.50526458530514       60.70499650951582
C           34.20417906614711       59.88451361672561       61.18797079609470
C           34.46771566150552       61.20142224061180       61.51467064866694
C           33.49164985008257       62.16839708673937       61.34739217286362
C           32.25319768601298       61.80911079589355       60.84485098869441
C           31.99076550298829       60.48768154019820       60.52898475227852
C           33.49629451404772       57.60807628453200       59.17645013888293
C           32.95108011922238       56.32020507855871       58.53939063579659
C           31.67546907147269       56.62813993993166       57.79404303959851
C           31.67008401240888       57.41538931042282       56.64747890367571
C           30.48881069672899       57.69916255345505       55.98656103059198
C           29.28716445278533       57.20614574499116       56.46641864121587
C           29.27606110447669       56.42874750817128       57.61107167243300
C           30.46129547989963       56.14202279103777       58.26492886744273
C           33.97110900965643       55.61992408049984       57.62667842920762
C           35.28756432299244       55.22429791455690       58.31756096654234
C           36.17069175569387       54.47491085755266       57.34951127186267
C           35.86093200859438       53.18844533815006       56.92304887160707
C           36.72156125976944       52.48952089580932       56.09624615698194
C           37.90730342678286       53.06728787809440       55.67532714891320
C           38.20933437036739       54.35952952196201       56.06314908618598
C           37.34594172316780       55.05525682579469       56.89083320430488
C           35.05774993250011       54.40813990927875       59.59940852632308
C           36.37572246024789       53.92258687945504       60.22163548574945
C           37.32757847969847       55.08242523940925       60.40551266673535
C           38.58401607680677       55.07293288041945       59.81302844146663
C           39.44978832793075       56.14126497116868       59.97056392395162
C           39.07569182608627       57.24100547809728       60.72107899767744
C           37.82304875097309       57.26834092184511       61.30965332177844
C           36.96306629112591       56.19511354434797       61.15675931565667
C           36.17454044616838       53.22905874475106       61.58229388626221
C           35.07000883311064       52.16055762770004       61.64929908855509
C           34.98371293617883       51.66551941963876       63.07362203271897
C           35.98500673695451       50.87958232509161       63.63257735101271
C           35.90283436256724       50.44960747865672       64.94496356053415
C           34.81357593176983       50.79885440604494       65.72502779124110
C           33.81218492757741       51.58715317882164       65.18329350089414
C           33.90229606607576       52.01899805955463       63.87136248138222
C           35.26708767527053       50.99946807760164       60.66595617812446
C           34.07484933379956       50.02577583140328       60.70770186241241
C           32.79301535570240       50.77111746135697       60.43386018803871
C           32.59949126109495       51.45229484951547       59.23688371459914
C           31.45975237240524       52.20572663198785       59.02287481748871
C           30.48037757521336       52.27608436860373       59.99914808666408
C           30.64725483792303       51.58201971411738       61.18540053278581
C           31.79697555338321       50.84101494490177       61.39994192398001
C           34.27598286224131       48.86679089486934       59.72056367762969
C           33.28729474979274       47.71477283945286       59.96341098409830
C           33.57292261735493       47.08955682896513       61.30837001821688
C           32.66242338614909       47.18396930469696       62.35205547671634
C           32.93226444077431       46.61713896366000       63.58621561098931
C           34.11986930577404       45.93799846901630       63.79405352402711
C           35.03339808465444       45.82867935659011       62.75902722119828
C           34.76160242687922       46.40115966617702       61.53053536942961
C           33.35546693387778       46.62559569893857       58.87329992058308
C           32.44009697217419       46.85776630551727       57.65959265940276
C           32.83080006807498       48.08783737787314       56.88499469951152
C           31.94086517256016       49.14550256825812       56.75401163864838
C           32.28742426710969       50.28012981261907       56.04199062767119
C           33.54047585857226       50.38232543560480       55.46178480597337
C           34.43650168353967       49.33461084509700       55.58799258150593
C           34.08043494102115       48.19577244097089       56.28531201127547
C           32.46831501111486       45.60357845967935       56.76772271947922
C           31.64533095783578       45.72848312870416       55.47521175816752
C           30.21877067659305       46.11571123394960       55.76464208877341
C           29.39531424831130       45.30942454697818       56.54238486031592
C           28.08337927722086       45.66822311092026       56.79373029512171
C           27.57014169378180       46.84345335140173       56.27077353039967
C           28.38007254688297       47.65609469070845       55.49619150840014
C           29.69176216504489       47.29260680304208       55.24679450002985
C           31.70893092537327       44.40273563530853       54.70071494983794
C           30.94504662076269       44.42333293308700       53.36846908358552
H           47.77369201548730       56.20123163287096       64.29339535978313
H           48.72804465974071       54.97401227202431       66.90950933017616
H           47.38075530423544       56.10049047769355       66.81865580385715
H           47.42035054531849       53.56079572697838       65.14357509843416
H           45.19354776614473       55.34737910299486       66.20157586884592
H           45.75714424573550       55.26014274781868       64.52816739707033
H           44.55294266842355       52.97603375437923       66.12910066500461
H           43.13223958610020       55.12483964421587       65.25195664736299
H           43.06092713275333       54.13126993517614       63.80151457248134
H           42.26231394039175       52.20717425451894       65.24364825918765
H           40.68324477297642       53.47355585115827       63.94772359054539
H           39.60294590631316       53.29191447565017       66.78924274014190
H           38.33100083159744       53.75727255063708       64.10996802187648
H           37.52074660412482       52.61378177174257       65.17483680235257
H           37.48824221001863       54.28822860596068       66.99044284744328
H           36.18453792753133       55.25138478975753       64.42105833864858
H           35.61933964532584       53.87397145793268       65.36076871082832
H           35.79593811627562       56.77323509311239       66.29811486499412
H           33.44856181478016       54.93195540777233       65.68256643971550
H           33.28704225738654       56.42358612355986       66.61183261862976
H           34.39738876937049       56.27101781810899       63.78865738942310
H           32.22835729179884       58.57567275304417       63.06728943702957
H           33.93688353828718       57.26927335796902       61.89172684100512
H           32.70784660317064       56.12872942828657       61.33061824512394
H           31.58998610218927       57.99985037034732       60.09461230133937
H           33.50951631368395       58.40346572698900       58.42793617575552
H           34.52053934447036       57.46050562616378       59.51565697825024
H           32.69035643675610       55.61640004048100       59.33312555034769
H           33.49611725944325       54.72158354612530       57.22515396505134
H           34.21609724832111       56.26643512383078       56.78127207156320
H           35.81772966952355       56.14143922811048       58.59042121426038
H           34.53663344574473       55.02698600369144       60.32830037296874
H           34.42069464159525       53.55411609117235       59.37097863438253
H           36.83921049000406       53.21356467687090       59.52857040209086
H           37.12390095569990       52.78037119565877       61.88418411709241
H           35.92760246751160       53.98541174351054       62.33150173732601
H           34.11778449073978       52.64403731746094       61.41152085412509
H           35.37484563180704       51.39299243676943       59.65486457032715
H           36.17868969931104       50.45398648666002       60.91472583409504
H           34.02109784792123       49.60755575569259       61.72001023041590
H           34.16665922646122       49.22946616989522       58.69924363052868
H           35.29112922259326       48.48642083775697       59.84189096486483
H           32.27255999862798       48.12877930716529       59.97864764922096
H           34.38352021937728       46.51716037750843       58.52743391163005
H           33.06125645841061       45.67436983491904       59.32636173510479
H           31.41437511443908       46.99337305791720       58.02354699549064
H           33.50164570000906       45.37998081603801       56.49797014688631
H           32.09738214120003       44.75565427695501       57.34827358528634
H           47.59843587034721       58.47769146493025       64.55876506820722
H           48.50229920210685       60.63232171628897       65.30218048576822
H           50.61869208276156       60.71899597505798       66.57051762035337
H           51.80757431656723       58.62175881643612       67.10515239742617
H           50.88365703243027       56.46719276057647       66.40521123873174
H           45.84853057591632       54.79117819258254       68.35528939027067
H           45.62668307761509       53.36053054851343       70.32428050606987
H           46.46089135459955       51.03727182353339       70.27741219562704
H           47.52771673399874       50.16453432003689       68.22801612112700
H           47.75446711537376       51.60295576841428       66.24981696439201
H           45.20161297747067       54.12251297240925       62.58883430906358
H           45.99331235120104       52.60401343274577       60.84335018435929
H           46.34996197804485       50.20611836332664       61.34883986243884
H           45.87942356010478       49.35218144255949       63.61075869836301
H           45.09051726680875       50.88547000413568       65.36812895267623
H           42.84826629701067       51.33379125247808       67.29358536733041
H           43.10792130476083       51.51564960859773       69.72768800208236
H           42.60727352546844       53.64739537752915       70.87141426732600
H           41.86311107186221       55.59470611218043       69.55056869032832
H           41.61929421104483       55.41962774309346       67.12145134279538
H           40.63126937408476       54.77881523620394       65.13248407930631
H           39.45916170304115       51.43532525719560       63.51566652472868
H           39.57566941343091       48.99705302437358       63.38474280006668
H           39.90177088137241       47.65149030958164       65.43704129902369
H           40.06360924639005       48.78720753787359       67.62144622738207
H           39.91073513968541       51.23510962367170       67.75355109455097
H           38.64971480413722       55.97612494768524       68.00326349657259
H           40.03321557192154       58.00503096955318       67.92623976793976
H           40.57270543434830       59.05793885127007       65.76211885681947
H           39.67657084274884       58.08037138212061       63.67242539145524
H           38.29765838541609       56.06588949360224       63.74836660207798
H           35.97805956388264       57.19087735918005       68.53293909027532
H           35.91144593241959       56.47134915649402       70.88401644240471
H           35.19768407712026       54.17837636239977       71.45643468168140
H           34.54704661075296       52.61801380701896       69.65917708222818
H           34.61393294819923       53.33496024554603       67.31687334723503
H           36.10698825862984       57.83710540094306       63.84106362039821
H           36.90883090002588       60.11683985882058       64.25020897732374
H           35.45562646229856       61.75855993637223       65.38354086972265
H           33.21150827292734       61.07488877264581       66.14910922248751
H           32.42107314368030       58.79073475505238       65.77258172746997
H           32.09512223188273       55.60074303282473       63.74461704632139
H           31.60177658493262       56.91121556067583       64.80476375589004
H           30.59810861281576       55.36215428863757       61.90622834802085
H           28.22626416271155       55.23853845060765       61.32062271639181
H           26.79279129186735       57.23902839574253       61.50205789521112
H           27.76423323986403       59.36990735384122       62.28264573709112
H           30.14913191646636       59.49782845206590       62.86524294626231
H           34.98202225454389       59.14772059229389       61.31736124990491
H           35.43573734967651       61.47847268112099       61.90567710886447
H           33.69722670563092       63.19763540050661       61.60534175446746
H           31.48823956377843       62.55907914246119       60.69910557366568
H           31.01772772194948       60.21298332151164       60.14388916838828
H           32.59673264783054       57.81373607230961       56.26033945729765
H           30.50265947492349       58.30455224924133       55.09214555214698
H           28.36460390129864       57.43043452036024       55.94977304281131
H           28.34180766736570       56.04582948118295       57.99714495479543
H           30.44031918180985       55.53252677761825       59.15724327511357
H           34.94131158893391       52.72065398421795       57.24516682014699
H           36.47273327357225       51.48495887917966       55.78905515565818
H           38.58819125497114       52.51922988570361       55.04206817739508
H           39.12928682956173       54.81863293658446       55.73463764130408
H           37.59290361506948       56.06253208755870       57.19576090007265
H           38.88548842334239       54.22611460621056       59.21315531330824
H           40.42407939440094       56.12784783721600       59.50573411737030
H           39.76397418117754       58.06502424091613       60.84494811831389
H           37.51388489842402       58.12885674677600       61.88803451997754
H           35.98897016946214       56.23074216753040       61.62431629131103
H           36.84713489040016       50.59754653243328       63.04774447930769
H           36.69560076542950       49.84411238516039       65.36194517742409
H           34.74783659456172       50.46141758760290       66.74979321942268
H           32.95688030647204       51.86478111091069       65.78489293168199
H           33.11489381666481       52.63489219296917       63.45884494928820
H           33.34631215452291       51.39312255816703       58.45924693465643
H           31.33451239714133       52.74843004998847       58.09708190275250
H           29.59008056228690       52.86683923535279       59.83474296722249
H           29.88420661233572       51.62551053813581       61.95090001640794
H           31.93045529434185       50.31821972790710       62.33769608249732
H           31.72847799807334       47.70709256589117       62.19683752023901
H           32.21223181450233       46.70452451887918       64.38799619384743
H           34.33076508511506       45.49392861198098       64.75644736841272
H           35.95917456415853       45.29208516404545       62.91371553765766
H           35.48301266970072       46.30498200442938       60.73281524850171
H           30.96356097622290       49.08231282141114       57.21355451127994
H           31.56963777034190       51.08102411171421       55.94667450716378
H           33.82094834116900       51.27329447424356       54.91746983533478
H           35.41783680590714       49.39222236141749       55.13956194475048
H           34.79069183528325       47.38796828527123       56.36058778511777
H           30.31767745458693       47.93474141773166       54.64312297858654
H           27.98887578527071       48.57640798042701       55.08538897368280
H           26.54477337146045       47.12310023194399       56.46679299586335
H           27.45636775651012       45.02902023600400       57.39973030960049
H           29.77906588914888       44.38907284764157       56.95832575722813
H           50.18420334542964       55.61166535934432       63.63420588420175
H           50.26696987049449       54.65020121297577       65.11073314428123
H           49.09742780015776       54.24215679578742       63.85722635853417
H           32.08861556256842       46.51381821904747       54.85429075161406
H           32.75380195088390       44.15321459960888       54.50867323027535
H           31.29641596717462       43.60793836181973       55.32545201002948
C           30.86353921312671       42.99687420821094       52.79927255036654
C           31.58290613059169       45.34554941810697       52.35948109141322
C           30.89859761756321       46.46389076510803       51.89909008577123
C           31.43765185234301       47.27087322575255       50.91202694253179
C           32.67250519740905       46.96949321144950       50.36497742319826
C           33.36892832855526       45.86675050291028       50.82624424619014
C           32.83153304363015       45.06518851293599       51.81561949059255
H           29.92512376398692       46.69597647436853       52.31124253981659
H           30.88293696006082       48.12922212934188       50.55849417362483
H           33.08579657693206       47.58718484313027       49.58150635455366
H           34.33504197280820       45.62511287166937       50.41126992920037
H           33.39044651267280       44.20673977269114       52.15723096688802
C           30.20222336259538       42.95232269811390       51.41766492562307
H           31.86985505066284       42.58329647135990       52.73039577795943
H           30.29495408793920       42.36736477064698       53.48782823478371
C           30.36917438182952       41.62049975702955       50.74250911690281
C           31.63678478260609       41.15603063121288       50.40606765147293
C           31.79830318060117       39.95271892157417       49.74625371241940
C           30.69445124522549       39.18801071110569       49.40920346693807
C           29.42920507909547       39.63177819892572       49.75063859696282
C           29.27066636978412       40.83776167040215       50.41284626057523
H           32.50958187414681       41.74304655349727       50.65640353248044
H           32.79025929987005       39.61410229325818       49.48903015539931
H           30.81827981995179       38.25338888716740       48.88129920500701
H           28.56084581763728       39.03961602140351       49.49710446696626
H           28.27675454868871       41.17878701776982       50.66993540004960
H           29.92453248481921       44.77544497247749       53.56191212096972
H           29.14060525724748       43.19082385071169       51.51448555280882
H           30.65787286251161       43.71970800213576       50.78524034391179
C           28.73979012946320       53.30819096027732       52.54600935537616
C           29.98934432654042       53.20817650909279       53.14400062700348
C           30.69786384339292       52.02111130716970       52.99186106600929
C           30.17027366519711       50.96311741792982       52.27572236594406
C           28.92426503908718       51.07748716057667       51.68274471389316
C           28.21137485411449       52.25591406661325       51.81766654505208
C           30.56991822144721       54.36319842099567       53.92217326552986
C           30.97702598871810       53.93021960193829       55.33085852621355
C           31.77512759897021       54.94877490197615       53.17413188540209
C           31.35315588185152       55.68331486217742       51.88952604204547
C           31.04887944170199       57.13040187948804       52.17827518239469
C           29.76590291595667       57.63220250193296       52.00518940915868
C           29.48180683410256       58.96360936479338       52.25727352234918
C           30.48257601609758       59.81811370334670       52.68687052795043
C           31.76531408022555       59.32826364850751       52.86984683709859
C           32.04317332391987       57.99663505412521       52.62174652465366
C           32.43675554990330       55.54749707593634       50.81263509914195
C           32.08866578469542       56.27883045254247       49.50899376576096
C           30.75876980919772       55.81885562587444       48.97068814056855
C           29.73734921438078       56.73336568475044       48.74692193158304
C           28.51076291945311       56.32251287436182       48.25476304443991
C           28.28435182172257       54.98477851432604       47.97897559713614
C           29.29314429044477       54.06289748527043       48.20149544716200
C           30.51715891740669       54.47832797503762       48.69224401290817
C           33.20960098346833       56.05466602274476       48.48239685270322
C           32.94189703506905       56.74768829814214       47.14156492928126
C           32.71872395201799       58.23132791449144       47.30794361322235
C           33.65562805821817       59.04030372933622       47.94064611887269
C           33.45036122428713       60.40168659851152       48.06135595716972
C           32.30930851292727       60.98400010340124       47.53715205500952
C           31.37146947669626       60.19213843285708       46.89842708374515
C           31.57567881919771       58.82787279680405       46.79116879198630
C           34.09458881654248       56.55147174226024       46.13930279183617
C           34.53997672548888       55.09773384549057       45.90502984676683
C           35.69181169734659       55.11908060760643       44.92468827978581
C           36.96233856479340       55.41897977729018       45.40851445192767
C           38.05197885061578       55.48685552914899       44.56149370912649
C           37.90354790435426       55.22937773708815       43.20927461162943
C           36.64851282248618       54.91852593729062       42.71865427256659
C           35.55010957506766       54.88566566720841       43.56291059985058
C           33.36604049841505       54.21522588576338       45.47909763327518
C           33.77174020482555       52.75260193670512       45.25420549757423
C           34.44094199992001       52.18647904985368       46.48032409905268
C           33.75992264832296       52.04936868790001       47.68449773264567
C           34.40420014533851       51.58209961148467       48.81629531261558
C           35.74341395657210       51.23377684252303       48.76179001023850
C           36.42816212017274       51.34814629710463       47.56428338288636
C           35.78204327468718       51.82514760602648       46.43729785870637
C           32.54452584919272       51.93756072007283       44.82544867544650
C           32.92276342776807       50.57415161255162       44.22731953197579
C           33.93704197264805       50.77133205822454       43.13037437936887
C           33.65969180907288       51.57421176621364       42.02938654497910
C           34.63096290841658       51.83155832824976       41.07794147903236
C           35.89291166465850       51.27700323981750       41.20039392982230
C           36.17445023654274       50.46123760220176       42.28176825017214
C           35.20646852895987       50.21898841376831       43.23986255552940
C           31.65281169334842       49.87418101527897       43.72656927747833
C           31.83781782278194       48.40165616089839       43.32578216155314
C           30.59014388463224       47.92797671534757       42.62061336824908
C           29.37160439001680       47.86378390091173       43.28955316419439
C           28.22878519363914       47.42875702565060       42.64453165384671