3864
 energy: -5104.103215884154 gnorm: 0.000755336956 xtb: 6.6.1 (8d0f1dd)
C           48.50004824858301       58.42580809373842       65.02016339825869
C           49.17238474272278       57.24096705484728       65.29649480289369
C           50.39011074961183       57.31110049634353       65.96208555294244
C           50.92333765665545       58.53209880031164       66.33622157867023
C           50.23885567002953       59.70459297212819       66.06533962351358
C           49.02204700552068       59.64689007897751       65.40784202433373
C           48.54867403586336       55.91814401243407       64.92148914654121
C           49.55735177743891       54.96143361313782       64.28345925970547
C           47.91003537513128       55.30383669103870       66.17824871497120
C           46.94476030203406       54.14266175884708       65.88491645135781
C           46.75330346210544       53.31235964047333       67.13021219302243
C           46.16919233362804       53.84670222854970       68.27276591580278
C           46.00023644153077       53.07529289919222       69.40743030340926
C           46.41124606340634       51.75354387340683       69.41889886725522
C           46.99693828705426       51.21091742064561       68.28888133862895
C           47.16829678788198       51.98699354220590       67.15625777967445
C           45.59751566577863       54.65950045294208       65.36610318844676
C           44.59431606310539       53.52490921176030       65.12194278374423
C           45.07268964553641       52.58566159167692       64.04369860866635
C           45.33759078667693       53.04015716998997       62.75621589089548
C           45.79470129675056       52.17661459735568       61.77703495933959
C           45.99284146406195       50.83778178988958       62.07000863518913
C           45.72038434400619       50.36728412699915       63.34324336526955
C           45.26238550207828       51.23670337913446       64.31829908210395
C           43.19498627981053       54.08348933667128       64.80282049338136
C           42.08733023643218       53.23245325978178       65.44304895858103
C           42.20563999097448       53.31453893953170       66.94363211818340
C           42.60911066422685       52.20800357466774       67.68020197589220
C           42.75322467584810       52.28206914769227       69.05420523084472
C           42.49188977633475       53.46906831700186       69.71517061454661
C           42.09083692574772       54.57933378142316       68.99186664690983
C           41.95380438121543       54.50386048588183       67.61809860647622
C           40.71250877456583       53.69544021404054       64.94401331741648
C           39.54361180987465       53.00844795257960       65.66285908336951
C           39.64121541168541       51.50842957143087       65.55353544921599
C           39.52552377365257       50.87722801879484       64.32097155862104
C           39.57143936734650       49.49924643489587       64.22599659182762
C           39.74756948115441       48.72644731565989       65.36082763615171
C           39.86707242798342       49.34466906803926       66.59310103043133
C           39.80641001357471       50.72416026702627       66.68736388940373
C           38.18651175512389       53.47896229431707       65.10414376465104
C           37.55636790705561       54.62845210957671       65.90254594187135
C           38.39072596974152       55.88175557124585       65.84497263817971
C           38.90021158591750       56.43949356044624       67.01084723980901
C           39.69898971827636       57.56953099244394       66.96844970275083
C           40.00228043624747       58.16298004633605       65.75544697329545
C           39.48887725928731       57.62536219093369       64.58745057643002
C           38.68968603027907       56.49740890435839       64.63382136289053
C           36.13098195480202       54.88024121254441       65.39071584685492
C           35.33647560282950       55.83995964385963       66.28459745289449
C           35.32044663553441       55.37876480349205       67.72055990772894
C           35.69324204489671       56.25022551412219       68.73581724799745
C           35.66275526259702       55.85197712620010       70.06081459009509
C           35.25631504615094       54.57095808347745       70.39114782525282
C           34.87997831016295       53.69456553058495       69.38755863264198
C           34.90951109084149       54.09580532549499       68.06442699361612
C           33.88382332574665       55.99027824482926       65.79938594801270
C           33.75249553127596       56.76600763764954       64.47784344580963
C           34.22091676448732       58.18508906501962       64.67184046530939
C           35.49935857304158       58.55348333678683       64.27243480353806
C           35.96624955756723       59.83904487477628       64.47461159675485
C           35.15369170819520       60.78677057007052       65.06931425358746
C           33.88015251667195       60.43113571953261       65.47790896569853
C           33.42261441572207       59.13951533625819       65.29037327514078
C           32.31032268771690       56.67025357709529       63.95843438187546
C           32.02099771111099       57.55086472534565       62.73085822317326
C           30.56795202132479       57.42872201831255       62.34368621640843
C           30.02967813387018       56.21587167894315       61.92809563000160
C           28.69954612824369       56.11969400093033       61.56206981830002
C           27.88251409966666       57.23589044880656       61.60558743084877
C           28.40520025897386       58.44733803383893       62.02290049369626
C           29.73622039275662       58.53986847427270       62.38946806346375
C           32.92402807798226       57.19031075852823       61.54708721734101
C           32.67736823066007       58.08195470588964       60.32256562982212
C           32.97807807364373       59.52411215258850       60.64808773063749
C           34.21830312223727       59.91075087990250       61.14283949195566
C           34.46991436581298       61.22993870770177       61.47060558673762
C           33.49011165441185       62.19042029010000       61.28981723346246
C           32.26021715562343       61.82349016478002       60.77241030773552
C           32.00875422548147       60.50016511534301       60.45659940562165
C           33.52893086935575       57.62317991203005       59.12715882383361
C           32.98557633574474       56.33273779143242       58.49338439932385
C           31.70612585063857       56.63813674565548       57.75276288359903
C           31.69460461320425       57.41680256165242       56.60084539012880
C           30.50747627167480       57.70408217864964       55.95168873135515
C           29.30833581645984       57.22210152736095       56.44822901347086
C           29.30405876203699       56.45303193576913       57.59830548625406
C           30.49445365601182       56.16342881176686       58.24117342001774
C           34.00532550059030       55.63199364057123       57.58146178370288
C           35.32050373583464       55.23747743468671       58.27605431301326
C           36.20542302738013       54.48300327868873       57.31443377449648
C           35.89100858037297       53.19805280102408       56.88650489475732
C           36.75286155079186       52.49382933764662       56.06569583431838
C           37.94522994170019       53.06436656710335       55.65318932411880
C           38.25262634077217       54.35479729898583       56.04299484867274
C           37.38741751308338       55.05615850179077       56.86401706126107
C           35.08787815347534       54.42521924994059       59.56011763737280
C           36.40349980443150       53.93943813948410       60.18727268974273
C           37.35725737271129       55.09756421661938       60.37091654547781
C           38.61559615207276       55.08328947546081       59.78251022714700
C           39.48589355828080       56.14711682280256       59.94682853555910
C           39.11417635732976       57.24641240239522       60.69912501748854
C           37.85821235169839       57.27991820044108       61.28023831569762
C           36.99373123871788       56.21138228649228       61.12098474346916
C           36.19787414140208       53.25082827040918       61.55023296715430
C           35.08552532755265       52.19173868046960       61.62043289534719
C           34.98317473540968       51.70851910771417       63.04825110250827
C           35.96153855645988       50.90074250416176       63.61575441775579
C           35.86239895522326       50.48088509081359       64.93043268557425
C           34.77890594382204       50.86299982448047       65.70261606873623
C           33.80029702144733       51.67305929147201       65.15174738939440
C           33.90708138205970       52.09477366810973       63.83787334015479
C           35.28093791522981       51.02252527832315       60.64669772842530
C           34.08205624947709       50.05737173282201       60.69123476090265
C           32.80994813072681       50.81586159855894       60.40625882808047
C           32.62557106379829       51.48035772754434       59.19866256463897
C           31.50078138918920       52.25433546064708       58.97734967447443
C           30.52969243352823       52.36410008378471       59.95799591236089
C           30.68817095383456       51.68776922200131       61.15536715541801
C           31.82148501206661       50.92406389658238       61.37663749153273
C           34.28205348433306       48.88754518966155       59.71726222684458
C           33.28498557157450       47.74350329334232       59.96596888169991
C           33.56091645304719       47.13945358605154       61.32271657719618
C           32.66253779616899       47.29137764622642       62.36998545029395
C           32.92995325520344       46.75798788514970       63.61908674556908
C           34.10088978808474       46.05421961563000       63.83776691178496
C           35.00065959903088       45.88589245160327       62.79897509581916
C           34.73279134130296       46.42675626907278       61.55515736798700
C           33.35471214357347       46.64399056873433       58.88691938413949
C           32.44337759471903       46.87006101242440       57.66936022344922
C           32.83430553405534       48.09823038588124       56.89195537552660
C           31.94305188148988       49.15450656280633       56.75759649222520
C           32.28651891586836       50.28487920523484       56.03787010415282
C           33.53865632218565       50.38677538459876       55.45550351008770
C           34.43765309891143       49.34225062732946       55.58843568553147
C           34.08355482377237       48.20588080432751       56.29141171180814
C           32.46923994302008       45.61260506549544       56.78120674033970
C           31.67478045257606       45.75184091608508       55.47194187983051
C           30.26096751780102       46.20614429041150       55.72667347391464
C           29.39283113914313       45.45691765153810       56.51213749733138
C           28.09359088152274       45.87811284601315       56.73014855482139
C           27.63944158407879       47.05778423910351       56.16487955137314
C           28.49462924779489       47.81325097991588       55.38147256853276
C           29.79375985361793       47.38836526669549       55.16585056397821
C           31.69257275072000       44.41404922599982       54.71579833771294
C           30.96089492348584       44.45806840488300       53.36599723026782
H           47.75723310985929       56.12220081115468       64.19372425984616
H           48.70713901491705       54.94670206138263       66.83511521129056
H           47.37227913080891       56.08704109689892       66.71848655196976
H           47.38498928110636       53.49925330004199       65.11703875023420
H           45.16900283590983       55.33557915932460       66.10938256243350
H           45.75246866579925       55.22163265434818       64.44361628229035
H           44.52366275168995       52.96131909436551       66.05754873110212
H           43.10916143720995       55.10514277213660       65.17938365412174
H           43.04326456738936       54.12223397906411       63.72254008109921
H           42.23106484036029       52.18958318545720       65.13727779557023
H           40.64905224752196       53.48501897592698       63.87497673679085
H           39.59362042380078       53.27405756356792       66.72388360191556
H           38.29911172538231       53.77342178811158       64.05933977498913
H           37.48776843688516       52.63932776628079       65.13181814916985
H           37.48673485721346       54.30860803981933       66.94801441555531
H           36.19074301820443       55.29048535387135       64.38210203449592
H           35.60839823614540       53.92380743541610       65.32450963108555
H           35.81689537432385       56.82405029832547       66.25025720663898
H           33.44747940680779       54.99660694896169       65.67484534641223
H           33.31144906093309       56.51220602551970       66.57036559337446
H           34.40660447713334       56.28356399747638       63.74656949418235
H           32.22051563218241       58.59351636694900       62.99953214581458
H           33.96378974085491       57.30280141684356       61.85269430183184
H           32.75594523628752       56.14476213936668       61.28380667081309
H           31.62163902870886       58.00749356373237       60.03968364194836
H           33.53984567459296       58.41565522223763       58.37566795079965
H           34.55456893711138       57.48026211724684       59.46621078531056
H           32.72895354230060       55.62881353810439       59.28889107395791
H           33.53255075432341       54.73258330792328       57.17889886416013
H           34.25366450146112       56.27655034207732       56.73509573694864
H           35.85124713271315       56.15482287633443       58.54692197645915
H           34.56693647560998       55.04750161926795       60.28623146842360
H           34.45022445517220       53.57113705586116       59.33253417782542
H           36.86748793268863       53.22685531422772       59.49731417975592
H           37.14468943892869       52.79593895176156       61.85226564712011
H           35.95795016716745       54.01217925315657       62.29688680735902
H           34.13950154663599       52.68159977438000       61.37051045841265
H           35.39671062169504       51.40754576465120       59.63230738382525
H           36.19004617353499       50.47453909913502       60.90189789385837
H           34.02274352482348       49.64972196979863       61.70693172722715
H           34.18506026793074       49.24106052741275       58.69116406935254
H           35.29516643485103       48.50227339357608       59.84926017461961
H           32.27395351646284       48.16515569216883       59.96788506045893
H           34.38420339424425       46.52886378283825       58.54488244865816
H           33.05703663597136       45.69744764505727       59.34696227656373
H           31.41805334411559       47.00851853594098       58.03029366547395
H           33.50426159287666       45.36746890563539       56.53413630765452
H           32.07151710296952       44.77388087290696       57.35692968491910
H           47.55287370907597       58.39485789119834       64.50098199745091
H           48.47423976814652       60.55536904721468       65.20135906053113
H           50.64855138772824       60.65724065997595       66.36798340090682
H           51.87507407743922       58.56744690237125       66.84691812503453
H           50.93047033762678       56.40622347245923       66.19597945010210
H           45.83922141974360       54.87480909175483       68.28089207043473
H           45.54456905287005       53.50775731524015       70.28578115480926
H           46.27778529244396       51.15030291853352       70.30494146179095
H           47.32186811688720       50.18021889635720       68.28773207073212
H           47.62498121529696       51.55646193867209       66.27560441839242
H           45.18825544010583       54.08231584884196       62.50987836537914
H           45.99664645404017       52.55257742867841       60.78400522265297
H           46.35988463376317       50.16113536746963       61.31154200774549
H           45.86783279598981       49.32154813733461       63.57400879333708
H           45.05680806417865       50.86588883095751       65.31255654102523
H           42.80535134476353       51.27432580392855       67.17108090686793
H           43.07038901217123       51.41093422160020       69.60858055893185
H           42.59806778418512       53.52909553530434       70.78857625732311
H           41.88367288070060       55.50995312259145       69.50101114925013
H           41.63673898967448       55.37895747539996       67.06923340384313
H           40.61952963520172       54.77397206396899       65.07655905455916
H           39.39484617406006       51.46671284917429       63.42627909072301
H           39.46137421497756       49.03009245600958       63.25854827473885
H           39.78937466182578       47.64942384932154       65.28883865648230
H           40.00192265854377       48.75063614015792       67.48554555605116
H           39.89093970847208       51.19971512341112       67.65430245153436
H           38.67468612758535       55.97745275518906       67.96186585152309
H           40.09184345648147       57.98402245546305       67.88584281870845
H           40.64041092051493       59.03465800451827       65.72202440368538
H           39.72128425892021       58.07641750652709       63.63351049125124
H           38.31475015601190       56.08274899607419       63.70879643587216
H           36.01326478608929       57.25150790544218       68.48198991492833
H           35.95754120900428       56.54306273361085       70.83739821828431
H           35.23269323754472       54.25705721447416       71.42440513516981
H           34.56131348366479       52.69274959814648       69.63791810370454
H           34.61744449177772       53.39967932489891       67.29264350309232
H           36.14662022781339       57.82061466367607       63.81155048324754
H           36.97037947262426       60.09882556921671       64.17438566424461
H           35.51212889447437       61.79451194995578       65.21894930565200
H           33.24101622477800       61.16235128870572       65.95130562726234
H           32.43209481468427       58.87566346290885       65.63013324134509
H           32.10855340566030       55.62542573569609       63.71079754513510
H           31.61526474153790       56.95052890955439       64.75297388967496
H           30.65111645125991       55.33205787254180       61.88734634816203
H           28.29744208376654       55.16868801953569       61.24228462599031
H           26.84401137215336       57.16164070770469       61.31805630575028
H           27.77468325680771       59.32377820070255       62.06241762103609
H           30.14131737389603       59.48977227703745       62.70960584673643
H           34.99923048526889       59.17809222762672       61.28190561755559
H           35.43146765166721       61.51031944388795       61.87429575356735
H           33.68754434853159       63.22022909433478       61.54897620270815
H           31.49321165434413       62.56771390296095       60.61567614757028
H           31.04386256525811       60.21709823057660       60.05932979347339
H           32.62094446420879       57.80427115040577       56.20102341581777
H           30.51715243647701       58.30446098689216       55.05474538056579
H           28.38292876374626       57.44947392893702       55.93999086924102
H           28.37324204387732       56.07885085083077       57.99889289030398
H           30.48227498853956       55.56207941369204       59.13890441542518
H           34.96725361950585       52.73520601813590       57.20319763731855
H           36.50088603620498       51.49077125424468       55.75656301723586
H           38.62738742971523       52.51235092462704       55.02475182019811
H           39.17783910902902       54.80709706917871       55.72024316609293
H           37.63796826101895       56.06166474290108       57.17015401222048
H           38.91415443593983       54.23647703383631       59.18082483735288
H           40.46142315395841       56.12939660986774       59.48536102459649
H           39.80678448812168       58.06507473746700       60.82759199925215
H           37.54929283791284       58.14061689802304       61.85708175286894
H           36.01690289588555       56.25049865841351       61.58226489207536
H           36.81837926047903       50.59386304145878       63.03517423095442
H           36.63839593768068       49.85832175471794       65.35201901649990
H           34.70024533804965       50.53384864636819       66.72822221962018
H           32.94932294110885       51.97625444630772       65.74600764301408
H           33.13934517691735       52.72881595663437       63.41575262736649
H           33.36889582982056       51.39291432916521       58.41954307315721
H           31.38325333161091       52.78265341782922       58.04239905604133
H           29.65326735538448       52.97197132235479       59.78622088085927
H           29.93220079101296       51.76280269093055       61.92424476338654
H           31.95140489540306       50.41563328007793       62.32193935857531
H           31.74234899722545       47.83383011649435       62.20343690362564
H           32.22108291933623       46.89128039273987       64.42340211202041
H           34.31078644566020       45.63657047025686       64.81131401182762
H           35.91428403894368       45.33080947507367       62.96043774370041
H           35.44483421912580       46.28873270003577       60.75399571796723
H           30.96785860455951       49.09325775987478       57.21885942711916
H           31.56781433970711       51.08373928575126       55.93817582434164
H           33.81783928802407       51.27415132675575       54.90404466953213
H           35.41964307296969       49.39951102451451       55.14041985784181
H           34.79605477885700       47.39985912065463       56.36929027098329
H           30.45761548984033       47.98530638196593       54.55655322415340
H           28.15150745793475       48.73654073511945       54.93661247918588
H           26.62435458911339       47.38546278005544       56.33501442702245
H           27.43157393435059       45.28335607654513       57.34321976488855
H           29.73250816382586       44.53421206144322       56.95989513855745
H           50.16981450107875       55.48480632878348       63.55170859231236
H           50.21431554285051       54.53292417397208       65.03726788175919
H           49.04615495041363       54.14604246743921       63.77612447101881
H           32.16478366531688       46.50646398803863       54.84825345946826
H           32.72863181322312       44.11015774833307       54.55328364901306
H           31.22503671029941       43.64953205158780       55.33916627845696
C           30.83476498938370       43.03455339318281       52.79685944762829
C           31.65827509618613       45.34990305634744       52.36882063421584
C           31.03040691352952       46.49265180934314       51.88781756209504
C           31.62296099737593       47.27133215405425       50.90903373215456
C           32.85432866673199       46.91546445406647       50.38774452344960
C           33.49471218915069       45.78766693573861       50.86927080734956
C           32.90552617469802       45.01580839611269       51.85281839228621
H           30.05893078044075       46.76561848534624       52.27653718460293
H           31.11369607974123       48.15009028709868       50.53912460160527
H           33.31001428681623       47.51003878037045       49.60932963514816
H           34.45804769248813       45.50197102039384       50.47543310300730
H           33.42396556929163       44.13845174461882       52.21034329568822
C           30.20185116662241       43.01752031123100       51.40125472238205
H           31.82607094656675       42.58315752302163       52.75212886469149
H           30.22821364284995       42.42907555285672       53.47395812138174
C           30.37552300440016       41.70413044681644       50.69106442392152
C           31.64711542679105       41.20386032957954       50.42913779091543
C           31.81363653269922       40.02402861523748       49.72879614837693
C           30.71208074980747       39.32233683595605       49.27018835181853
C           29.44213337472903       39.80406188837657       49.53272728811020
C           29.27797512060612       40.98324584876232       50.23959329692294
H           32.52099906794048       41.74379698838425       50.76791506602891
H           32.81004862174341       39.65599347657534       49.53632575012655
H           30.84314497242695       38.40897071282664       48.70890471072141
H           28.57513107198639       39.26153908015550       49.18403832393117
H           28.28153362154669       41.35417637615544       50.43645340779621
H           29.95271749924276       44.85294768232907       53.53542821962534
H           29.13986952471306       43.25889354203564       51.48157628915442
H           30.67181887067100       43.79674401903377       50.79361299338941
C           28.76395724133773       53.40443566395514       52.43029372816660
C           29.97467585612462       53.25156305869736       53.09386736416032
C           30.65437812040046       52.04659352075739       52.95379269862602
C           30.13458546835557       51.02132861434909       52.18563167971729
C           28.92902254527662       51.18915940442853       51.52590429426747
C           28.24638711201031       52.38658654271794       51.64805902878786
C           30.55146085610467       54.37907242339977       53.91452694613248
C           30.93399374915587       53.91479734159800       55.31973642871333
C           31.77354846114550       54.96853442666210       53.19614415809133
C           31.37496066435336       55.71734355683375       51.91237637386822
C           31.09527544602237       57.16922938248885       52.20324447055554
C           29.82369372650867       57.69452688674178       52.01644066290605
C           29.56143573584016       59.02954820643026       52.27209326604687
C           30.57238155322286       59.86347070977073       52.71787355906201
C           31.84398905788202       59.35001627148178       52.91270986667448
C           32.10050925282375       58.01433397586081       52.66188742488959
C           32.45823972036747       55.56595532188211       50.83767527413392
C           32.10182456906795       56.27875532501554       49.52594843849941
C           30.77129343715889       55.80248798419802       49.00197574466750
C           29.74939049437327       56.71087131734753       48.75697595728840
C           28.52021603242011       56.28487173234898       48.28507112629769
C           28.29184641080546       54.93927300970584       48.05367257630061
C           29.30148945442204       54.02406021536584       48.29727642816264
C           30.52938589963159       54.45400053250629       48.76565659146488
C           33.21914597696951       56.04936892017289       48.49671771092100
C           32.93900313592375       56.71978467505711       47.14692218165029
C           32.70406902676226       58.20508738931900       47.28373556046254
C           33.63392842622208       59.03359732865334       47.90083815354980
C           33.42369341573844       60.39751903148324       47.98040352197658
C           32.28564133039215       60.96031085487521       47.42950331785896
C           31.35364334373068       60.14774226672312       46.80880818320089
C           31.56166859681408       58.78150669555502       46.74340083344532
C           34.09004091184556       56.52034033870052       46.14349900154296
C           34.54553676447134       55.06723054675203       45.92583170442530
C           35.69674725307001       55.08280861012327       44.94469813769062
C           36.96696429847378       55.38980389414230       45.42516264130987
C           38.05576877399503       55.45469360175527       44.57663027690116
C           37.90766856526228       55.18453990937845       43.22683705341340
C           36.65327545445812       54.86496327352266       42.73990007223858
C           35.55521590835711       54.83783894180362       43.58475771563316
C           33.37471682053074       54.17512771620012       45.51109060255785
C           33.78776951069980       52.71399219662131       45.29260233264628
C           34.46166908125903       52.15707326024879       46.52050566318496
C           33.78523082683300       52.02512601386315       47.72797178981111
C           34.43561156114051       51.56853187917417       48.86065060613404
C           35.77650660116678       51.22657410937457       48.80393684332144
C           36.45630245272762       51.33432305473863       47.60275580989547
C           35.80407899920935       51.80025745789884       46.47455404039672
C           32.56597301772158       51.88949224876758       44.86569813409786
C           32.95769289264136       50.53434415807925       44.25842650079297
C           33.97416558890875       50.74747074727454       43.16595736749240
C           33.69679442645008       51.56284887452031       42.07378318611665
C           34.67036113628723       51.83543801364816       41.12920724658082
C           35.93249876073623       51.27888161705778       41.24464183307686
C           36.21251950965806       50.44829287862439       42.31499597940051
C           35.24396881346099       50.19479442873077       43.27001716409660
C           31.70007642709854       49.82431352323923       43.74133139755953
C           31.91581480847908       48.35484330486391       43.34480668704673
C           30.71651049644847       47.87999871123062       42.56097205600448
C           29.47345498771418       47.73581646827791       43.16850360719066
C           28.37859324958519       47.29960195106962       42.44573871050453