      -----------------------------------------------------------      
     |                   =====================                   |     
     |                           x T B                           |     
     |                   =====================                   |     
     |                         S. Grimme                         |     
     |          Mulliken Center for Theoretical Chemistry        |     
     |                    University of Bonn                     |     
      -----------------------------------------------------------      

   * xtb version 6.6.1 (8d0f1dd) compiled by 'stahn@M-Bot' on 2023-08-01

   xtb is free software: you can redistribute it and/or modify it under
   the terms of the GNU Lesser General Public License as published by
   the Free Software Foundation, either version 3 of the License, or
   (at your option) any later version.
   
   xtb is distributed in the hope that it will be useful,
   but WITHOUT ANY WARRANTY; without even the implied warranty of
   MERCHANTABILITY or FITNESS FOR A PARTICULAR PURPOSE.  See the
   GNU Lesser General Public License for more details.
   
   Cite this work as:
   * C. Bannwarth, E. Caldeweyher, S. Ehlert, A. Hansen, P. Pracht,
     J. Seibert, S. Spicher, S. Grimme, WIREs Comput. Mol. Sci., 2020, 11,
     e01493. DOI: 10.1002/wcms.1493
   
   for GFN2-xTB:
   * C. Bannwarth, S. Ehlert and S. Grimme., J. Chem. Theory Comput., 2019,
     15, 1652-1671. DOI: 10.1021/acs.jctc.8b01176
   for GFN1-xTB:
   * S. Grimme, C. Bannwarth, P. Shushkov, J. Chem. Theory Comput., 2017,
     13, 1989-2009. DOI: 10.1021/acs.jctc.7b00118
   for GFN0-xTB:
   * P. Pracht, E. Caldeweyher, S. Ehlert, S. Grimme, ChemRxiv, 2019, preprint.
     DOI: 10.26434/chemrxiv.8326202.v1
   for GFN-FF:
   * S. Spicher and S. Grimme, Angew. Chem. Int. Ed., 2020, 59, 15665-15673.
     DOI: 10.1002/anie.202004239
   
   for ALPB and GBSA implicit solvation:
   * S. Ehlert, M. Stahn, S. Spicher, S. Grimme, J. Chem. Theory Comput.,
     2021, 17, 4250-4261. DOI: 10.1021/acs.jctc.1c00471
   
   for DFT-D4:
   * E. Caldeweyher, C. Bannwarth and S. Grimme, J. Chem. Phys., 2017,
     147, 034112. DOI: 10.1063/1.4993215
   * E. Caldeweyher, S. Ehlert, A. Hansen, H. Neugebauer, S. Spicher,
     C. Bannwarth and S. Grimme, J. Chem. Phys., 2019, 150, 154122.
     DOI: 10.1063/1.5090222
   * E. Caldeweyher, J.-M. Mewes, S. Ehlert and S. Grimme, Phys. Chem. Chem. Phys.
     2020, 22, 8499-8512. DOI: 10.1039/D0CP00502A
   
   for sTDA-xTB:
   * S. Grimme and C. Bannwarth, J. Chem. Phys., 2016, 145, 054103.
     DOI: 10.1063/1.4959605
   
   in the mass-spec context:
   * V. Asgeirsson, C. Bauer and S. Grimme, Chem. Sci., 2017, 8, 4879.
     DOI: 10.1039/c7sc00601b
   * J. Koopman and S. Grimme, ACS Omega 2019, 4, 12, 15120-15133.
     DOI: 10.1021/acsomega.9b02011
   
   for metadynamics refer to:
   * S. Grimme, J. Chem. Theory Comput., 2019, 155, 2847-2862
     DOI: 10.1021/acs.jctc.9b00143
   
   for SPH calculations refer to:
   * S. Spicher and S. Grimme, J. Chem. Theory Comput., 2021, 17, 1701-1714
     DOI: 10.1021/acs.jctc.0c01306
   
   with help from (in alphabetical order)
   P. Atkinson, C. Bannwarth, F. Bohle, G. Brandenburg, E. Caldeweyher
   M. Checinski, S. Dohm, S. Ehlert, S. Ehrlich, I. Gerasimov, C. Hölzer
   A. Katbashev, J. Koopman, C. Lavigne, S. Lehtola, F. März, M. Müller,
   F. Musil, H. Neugebauer, J. Pisarek, C. Plett, P. Pracht, F. Pultar,
   J. Seibert, P. Shushkov, S. Spicher, M. Stahn, M. Steiner, T. Strunk,
   J. Stückrath, T. Rose, and J. Unsleber
   
 * started run on 2024/10/04 at 21:39:05.285     

           -------------------------------------------------
          |                Calculation Setup                |
           -------------------------------------------------

          program call               : /home/abt-grimme/AK-bin/xtb input.xyz --input input.inp --opt
          hostname                   : boar014.thch.uni-bonn.de
          coordinate file            : input.xyz
          omp threads                :                     8

   ID    Z sym.   atoms
    1    6 C      1-146, 294-300, 306, 309-314, 323-468, 616-622, 628,
                  631-636, 645-790, 938-944, 950, 953-958, 967-1112,
                  1260-1266, 1272, 1275-1280, 1289-1434, 1582-1588, 1594,
                  1597-1602, 1611-1756, 1904-1910, 1916, 1919-1924,
                  1933-2078, 2226-2232, 2238, 2241-2246, 2255-2400,
                  2548-2554, 2560, 2563-2568, 2577-2722, 2870-2876, 2882,
                  2885-2890, 2899-3044, 3192-3198, 3204, 3207-3212,
                  3221-3366, 3514-3520, 3526, 3529-3534, 3543-3688,
                  3836-3842, 3848, 3851-3856
    2    1 H      147-293, 301-305, 307, 308, 315-322, 469-615, 623-627, 629,
                  630, 637-644, 791-937, 945-949, 951, 952, 959-966,
                  1113-1259, 1267-1271, 1273, 1274, 1281-1288, 1435-1581,
                  1589-1593, 1595, 1596, 1603-1610, 1757-1903, 1911-1915,
                  1917, 1918, 1925-1932, 2079-2225, 2233-2237, 2239, 2240,
                  2247-2254, 2401-2547, 2555-2559, 2561, 2562, 2569-2576,
                  2723-2869, 2877-2881, 2883, 2884, 2891-2898, 3045-3191,
                  3199-3203, 3205, 3206, 3213-3220, 3367-3513, 3521-3525,
                  3527, 3528, 3535-3542, 3689-3835, 3843-3847, 3849, 3850,
                  3857-3864

molecular fragmentation (1/2 indicates fragments):
111111111111111111111111111111111111111111111111111111111111111111111111
111111111111111111111111111111111111111111111111111111111111111111111111
111111111111111111111111111111111111111111111111111111111111111111111111
111111111111111111111111111111111111111111111111111111111111111111111111
111111111111111111111111111111111122222222222222222222222222222222222222
222222222222222222222222222222222222222222222222222222222222222222222222
222222222222222222222222222222222222222222222222222222222222222222222222
222222222222222222222222222222222222222222222222222222222222222222222222
222222222222222222222222222222222222222222222222222222222222222222222222
222222222222222222222222222222222222222222222222222222222222222222222222
222222222222222222222222222222222222222222222222222222222222222222222222
222222222222222222222222222222222222222222222222222222222222222222222222
222222222222222222222222222222222222222222222222222222222222222222222222
222222222222222222222222222222222222222222222222222222222222222222222222
222222222222222222222222222222222222222222222222222222222222222222222222
222222222222222222222222222222222222222222222222222222222222222222222222
222222222222222222222222222222222222222222222222222222222222222222222222
222222222222222222222222222222222222222222222222222222222222222222222222
222222222222222222222222222222222222222222222222222222222222222222222222
222222222222222222222222222222222222222222222222222222222222222222222222
222222222222222222222222222222222222222222222222222222222222222222222222
222222222222222222222222222222222222222222222222222222222222222222222222
222222222222222222222222222222222222222222222222222222222222222222222222
222222222222222222222222222222222222222222222222222222222222222222222222
222222222222222222222222222222222222222222222222222222222222222222222222
222222222222222222222222222222222222222222222222222222222222222222222222
222222222222222222222222222222222222222222222222222222222222222222222222
222222222222222222222222222222222222222222222222222222222222222222222222
222222222222222222222222222222222222222222222222222222222222222222222222
222222222222222222222222222222222222222222222222222222222222222222222222
222222222222222222222222222222222222222222222222222222222222222222222222
222222222222222222222222222222222222222222222222222222222222222222222222
222222222222222222222222222222222222222222222222222222222222222222222222
222222222222222222222222222222222222222222222222222222222222222222222222
222222222222222222222222222222222222222222222222222222222222222222222222
222222222222222222222222222222222222222222222222222222222222222222222222
222222222222222222222222222222222222222222222222222222222222222222222222
222222222222222222222222222222222222222222222222222222222222222222222222
222222222222222222222222222222222222222222222222222222222222222222222222
222222222222222222222222222222222222222222222222222222222222222222222222
222222222222222222222222222222222222222222222222222222222222222222222222
222222222222222222222222222222222222222222222222222222222222222222222222
222222222222222222222222222222222222222222222222222222222222222222222222
222222222222222222222222222222222222222222222222222222222222222222222222
222222222222222222222222222222222222222222222222222222222222222222222222
222222222222222222222222222222222222222222222222222222222222222222222222
222222222222222222222222222222222222222222222222222222222222222222222222
222222222222222222222222222222222222222222222222222222222222222222222222
222222222222222222222222222222222222222222222222222222222222222222222222
222222222222222222222222222222222222222222222222222222222222222222222222
222222222222222222222222222222222222222222222222222222222222222222222222
222222222222222222222222222222222222222222222222222222222222222222222222
222222222222222222222222222222222222222222222222222222222222222222222222
222222222222222222222222222222222222222222222222
# atoms in fragment 1/2:   322  3542
 fragment masses (1/2) :     2085.00    22935.05
CMA distance (Bohr)    :  36.944
constraining FC (au)   :  0.0500

           -------------------------------------------------
          |                 G F N 2 - x T B                 |
           -------------------------------------------------

        Reference                      10.1021/acs.jctc.8b01176
      * Hamiltonian:
        H0-scaling (s, p, d)           1.850000    2.230000    2.230000
        zeta-weighting                 0.500000
      * Dispersion:
        s8                             2.700000
        a1                             0.520000
        a2                             5.000000
        s9                             5.000000
      * Repulsion:
        kExp                           1.500000    1.000000
        rExp                           1.000000
      * Coulomb:
        alpha                          2.000000
        third order                    shell-resolved
        anisotropic                    true
        a3                             3.000000
        a5                             4.000000
        cn-shift                       1.200000
        cn-exp                         4.000000
        max-rad                        5.000000


          ...................................................
          :                      SETUP                      :
          :.................................................:
          :  # basis functions                9624          :
          :  # atomic orbitals                9624          :
          :  # shells                         5784          :
          :  # electrons                      9624          :
          :  max. iterations                   250          :
          :  Hamiltonian                  GFN2-xTB          :
          :  restarted?                      false          :
          :  GBSA solvation                  false          :
          :  PC potential                    false          :
          :  electronic temp.          300.0000000     K    :
          :  accuracy                    1.0000000          :
          :  -> integral cutoff          0.2500000E+02      :
          :  -> integral neglect         0.1000000E-07      :
          :  -> SCF convergence          0.1000000E-05 Eh   :
          :  -> wf. convergence          0.1000000E-03 e    :
          :  Broyden damping             0.4000000          :
          ...................................................

 iter      E             dE          RMSdq      gap      omega  full diag
   1  -5195.7759216 -0.519578E+04  0.368E+00    4.33       0.0  T
   2  -5198.3343603 -0.255844E+01  0.217E+00    4.28       1.0  T
   3  -5198.2595114  0.748488E-01  0.494E-01    4.14       1.0  T
   4  -5198.4663159 -0.206804E+00  0.242E-01    4.04       1.0  T
   5  -5198.6208208 -0.154505E+00  0.462E-02    4.14       1.0  T
   6  -5198.6229297 -0.210884E-02  0.286E-02    4.12       1.0  T
   7  -5198.6241555 -0.122581E-02  0.110E-02    4.13       1.0  T
   8  -5198.6244499 -0.294381E-03  0.290E-03    4.13       1.0  T
   9  -5198.6244669 -0.170623E-04  0.125E-03    4.13       1.3  T
  10  -5198.6244686 -0.165169E-05  0.544E-04    4.13       3.0  T
  11  -5198.6244689 -0.284627E-06  0.290E-04    4.13       5.6  T
  12  -5198.6244690 -0.190620E-06  0.100E-04    4.13      16.1  T

   *** convergence criteria satisfied after 12 iterations ***

         #    Occupation            Energy/Eh            Energy/eV
      -------------------------------------------------------------
         1        2.0000           -0.6515273             -17.7290
       ...           ...                  ...                  ...
      4806        2.0000           -0.3824043             -10.4058
      4807        2.0000           -0.3818917             -10.3918
      4808        2.0000           -0.3815574             -10.3827
      4809        2.0000           -0.3813676             -10.3775
      4810        2.0000           -0.3805391             -10.3550
      4811        2.0000           -0.3799891             -10.3400
      4812        2.0000           -0.3799251             -10.3383 (HOMO)
      4813                         -0.2281501              -6.2083 (LUMO)
      4814                         -0.2280053              -6.2043
      4815                         -0.2277985              -6.1987
      4816                         -0.2274707              -6.1898
      4817                         -0.2273646              -6.1869
       ...                                ...                  ...
      9624                          0.6840963              18.6152
      -------------------------------------------------------------
                  HL-Gap            0.1517751 Eh            4.1300 eV
             Fermi-level           -0.3040376 Eh           -8.2733 eV

 SCC (total)                   0 d,  0 h, 46 min, 10.539 sec
 SCC setup                      ...        0 min,  0.712 sec (  0.026%)
 Dispersion                     ...        0 min,  6.897 sec (  0.249%)
 classical contributions        ...        0 min,  0.162 sec (  0.006%)
 integral evaluation            ...        0 min, 11.878 sec (  0.429%)
 iterations                     ...       40 min, 17.879 sec ( 87.271%)
 molecular gradient             ...        5 min,  7.969 sec ( 11.116%)
 printout                       ...        0 min, 25.042 sec (  0.904%)

         :::::::::::::::::::::::::::::::::::::::::::::::::::::
         ::                     SUMMARY                     ::
         :::::::::::::::::::::::::::::::::::::::::::::::::::::
         :: total energy           -5104.092764673822 Eh    ::
         :: gradient norm              0.023900036472 Eh/a0 ::
         :: HOMO-LUMO gap              4.130009722019 eV    ::
         ::.................................................::
         :: SCC energy             -5198.624469048197 Eh    ::
         :: -> isotropic ES            0.264891558242 Eh    ::
         :: -> anisotropic ES          0.783551334256 Eh    ::
         :: -> anisotropic XC          3.251434355266 Eh    ::
         :: -> dispersion             -7.022576017034 Eh    ::
         :: repulsion energy          93.371699581767 Eh    ::
         :: add. restraining           0.000000000000 Eh    ::
         :: total charge              -0.000000000034 e     ::
         :::::::::::::::::::::::::::::::::::::::::::::::::::::

      ----------------------------------------------------------- 
     |              Fast Inertial Relaxation Engine              |
      ----------------------------------------------------------- 

          ...................................................
          :                      SETUP                      :
          :.................................................:
          :   energy convergence        0.5000000E-05 Eh    :
          :   grad. convergence         0.1000000E-02 Eh/a0 :
          :   optimization log               true           :
          :   writing optlog all                1     steps :
          :   Hessian reset                    20     steps :
          :   time step scaling                 5     steps :
          :   maximium step len.        1.0000000     a0    :
          :   initial time step         0.2500000     fs    :
          :   maximum time step         1.2500000     fs    :
          :   power reset thr           0.0000000     au    :
          :   alpha parameter           0.1000000           :
          :   BFGS update                   false           :
          :   preconditioning               false           :
          ...................................................

........................................................................
.............................. CYCLE    1 ..............................
........................................................................

 iter      E             dE          RMSdq      gap      omega  full diag
   1  -5198.6257042 -0.519863E+04  0.330E-04    4.13       0.0  T
   2  -5198.6257042 -0.168939E-07  0.204E-04    4.13       7.9  T
   3  -5198.6257041  0.355221E-07  0.903E-05    4.13      17.8  T
     SCC iter.                  ...       10 min,  4.620 sec
     gradient                   ...        5 min,  4.509 sec
 * total energy  : -5104.0928295 Eh     change    :  -0.6481727E-04 Eh
   gradient norm :     0.0224474 Eh/a0  converged?    E=F G=F D=F
   time step     :     0.2500000 fs     power     :   0.3334595E-08
   step length   :     0.0028010 a0     speed     :   0.2710150E-03

........................................................................
.............................. CYCLE    2 ..............................
........................................................................

 iter      E             dE          RMSdq      gap      omega  full diag
   1  -5198.6275341 -0.519863E+04  0.485E-04    4.13       0.0  T
   2  -5198.6275341 -0.325490E-07  0.298E-04    4.13       5.4  T
   3  -5198.6275340  0.519822E-07  0.111E-04    4.13      14.5  T
     SCC iter.                  ...       10 min,  9.395 sec
     gradient                   ...        5 min,  4.507 sec
 * total energy  : -5104.0929174 Eh     change    :  -0.8791414E-04 Eh
   gradient norm :     0.0203949 Eh/a0  converged?    E=F G=F D=F
   time step     :     0.2500000 fs     power     :   0.4436464E-08
   step length   :     0.0041156 a0     speed     :   0.3982090E-03

........................................................................
.............................. CYCLE    3 ..............................
........................................................................

 iter      E             dE          RMSdq      gap      omega  full diag
   1  -5198.6299422 -0.519863E+04  0.624E-04    4.13       0.0  T
   2  -5198.6299423 -0.507307E-07  0.384E-04    4.13       4.2  T
   3  -5198.6299422  0.814407E-07  0.136E-04    4.13      11.8  T
     SCC iter.                  ...       10 min,  7.491 sec
     gradient                   ...        5 min,  4.629 sec
 * total energy  : -5104.0930183 Eh     change    :  -0.1009183E-03 Eh
   gradient norm :     0.0179442 Eh/a0  converged?    E=F G=F D=F
   time step     :     0.2500000 fs     power     :   0.4984168E-08
   step length   :     0.0053060 a0     speed     :   0.5133857E-03

........................................................................
.............................. CYCLE    4 ..............................
........................................................................

 iter      E             dE          RMSdq      gap      omega  full diag
   1  -5198.6329114 -0.519863E+04  0.746E-04    4.13       0.0  T
   2  -5198.6329114 -0.676027E-07  0.460E-04    4.13       3.5  T
   3  -5198.6329113  0.126278E-06  0.164E-04    4.13       9.8  T
     SCC iter.                  ...       10 min,  9.739 sec
     gradient                   ...        5 min,  4.547 sec
 * total energy  : -5104.0931216 Eh     change    :  -0.1032444E-03 Eh
   gradient norm :     0.0153614 Eh/a0  converged?    E=F G=F D=F
   time step     :     0.2500000 fs     power     :   0.4978370E-08
   step length   :     0.0063412 a0     speed     :   0.6135415E-03

........................................................................
.............................. CYCLE    5 ..............................
........................................................................

 iter      E             dE          RMSdq      gap      omega  full diag
   1  -5198.6364211 -0.519864E+04  0.845E-04    4.13       0.0  T
   2  -5198.6364211 -0.800846E-07  0.523E-04    4.13       3.1  T
   3  -5198.6364210  0.188353E-06  0.193E-04    4.13       8.4  T
     SCC iter.                  ...       10 min,  5.600 sec
     gradient                   ...        5 min,  4.131 sec
 * total energy  : -5104.0932180 Eh     change    :  -0.9644720E-04 Eh
   gradient norm :     0.0129737 Eh/a0  converged?    E=F G=F D=F
   time step     :     0.2500000 fs     power     :   0.4517777E-08
   step length   :     0.0071963 a0     speed     :   0.6962807E-03

........................................................................
.............................. CYCLE    6 ..............................
........................................................................

 iter      E             dE          RMSdq      gap      omega  full diag
   1  -5198.6408887 -0.519864E+04  0.102E-03    4.13       0.0  T
   2  -5198.6408888 -0.108043E-06  0.636E-04    4.13       2.5  T
   3  -5198.6408885  0.356858E-06  0.255E-04    4.13       6.3  T
     SCC iter.                  ...       10 min,  8.681 sec
     gradient                   ...        5 min,  4.623 sec
 * total energy  : -5104.0933091 Eh     change    :  -0.9113383E-04 Eh
   gradient norm :     0.0109521 Eh/a0  converged?    E=F G=F D=F
   time step     :     0.2750000 fs     power     :   0.3679802E-08
   step length   :     0.0087131 a0     speed     :   0.7663973E-03

........................................................................
.............................. CYCLE    7 ..............................
........................................................................

 iter      E             dE          RMSdq      gap      omega  full diag
   1  -5198.6464213 -0.519865E+04  0.119E-03    4.13       0.0  T
   2  -5198.6464214 -0.132310E-06  0.749E-04    4.13       2.1  T
   3  -5198.6464208  0.613103E-06  0.327E-04    4.13       4.9  T
     SCC iter.                  ...       10 min, 10.211 sec
     gradient                   ...        5 min,  7.796 sec
 * total energy  : -5104.0933869 Eh     change    :  -0.7778659E-04 Eh
   gradient norm :     0.0097126 Eh/a0  converged?    E=F G=F D=F
   time step     :     0.3025000 fs     power     :   0.2640478E-08
   step length   :     0.0102080 a0     speed     :   0.8162674E-03

........................................................................
.............................. CYCLE    8 ..............................
........................................................................

 iter      E             dE          RMSdq      gap      omega  full diag
   1  -5198.6529863 -0.519865E+04  0.133E-03    4.13       0.0  T
   2  -5198.6529864 -0.153457E-06  0.848E-04    4.13       1.9  T
   3  -5198.6529855  0.905186E-06  0.397E-04    4.13       4.1  T
     SCC iter.                  ...       10 min,  4.531 sec
     gradient                   ...        5 min,  3.640 sec
 * total energy  : -5104.0934469 Eh     change    :  -0.5997396E-04 Eh
   gradient norm :     0.0092050 Eh/a0  converged?    E=F G=F D=F
   time step     :     0.3327500 fs     power     :   0.1637906E-08
   step length   :     0.0115310 a0     speed     :   0.8382336E-03

........................................................................
.............................. CYCLE    9 ..............................
........................................................................

 iter      E             dE          RMSdq      gap      omega  full diag
   1  -5198.6603207 -0.519866E+04  0.144E-03    4.13       0.0  T
   2  -5198.6603209 -0.176579E-06  0.918E-04    4.14       1.8  T
   3  -5198.6603198  0.107167E-05  0.442E-04    4.13       3.6  T
   4  -5198.6603211 -0.126732E-05  0.504E-05    4.14      31.9  T
   5  -5198.6603211 -0.700402E-08  0.229E-05    4.14      70.3  T
     SCC iter.                  ...       16 min, 50.125 sec
     gradient                   ...        5 min,  3.037 sec
 * total energy  : -5104.0934902 Eh     change    :  -0.4330808E-04 Eh
   gradient norm :     0.0089256 Eh/a0  converged?    E=F G=F D=F
   time step     :     0.3660250 fs     power     :   0.7987998E-09
   step length   :     0.0125712 a0     speed     :   0.8307731E-03

........................................................................
.............................. CYCLE   10 ..............................
........................................................................

 iter      E             dE          RMSdq      gap      omega  full diag
   1  -5198.6678364 -0.519867E+04  0.150E-03    4.13       0.0  T
   2  -5198.6678366 -0.195005E-06  0.948E-04    4.14       1.7  T
   3  -5198.6678355  0.114516E-05  0.474E-04    4.13       3.4  T
   4  -5198.6678368 -0.138493E-05  0.523E-05    4.14      30.8  T
   5  -5198.6678368 -0.872569E-08  0.223E-05    4.14      72.1  T
     SCC iter.                  ...       16 min, 50.293 sec
     gradient                   ...        5 min,  2.170 sec
 * total energy  : -5104.0935153 Eh     change    :  -0.2505595E-04 Eh
   gradient norm :     0.0087280 Eh/a0  converged?    E=F G=F D=F
   time step     :     0.4026275 fs     power     :   0.1456927E-09
   step length   :     0.0132906 a0     speed     :   0.7984669E-03

........................................................................
.............................. CYCLE   11 ..............................
........................................................................

 iter      E             dE          RMSdq      gap      omega  full diag
   1  -5198.6747618 -0.519867E+04  0.151E-03    4.13       0.0  T
   2  -5198.6747620 -0.191154E-06  0.932E-04    4.14       1.7  T
   3  -5198.6747610  0.962505E-06  0.445E-04    4.13       3.6  T
     SCC iter.                  ...       10 min, 10.740 sec
     gradient                   ...        5 min,  3.763 sec
 * total energy  : -5104.0935240 Eh     change    :  -0.8698229E-05 Eh
   gradient norm :     0.0089482 Eh/a0  converged?    E=F G=F D=F
   time step     :     0.4428903 fs     power     :  -0.3161462E-09
   step length   :     0.0136751 a0     speed     :   0.7468797E-03

........................................................................
.............................. CYCLE   12 ..............................
........................................................................
 * reset velocities

 iter      E             dE          RMSdq      gap      omega  full diag
   1  -5198.6745995 -0.519867E+04  0.607E-05    4.14       0.0  T
   2  -5198.6745995 -0.515138E-08  0.528E-05    4.14      30.5  T
   3  -5198.6745995 -0.107530E-07  0.203E-05    4.14      79.2  T
     SCC iter.                  ...       10 min,  7.466 sec
     gradient                   ...        5 min,  6.050 sec
 * total energy  : -5104.0935288 Eh     change    :  -0.4801987E-05 Eh
   gradient norm :     0.0087981 Eh/a0  converged?    E=T G=F D=T
   time step     :     0.2214451 fs     power     :   0.2168728E-09
   step length   :     0.0004114 a0     speed     :   0.4493928E-04

........................................................................
.............................. CYCLE   13 ..............................
........................................................................

 iter      E             dE          RMSdq      gap      omega  full diag
   1  -5198.6742631 -0.519867E+04  0.790E-05    4.14       0.0  T
   2  -5198.6742631 -0.136515E-08  0.554E-05    4.14      29.1  T
   3  -5198.6742631  0.293858E-08  0.243E-05    4.14      66.2  T
     SCC iter.                  ...       10 min,  9.492 sec
     gradient                   ...        5 min,  5.013 sec
 * total energy  : -5104.0935358 Eh     change    :  -0.7024384E-05 Eh
   gradient norm :     0.0084503 Eh/a0  converged?    E=F G=F D=T
   time step     :     0.2214451 fs     power     :   0.4129975E-09
   step length   :     0.0008159 a0     speed     :   0.8912231E-04

........................................................................
.............................. CYCLE   14 ..............................
........................................................................

 iter      E             dE          RMSdq      gap      omega  full diag
   1  -5198.6737561 -0.519867E+04  0.113E-04    4.14       0.0  T
   2  -5198.6737561 -0.289219E-08  0.803E-05    4.14      20.0  T
   3  -5198.6737560  0.543423E-08  0.350E-05    4.14      46.0  T
     SCC iter.                  ...       10 min,  4.273 sec
     gradient                   ...        5 min,  2.779 sec
 * total energy  : -5104.0935456 Eh     change    :  -0.9850835E-05 Eh
   gradient norm :     0.0079463 Eh/a0  converged?    E=F G=F D=F
   time step     :     0.2214451 fs     power     :   0.5727469E-09
   step length   :     0.0012043 a0     speed     :   0.1315502E-03

........................................................................
.............................. CYCLE   15 ..............................
........................................................................

 iter      E             dE          RMSdq      gap      omega  full diag
   1  -5198.6730834 -0.519867E+04  0.147E-04    4.14       0.0  T
   2  -5198.6730834 -0.469936E-08  0.104E-04    4.14      15.4  T
   3  -5198.6730834  0.917680E-08  0.451E-05    4.14      35.7  T
     SCC iter.                  ...       10 min,  7.783 sec
     gradient                   ...        5 min,  2.262 sec
 * total energy  : -5104.0935576 Eh     change    :  -0.1193032E-04 Eh
   gradient norm :     0.0073091 Eh/a0  converged?    E=F G=F D=F
   time step     :     0.2214451 fs     power     :   0.6849059E-09
   step length   :     0.0015693 a0     speed     :   0.1714128E-03

........................................................................
.............................. CYCLE   16 ..............................
........................................................................

 iter      E             dE          RMSdq      gap      omega  full diag
   1  -5198.6722519 -0.519867E+04  0.177E-04    4.14       0.0  T
   2  -5198.6722519 -0.671025E-08  0.126E-04    4.14      12.8  T
   3  -5198.6722519  0.140026E-07  0.544E-05    4.14      29.6  T
     SCC iter.                  ...       10 min,  7.611 sec
     gradient                   ...        5 min,  3.415 sec
 * total energy  : -5104.0935707 Eh     change    :  -0.1312965E-04 Eh
   gradient norm :     0.0065704 Eh/a0  converged?    E=F G=F D=F
   time step     :     0.2214451 fs     power     :   0.7432141E-09
   step length   :     0.0019040 a0     speed     :   0.2079812E-03

........................................................................
.............................. CYCLE   17 ..............................
........................................................................

 iter      E             dE          RMSdq      gap      omega  full diag
   1  -5198.6712696 -0.519867E+04  0.203E-04    4.14       0.0  T
   2  -5198.6712696 -0.858563E-08  0.144E-04    4.13      11.2  T
   3  -5198.6712696  0.195123E-07  0.625E-05    4.13      25.7  T
     SCC iter.                  ...       10 min,  6.284 sec
     gradient                   ...        5 min,  2.863 sec
 * total energy  : -5104.0935841 Eh     change    :  -0.1339426E-04 Eh
   gradient norm :     0.0057723 Eh/a0  converged?    E=F G=F D=F
   time step     :     0.2214451 fs     power     :   0.7470965E-09
   step length   :     0.0022028 a0     speed     :   0.2406200E-03

........................................................................
.............................. CYCLE   18 ..............................
........................................................................

 iter      E             dE          RMSdq      gap      omega  full diag
   1  -5198.6700190 -0.519867E+04  0.248E-04    4.13       0.0  T
   2  -5198.6700190 -0.125010E-07  0.177E-04    4.13       9.1  T
   3  -5198.6700190  0.309365E-07  0.774E-05    4.13      20.8  T
     SCC iter.                  ...       10 min, 10.991 sec
     gradient                   ...        5 min,  4.250 sec
 * total energy  : -5104.0935983 Eh     change    :  -0.1415868E-04 Eh
   gradient norm :     0.0048869 Eh/a0  converged?    E=F G=F D=F
   time step     :     0.2435896 fs     power     :   0.6943653E-09
   step length   :     0.0027355 a0     speed     :   0.2716409E-03

........................................................................
.............................. CYCLE   19 ..............................
........................................................................

 iter      E             dE          RMSdq      gap      omega  full diag
   1  -5198.6684586 -0.519867E+04  0.295E-04    4.13       0.0  T
   2  -5198.6684586 -0.168448E-07  0.211E-04    4.13       7.6  T
   3  -5198.6684586  0.470900E-07  0.929E-05    4.13      17.3  T
     SCC iter.                  ...       10 min, 10.029 sec
     gradient                   ...        5 min,  0.644 sec
 * total energy  : -5104.0936120 Eh     change    :  -0.1369593E-04 Eh
   gradient norm :     0.0040186 Eh/a0  converged?    E=F G=F D=F
   time step     :     0.2679486 fs     power     :   0.5829644E-09
   step length   :     0.0033143 a0     speed     :   0.2991926E-03

........................................................................
.............................. CYCLE   20 ..............................
........................................................................

 iter      E             dE          RMSdq      gap      omega  full diag
   1  -5198.6665578 -0.519867E+04  0.338E-04    4.13       0.0  T
   2  -5198.6665579 -0.201935E-07  0.242E-04    4.13       6.7  T
   3  -5198.6665578  0.682057E-07  0.108E-04    4.13      14.9  T
     SCC iter.                  ...       10 min,  5.803 sec
     gradient                   ...        5 min,  3.962 sec
 * total energy  : -5104.0936238 Eh     change    :  -0.1186145E-04 Eh
   gradient norm :     0.0033793 Eh/a0  converged?    E=F G=F D=F
   time step     :     0.2947435 fs     power     :   0.4267180E-09
   step length   :     0.0039066 a0     speed     :   0.3206078E-03
 * RMSD in coord.:     0.0013442 a0     energy gain  -0.8591455E-03 Eh

........................................................................
.............................. CYCLE   21 ..............................
........................................................................

 iter      E             dE          RMSdq      gap      omega  full diag
   1  -5198.6648649 -0.519866E+04  0.285E-04    4.13       0.0  T
   2  -5198.6648649 -0.119453E-07  0.200E-04    4.13       8.0  T
   3  -5198.6648649  0.520031E-07  0.908E-05    4.13      17.7  T
     SCC iter.                  ...       10 min,  8.919 sec
     gradient                   ...        5 min,  1.809 sec
 * total energy  : -5104.0936312 Eh     change    :  -0.7378587E-05 Eh
   gradient norm :     0.0032024 Eh/a0  converged?    E=F G=F D=F
   time step     :     0.2500000 fs     power     :   0.3068053E-09
   step length   :     0.0033824 a0     speed     :   0.3272693E-03

........................................................................
.............................. CYCLE   22 ..............................
........................................................................

 iter      E             dE          RMSdq      gap      omega  full diag
   1  -5198.6631660 -0.519866E+04  0.269E-04    4.13       0.0  T
   2  -5198.6631660 -0.905402E-08  0.188E-04    4.13       8.6  T
   3  -5198.6631660  0.498376E-07  0.874E-05    4.13      18.4  T
     SCC iter.                  ...       10 min,  6.196 sec
     gradient                   ...        5 min,  3.784 sec
 * total energy  : -5104.0936368 Eh     change    :  -0.5561212E-05 Eh
   gradient norm :     0.0032836 Eh/a0  converged?    E=F G=F D=F
   time step     :     0.2500000 fs     power     :   0.2248393E-09
   step length   :     0.0033545 a0     speed     :   0.3245613E-03

........................................................................
.............................. CYCLE   23 ..............................
........................................................................

 iter      E             dE          RMSdq      gap      omega  full diag
   1  -5198.6615393 -0.519866E+04  0.251E-04    4.13       0.0  T
   2  -5198.6615394 -0.612454E-08  0.170E-04    4.13       9.5  T
   3  -5198.6615393  0.396894E-07  0.782E-05    4.13      20.6  T
     SCC iter.                  ...       10 min,  5.844 sec
     gradient                   ...        5 min,  6.337 sec
 * total energy  : -5104.0936413 Eh     change    :  -0.4522614E-05 Eh
   gradient norm :     0.0034650 Eh/a0  converged?    E=T G=F D=F
   time step     :     0.2500000 fs     power     :   0.1884251E-09
   step length   :     0.0032586 a0     speed     :   0.3152915E-03

........................................................................
.............................. CYCLE   24 ..............................
........................................................................

 iter      E             dE          RMSdq      gap      omega  full diag
   1  -5198.6600479 -0.519866E+04  0.234E-04    4.13       0.0  T
   2  -5198.6600479 -0.400814E-08  0.152E-04    4.13      10.6  T
   3  -5198.6600479  0.228574E-07  0.607E-05    4.13      26.5  T
     SCC iter.                  ...       10 min,  6.278 sec
     gradient                   ...        5 min,  1.333 sec
 * total energy  : -5104.0936456 Eh     change    :  -0.4313168E-05 Eh
   gradient norm :     0.0036258 Eh/a0  converged?    E=T G=F D=F
   time step     :     0.2500000 fs     power     :   0.1906745E-09
   step length   :     0.0031395 a0     speed     :   0.3037616E-03

........................................................................
.............................. CYCLE   25 ..............................
........................................................................

 iter      E             dE          RMSdq      gap      omega  full diag
   1  -5198.6587341 -0.519866E+04  0.223E-04    4.13       0.0  T
   2  -5198.6587341 -0.270575E-08  0.138E-04    4.13      11.7  T
   3  -5198.6587341  0.654472E-08  0.354E-05    4.13      45.5  T
     SCC iter.                  ...       10 min,  6.922 sec
     gradient                   ...        5 min,  3.125 sec
 * total energy  : -5104.0936502 Eh     change    :  -0.4622875E-05 Eh
   gradient norm :     0.0037064 Eh/a0  converged?    E=T G=F D=F
   time step     :     0.2500000 fs     power     :   0.2177215E-09
   step length   :     0.0030331 a0     speed     :   0.2934665E-03

........................................................................
.............................. CYCLE   26 ..............................
........................................................................

 iter      E             dE          RMSdq      gap      omega  full diag
   1  -5198.6575156 -0.519866E+04  0.241E-04    4.13       0.0  T
   2  -5198.6575156 -0.233558E-08  0.143E-04    4.13      11.2  T
   3  -5198.6575156  0.149157E-08  0.242E-05    4.13      66.5  T
     SCC iter.                  ...       10 min,  6.169 sec
     gradient                   ...        5 min,  3.349 sec
 * total energy  : -5104.0936560 Eh     change    :  -0.5757686E-05 Eh
   gradient norm :     0.0036817 Eh/a0  converged?    E=F G=F D=F
   time step     :     0.2750000 fs     power     :   0.2549971E-09
   step length   :     0.0032679 a0     speed     :   0.2874429E-03

........................................................................
.............................. CYCLE   27 ..............................
........................................................................

 iter      E             dE          RMSdq      gap      omega  full diag
   1  -5198.6564501 -0.519866E+04  0.267E-04    4.13       0.0  T
   2  -5198.6564501 -0.249656E-08  0.157E-04    4.13      10.2  T
   3  -5198.6564501  0.389173E-08  0.322E-05    4.13      49.9  T
     SCC iter.                  ...       10 min,  7.753 sec
     gradient                   ...        5 min,  2.999 sec
 * total energy  : -5104.0936631 Eh     change    :  -0.7157489E-05 Eh
   gradient norm :     0.0035350 Eh/a0  converged?    E=F G=F D=F
   time step     :     0.3025000 fs     power     :   0.2904510E-09
   step length   :     0.0035850 a0     speed     :   0.2866701E-03

........................................................................
.............................. CYCLE   28 ..............................
........................................................................

 iter      E             dE          RMSdq      gap      omega  full diag
   1  -5198.6556017 -0.519866E+04  0.305E-04    4.13       0.0  T
   2  -5198.6556017 -0.375985E-08  0.180E-04    4.13       8.9  T
   3  -5198.6556017  0.160635E-07  0.576E-05    4.13      27.9  T
     SCC iter.                  ...       10 min,  6.648 sec
     gradient                   ...        5 min,  3.690 sec
 * total energy  : -5104.0936717 Eh     change    :  -0.8518125E-05 Eh
   gradient norm :     0.0032739 Eh/a0  converged?    E=F G=F D=F
   time step     :     0.3327500 fs     power     :   0.3128189E-09
   step length   :     0.0040026 a0     speed     :   0.2909636E-03

........................................................................
.............................. CYCLE   29 ..............................
........................................................................

 iter      E             dE          RMSdq      gap      omega  full diag
   1  -5198.6550422 -0.519866E+04  0.350E-04    4.13       0.0  T
   2  -5198.6550422 -0.592445E-08  0.211E-04    4.13       7.6  T
   3  -5198.6550422  0.406226E-07  0.892E-05    4.13      18.0  T
     SCC iter.                  ...       10 min,  6.437 sec
     gradient                   ...        5 min,  1.940 sec
 * total energy  : -5104.0936812 Eh     change    :  -0.9525985E-05 Eh
   gradient norm :     0.0029365 Eh/a0  converged?    E=F G=F D=F
   time step     :     0.3660250 fs     power     :   0.3133522E-09
   step length   :     0.0045276 a0     speed     :   0.2992107E-03

........................................................................
.............................. CYCLE   30 ..............................
........................................................................

 iter      E             dE          RMSdq      gap      omega  full diag
   1  -5198.6548449 -0.519865E+04  0.399E-04    4.13       0.0  T
   2  -5198.6548449 -0.838554E-08  0.244E-04    4.13       6.6  T
   3  -5198.6548448  0.687887E-07  0.115E-04    4.13      14.0  T
     SCC iter.                  ...       10 min,  7.829 sec
     gradient                   ...        5 min,  1.393 sec
 * total energy  : -5104.0936912 Eh     change    :  -0.9991661E-05 Eh
   gradient norm :     0.0026070 Eh/a0  converged?    E=F G=F D=F
   time step     :     0.4026275 fs     power     :   0.2894813E-09
   step length   :     0.0051513 a0     speed     :   0.3094786E-03

........................................................................
.............................. CYCLE   31 ..............................
........................................................................

 iter      E             dE          RMSdq      gap      omega  full diag
   1  -5198.6550667 -0.519866E+04  0.442E-04    4.13       0.0  T
   2  -5198.6550667 -0.103691E-07  0.272E-04    4.13       5.9  T
   3  -5198.6550666  0.902928E-07  0.131E-04    4.13      12.3  T
     SCC iter.                  ...       10 min,  6.238 sec
     gradient                   ...        5 min,  4.253 sec
 * total energy  : -5104.0937010 Eh     change    :  -0.9783328E-05 Eh
   gradient norm :     0.0023974 Eh/a0  converged?    E=F G=F D=F
   time step     :     0.4428903 fs     power     :   0.2487093E-09
   step length   :     0.0058446 a0     speed     :   0.3192080E-03

........................................................................
.............................. CYCLE   32 ..............................
........................................................................

 iter      E             dE          RMSdq      gap      omega  full diag
   1  -5198.6557126 -0.519866E+04  0.469E-04    4.13       0.0  T
   2  -5198.6557126 -0.110422E-07  0.287E-04    4.13       5.6  T
   3  -5198.6557125  0.911559E-07  0.129E-04    4.13      12.5  T
     SCC iter.                  ...       10 min,  9.392 sec
     gradient                   ...        5 min,  3.943 sec
 * total energy  : -5104.0937102 Eh     change    :  -0.9291405E-05 Eh
   gradient norm :     0.0023603 Eh/a0  converged?    E=F G=F D=F
   time step     :     0.4871793 fs     power     :   0.2075962E-09
   step length   :     0.0065629 a0     speed     :   0.3258513E-03

........................................................................
.............................. CYCLE   33 ..............................
........................................................................

 iter      E             dE          RMSdq      gap      omega  full diag
   1  -5198.6567061 -0.519866E+04  0.476E-04    4.13       0.0  T
   2  -5198.6567061 -0.104792E-07  0.287E-04    4.13       5.6  T
   3  -5198.6567061  0.577102E-07  0.103E-04    4.13      15.7  T
     SCC iter.                  ...       10 min, 11.149 sec
     gradient                   ...        5 min,  5.734 sec
 * total energy  : -5104.0937193 Eh     change    :  -0.9030800E-05 Eh
   gradient norm :     0.0024373 Eh/a0  converged?    E=F G=F D=F
   time step     :     0.5358972 fs     power     :   0.1831252E-09
   step length   :     0.0072797 a0     speed     :   0.3285854E-03

........................................................................
.............................. CYCLE   34 ..............................
........................................................................

 iter      E             dE          RMSdq      gap      omega  full diag
   1  -5198.6578985 -0.519866E+04  0.462E-04    4.13       0.0  T
   2  -5198.6578985 -0.981163E-08  0.275E-04    4.13       5.8  T
   3  -5198.6578985  0.122382E-07  0.548E-05    4.13      29.3  T
     SCC iter.                  ...       10 min,  6.809 sec
     gradient                   ...        5 min,  5.219 sec
 * total energy  : -5104.0937289 Eh     change    :  -0.9658182E-05 Eh
   gradient norm :     0.0025341 Eh/a0  converged?    E=F G=F D=F
   time step     :     0.5894869 fs     power     :   0.1825262E-09
   step length   :     0.0080296 a0     speed     :   0.3294847E-03

........................................................................
.............................. CYCLE   35 ..............................
........................................................................

 iter      E             dE          RMSdq      gap      omega  full diag
   1  -5198.6590972 -0.519866E+04  0.439E-04    4.13       0.0  T
   2  -5198.6590972 -0.813543E-08  0.266E-04    4.13       6.1  T
   3  -5198.6590972  0.162718E-07  0.585E-05    4.13      27.5  T
     SCC iter.                  ...       10 min,  7.073 sec
     gradient                   ...        5 min,  3.758 sec
 * total energy  : -5104.0937401 Eh     change    :  -0.1121576E-04 Eh
   gradient norm :     0.0025317 Eh/a0  converged?    E=F G=F D=F
   time step     :     0.6484356 fs     power     :   0.2017339E-09
   step length   :     0.0089008 a0     speed     :   0.3320299E-03

........................................................................
.............................. CYCLE   36 ..............................
........................................................................

 iter      E             dE          RMSdq      gap      omega  full diag
   1  -5198.6600844 -0.519866E+04  0.429E-04    4.13       0.0  T
   2  -5198.6600844 -0.708133E-08  0.265E-04    4.13       6.1  T
   3  -5198.6600844  0.289847E-07  0.728E-05    4.13      22.1  T
     SCC iter.                  ...       10 min,  5.740 sec
     gradient                   ...        5 min,  5.051 sec
 * total energy  : -5104.0937537 Eh     change    :  -0.1350335E-04 Eh
   gradient norm :     0.0023551 Eh/a0  converged?    E=F G=F D=F
   time step     :     0.7132792 fs     power     :   0.2210676E-09
   step length   :     0.0099998 a0     speed     :   0.3391156E-03

........................................................................
.............................. CYCLE   37 ..............................
........................................................................

 iter      E             dE          RMSdq      gap      omega  full diag
   1  -5198.6606409 -0.519866E+04  0.436E-04    4.13       0.0  T
   2  -5198.6606409 -0.107957E-07  0.279E-04    4.13       5.8  T
   3  -5198.6606408  0.691216E-07  0.106E-04    4.13      15.2  T
     SCC iter.                  ...       10 min,  7.837 sec
     gradient                   ...        5 min,  5.587 sec
 * total energy  : -5104.0937688 Eh     change    :  -0.1516668E-04 Eh
   gradient norm :     0.0022451 Eh/a0  converged?    E=F G=F D=F
   time step     :     0.7846071 fs     power     :   0.2221837E-09
   step length   :     0.0113792 a0     speed     :   0.3508122E-03

........................................................................
.............................. CYCLE   38 ..............................
........................................................................

 iter      E             dE          RMSdq      gap      omega  full diag
   1  -5198.6606050 -0.519866E+04  0.462E-04    4.13       0.0  T
   2  -5198.6606050 -0.146192E-07  0.290E-04    4.13       5.5  T
   3  -5198.6606049  0.586024E-07  0.102E-04    4.13      15.8  T
     SCC iter.                  ...       10 min,  7.133 sec
     gradient                   ...        5 min,  3.116 sec
 * total energy  : -5104.0937859 Eh     change    :  -0.1707431E-04 Eh
   gradient norm :     0.0024123 Eh/a0  converged?    E=F G=F D=F
   time step     :     0.8630678 fs     power     :   0.2318598E-09
   step length   :     0.0129891 a0     speed     :   0.3640391E-03

........................................................................
.............................. CYCLE   39 ..............................
........................................................................

 iter      E             dE          RMSdq      gap      omega  full diag
   1  -5198.6600904 -0.519866E+04  0.530E-04    4.13       0.0  T
   2  -5198.6600904 -0.145374E-07  0.319E-04    4.13       5.0  T
   3  -5198.6600904  0.231303E-07  0.728E-05    4.13      22.1  T
     SCC iter.                  ...       10 min,  9.244 sec
     gradient                   ...        5 min,  4.494 sec
 * total energy  : -5104.0938073 Eh     change    :  -0.2139895E-04 Eh
   gradient norm :     0.0023761 Eh/a0  converged?    E=F G=F D=F
   time step     :     0.9493746 fs     power     :   0.2751505E-09
   step length   :     0.0149009 a0     speed     :   0.3796549E-03

........................................................................
.............................. CYCLE   40 ..............................
........................................................................

 iter      E             dE          RMSdq      gap      omega  full diag
   1  -5198.6596554 -0.519866E+04  0.619E-04    4.13       0.0  T
   2  -5198.6596554 -0.169057E-07  0.376E-04    4.13       4.3  T
   3  -5198.6596553  0.488781E-07  0.978E-05    4.13      16.4  T
     SCC iter.                  ...       10 min,  9.787 sec
     gradient                   ...        5 min,  2.193 sec
 * total energy  : -5104.0938335 Eh     change    :  -0.2621926E-04 Eh
   gradient norm :     0.0020656 Eh/a0  converged?    E=F G=F D=F
   time step     :     1.0443120 fs     power     :   0.2990358E-09
   step length   :     0.0174068 a0     speed     :   0.4031847E-03

........................................................................
.............................. CYCLE   41 ..............................
........................................................................

 iter      E             dE          RMSdq      gap      omega  full diag
   1  -5198.6602795 -0.519866E+04  0.670E-04    4.13       0.0  T
   2  -5198.6602795 -0.201189E-07  0.413E-04    4.13       3.9  T
   3  -5198.6602794  0.780647E-07  0.120E-04    4.13      13.4  T
     SCC iter.                  ...       10 min,  9.831 sec
     gradient                   ...        5 min,  3.167 sec
 * total energy  : -5104.0938620 Eh     change    :  -0.2847933E-04 Eh
   gradient norm :     0.0021525 Eh/a0  converged?    E=F G=F D=F
   time step     :     1.1487432 fs     power     :   0.2867351E-09
   step length   :     0.0204991 a0     speed     :   0.4316444E-03

........................................................................
.............................. CYCLE   42 ..............................
........................................................................

 iter      E             dE          RMSdq      gap      omega  full diag
   1  -5198.6622459 -0.519866E+04  0.722E-04    4.13       0.0  T
   2  -5198.6622459 -0.149703E-07  0.429E-04    4.13       3.8  T
   3  -5198.6622459  0.157606E-07  0.666E-05    4.13      24.2  T
     SCC iter.                  ...       10 min,  8.740 sec
     gradient                   ...        5 min,  5.775 sec
 * total energy  : -5104.0938954 Eh     change    :  -0.3344210E-04 Eh
   gradient norm :     0.0022788 Eh/a0  converged?    E=F G=F D=F
   time step     :     1.2500000 fs     power     :   0.3286037E-09
   step length   :     0.0236214 a0     speed     :   0.4570997E-03
 * RMSD in coord.:     0.0025962 a0     energy gain  -0.2716129E-03 Eh

........................................................................
.............................. CYCLE   43 ..............................
........................................................................

 iter      E             dE          RMSdq      gap      omega  full diag
   1  -5198.6626051 -0.519866E+04  0.142E-04    4.13       0.0  T
   2  -5198.6626051 -0.713953E-09  0.833E-05    4.13      19.3  T
   3  -5198.6626051  0.242198E-08  0.241E-05    4.13      66.8  T
     SCC iter.                  ...       10 min,  8.108 sec
     gradient                   ...        5 min,  3.226 sec
 * total energy  : -5104.0939024 Eh     change    :  -0.6918280E-05 Eh
   gradient norm :     0.0022089 Eh/a0  converged?    E=F G=F D=F
   time step     :     0.2500000 fs     power     :   0.3610774E-09
   step length   :     0.0046270 a0     speed     :   0.4476825E-03

........................................................................
.............................. CYCLE   44 ..............................
........................................................................

 iter      E             dE          RMSdq      gap      omega  full diag
   1  -5198.6629110 -0.519866E+04  0.150E-04    4.13       0.0  T
   2  -5198.6629110 -0.917680E-09  0.900E-05    4.13      17.9  T
   3  -5198.6629110  0.334239E-08  0.267E-05    4.13      60.3  T
     SCC iter.                  ...       10 min,  6.415 sec
     gradient                   ...        5 min,  2.781 sec
 * total energy  : -5104.0939096 Eh     change    :  -0.7292827E-05 Eh
   gradient norm :     0.0020178 Eh/a0  converged?    E=F G=F D=F
   time step     :     0.2500000 fs     power     :   0.3796719E-09
   step length   :     0.0045798 a0     speed     :   0.4431157E-03

........................................................................
.............................. CYCLE   45 ..............................
........................................................................

 iter      E             dE          RMSdq      gap      omega  full diag
   1  -5198.6631525 -0.519866E+04  0.166E-04    4.13       0.0  T
   2  -5198.6631525 -0.154887E-08  0.101E-04    4.13      15.9  T
   3  -5198.6631525  0.575437E-08  0.333E-05    4.13      48.3  T
     SCC iter.                  ...       10 min,  6.313 sec
     gradient                   ...        5 min,  3.630 sec
 * total energy  : -5104.0939170 Eh     change    :  -0.7323340E-05 Eh
   gradient norm :     0.0017800 Eh/a0  converged?    E=F G=F D=F
   time step     :     0.2500000 fs     power     :   0.3782841E-09
   step length   :     0.0045823 a0     speed     :   0.4433665E-03

........................................................................
.............................. CYCLE   46 ..............................
........................................................................

 iter      E             dE          RMSdq      gap      omega  full diag
   1  -5198.6633259 -0.519866E+04  0.180E-04    4.13       0.0  T
   2  -5198.6633259 -0.162618E-08  0.110E-04    4.13      14.6  T
   3  -5198.6633259  0.690397E-08  0.365E-05    4.13      44.1  T
     SCC iter.                  ...       10 min,  7.976 sec
     gradient                   ...        5 min,  2.970 sec
 * total energy  : -5104.0939241 Eh     change    :  -0.7113734E-05 Eh
   gradient norm :     0.0015975 Eh/a0  converged?    E=F G=F D=F
   time step     :     0.2500000 fs     power     :   0.3604877E-09
   step length   :     0.0046237 a0     speed     :   0.4473719E-03

........................................................................
.............................. CYCLE   47 ..............................
........................................................................

 iter      E             dE          RMSdq      gap      omega  full diag
   1  -5198.6634378 -0.519866E+04  0.185E-04    4.13       0.0  T
   2  -5198.6634378 -0.170985E-08  0.113E-04    4.13      14.2  T
   3  -5198.6634378  0.675664E-08  0.353E-05    4.13      45.6  T
     SCC iter.                  ...       10 min,  3.730 sec
     gradient                   ...        5 min,  1.417 sec
 * total energy  : -5104.0939307 Eh     change    :  -0.6664327E-05 Eh
   gradient norm :     0.0015490 Eh/a0  converged?    E=F G=F D=F
   time step     :     0.2500000 fs     power     :   0.3380117E-09
   step length   :     0.0046777 a0     speed     :   0.4525921E-03

........................................................................
.............................. CYCLE   48 ..............................
........................................................................

 iter      E             dE          RMSdq      gap      omega  full diag
   1  -5198.6635099 -0.519866E+04  0.196E-04    4.13       0.0  T
   2  -5198.6635099 -0.158707E-08  0.119E-04    4.13      13.5  T
   3  -5198.6635099  0.601631E-08  0.333E-05    4.13      48.3  T
     SCC iter.                  ...       10 min,  8.061 sec
     gradient                   ...        5 min,  4.901 sec
 * total energy  : -5104.0939377 Eh     change    :  -0.6995123E-05 Eh
   gradient norm :     0.0016252 Eh/a0  converged?    E=F G=F D=F
   time step     :     0.2750000 fs     power     :   0.3221105E-09
   step length   :     0.0051882 a0     speed     :   0.4563547E-03

........................................................................
.............................. CYCLE   49 ..............................
........................................................................

 iter      E             dE          RMSdq      gap      omega  full diag
   1  -5198.6635552 -0.519866E+04  0.195E-04    4.13       0.0  T
   2  -5198.6635552 -0.117598E-08  0.117E-04    4.13      13.8  T
   3  -5198.6635552  0.323780E-08  0.258E-05    4.13      62.3  T
     SCC iter.                  ...       10 min,  6.635 sec
     gradient                   ...        5 min,  5.268 sec
 * total energy  : -5104.0939453 Eh     change    :  -0.7532021E-05 Eh
   gradient norm :     0.0017424 Eh/a0  converged?    E=F G=F D=F
   time step     :     0.3025000 fs     power     :   0.3214997E-09
   step length   :     0.0057160 a0     speed     :   0.4570677E-03

........................................................................
.............................. CYCLE   50 ..............................
........................................................................

 iter      E             dE          RMSdq      gap      omega  full diag
   1  -5198.6635828 -0.519866E+04  0.190E-04    4.13       0.0  T
   2  -5198.6635828 -0.944965E-09  0.113E-04    4.13      14.3  T
   3  -5198.6635828  0.110140E-08  0.171E-05    4.13      94.2  T
     SCC iter.                  ...       10 min, 10.403 sec
     gradient                   ...        5 min,  3.818 sec
 * total energy  : -5104.0939538 Eh     change    :  -0.8576367E-05 Eh
   gradient norm :     0.0018015 Eh/a0  converged?    E=F G=F D=F
   time step     :     0.3327500 fs     power     :   0.3345356E-09
   step length   :     0.0062812 a0     speed     :   0.4566011E-03

........................................................................
.............................. CYCLE   51 ..............................
........................................................................

 iter      E             dE          RMSdq      gap      omega  full diag
   1  -5198.6635878 -0.519866E+04  0.192E-04    4.13       0.0  T
   2  -5198.6635878 -0.630280E-09  0.114E-04    4.13      14.1  T
   3  -5198.6635878  0.118325E-08  0.170E-05    4.13      94.8  T
     SCC iter.                  ...       10 min,  9.456 sec
     gradient                   ...        5 min,  4.209 sec
 * total energy  : -5104.0939637 Eh     change    :  -0.9847770E-05 Eh
   gradient norm :     0.0017494 Eh/a0  converged?    E=F G=F D=F
   time step     :     0.3660250 fs     power     :   0.3511296E-09
   step length   :     0.0069298 a0     speed     :   0.4579588E-03

........................................................................
.............................. CYCLE   52 ..............................
........................................................................

 iter      E             dE          RMSdq      gap      omega  full diag
   1  -5198.6635453 -0.519866E+04  0.210E-04    4.13       0.0  T
   2  -5198.6635453 -0.121236E-08  0.126E-04    4.13      12.7  T
   3  -5198.6635453  0.415639E-08  0.286E-05    4.13      56.2  T
     SCC iter.                  ...       10 min, 10.959 sec
     gradient                   ...        5 min,  4.418 sec
 * total energy  : -5104.0939749 Eh     change    :  -0.1117777E-04 Eh
   gradient norm :     0.0016108 Eh/a0  converged?    E=F G=F D=F
   time step     :     0.4026275 fs     power     :   0.3593281E-09
   step length   :     0.0077114 a0     speed     :   0.4632821E-03

........................................................................
.............................. CYCLE   53 ..............................
........................................................................

 iter      E             dE          RMSdq      gap      omega  full diag
   1  -5198.6634077 -0.519866E+04  0.239E-04    4.13       0.0  T
   2  -5198.6634077 -0.222553E-08  0.147E-04    4.13      11.0  T
   3  -5198.6634077  0.101045E-07  0.428E-05    4.13      37.6  T
     SCC iter.                  ...       10 min,  9.339 sec
     gradient                   ...        5 min,  1.953 sec
 * total energy  : -5104.0939871 Eh     change    :  -0.1222463E-04 Eh
   gradient norm :     0.0015077 Eh/a0  converged?    E=F G=F D=F
   time step     :     0.4428903 fs     power     :   0.3548215E-09
   step length   :     0.0086601 a0     speed     :   0.4729780E-03

........................................................................
.............................. CYCLE   54 ..............................
........................................................................

 iter      E             dE          RMSdq      gap      omega  full diag
   1  -5198.6631270 -0.519866E+04  0.267E-04    4.13       0.0  T
   2  -5198.6631270 -0.290038E-08  0.164E-04    4.13       9.8  T
   3  -5198.6631270  0.118971E-07  0.465E-05    4.13      34.6  T
     SCC iter.                  ...       10 min,  7.563 sec
     gradient                   ...        5 min,  2.075 sec
 * total energy  : -5104.0940004 Eh     change    :  -0.1326779E-04 Eh
   gradient norm :     0.0015406 Eh/a0  converged?    E=F G=F D=F
   time step     :     0.4871793 fs     power     :   0.3481225E-09
   step length   :     0.0097608 a0     speed     :   0.4846323E-03

........................................................................
.............................. CYCLE   55 ..............................
........................................................................

 iter      E             dE          RMSdq      gap      omega  full diag
   1  -5198.6627133 -0.519866E+04  0.286E-04    4.13       0.0  T
   2  -5198.6627133 -0.234559E-08  0.171E-04    4.13       9.4  T
   3  -5198.6627133  0.662385E-08  0.370E-05    4.13      43.4  T
     SCC iter.                  ...       10 min,  7.656 sec
     gradient                   ...        5 min,  3.184 sec
 * total energy  : -5104.0940149 Eh     change    :  -0.1453913E-04 Eh
   gradient norm :     0.0016214 Eh/a0  converged?    E=F G=F D=F
   time step     :     0.5358972 fs     power     :   0.3532045E-09
   step length   :     0.0109647 a0     speed     :   0.4949155E-03

........................................................................
.............................. CYCLE   56 ..............................
........................................................................

 iter      E             dE          RMSdq      gap      omega  full diag
   1  -5198.6622753 -0.519866E+04  0.302E-04    4.13       0.0  T
   2  -5198.6622754 -0.188902E-08  0.179E-04    4.13       9.0  T
   3  -5198.6622753  0.311866E-08  0.294E-05    4.13      54.7  T
     SCC iter.                  ...       10 min,  7.947 sec
     gradient                   ...        5 min,  4.340 sec
 * total energy  : -5104.0940316 Eh     change    :  -0.1669001E-04 Eh
   gradient norm :     0.0016334 Eh/a0  converged?    E=F G=F D=F
   time step     :     0.5894869 fs     power     :   0.3693650E-09
   step length   :     0.0123041 a0     speed     :   0.5048842E-03

........................................................................
.............................. CYCLE   57 ..............................
........................................................................

 iter      E             dE          RMSdq      gap      omega  full diag
   1  -5198.6620144 -0.519866E+04  0.333E-04    4.13       0.0  T
   2  -5198.6620145 -0.216642E-08  0.199E-04    4.13       8.1  T
   3  -5198.6620144  0.108121E-07  0.451E-05    4.13      35.6  T
     SCC iter.                  ...       10 min,  7.575 sec
     gradient                   ...        5 min,  5.591 sec
 * total energy  : -5104.0940507 Eh     change    :  -0.1912725E-04 Eh
   gradient norm :     0.0015616 Eh/a0  converged?    E=F G=F D=F
   time step     :     0.6484356 fs     power     :   0.3850282E-09
   step length   :     0.0138759 a0     speed     :   0.5176174E-03

........................................................................
.............................. CYCLE   58 ..............................
........................................................................

 iter      E             dE          RMSdq      gap      omega  full diag
   1  -5198.6621573 -0.519866E+04  0.385E-04    4.13       0.0  T
   2  -5198.6621573 -0.402906E-08  0.233E-04    4.13       6.9  T
   3  -5198.6621573  0.266173E-07  0.686E-05    4.13      23.4  T
     SCC iter.                  ...       10 min,  6.104 sec
     gradient                   ...        5 min,  3.573 sec
 * total energy  : -5104.0940720 Eh     change    :  -0.2132749E-04 Eh
   gradient norm :     0.0014838 Eh/a0  converged?    E=F G=F D=F
   time step     :     0.7132792 fs     power     :   0.3883232E-09
   step length   :     0.0157637 a0     speed     :   0.5345829E-03

........................................................................
.............................. CYCLE   59 ..............................
........................................................................

 iter      E             dE          RMSdq      gap      omega  full diag
   1  -5198.6627771 -0.519866E+04  0.423E-04    4.13       0.0  T
   2  -5198.6627771 -0.385808E-08  0.253E-04    4.13       6.4  T
   3  -5198.6627771  0.177906E-07  0.583E-05    4.13      27.6  T
     SCC iter.                  ...       10 min,  4.291 sec
     gradient                   ...        5 min,  7.541 sec
 * total energy  : -5104.0940961 Eh     change    :  -0.2400479E-04 Eh
   gradient norm :     0.0015624 Eh/a0  converged?    E=F G=F D=F
   time step     :     0.7846071 fs     power     :   0.3952825E-09
   step length   :     0.0179703 a0     speed     :   0.5540108E-03

........................................................................
.............................. CYCLE   60 ..............................
........................................................................

 iter      E             dE          RMSdq      gap      omega  full diag
   1  -5198.6636091 -0.519866E+04  0.457E-04    4.13       0.0  T
   2  -5198.6636091 -0.358341E-08  0.270E-04    4.13       6.0  T
   3  -5198.6636091  0.116634E-07  0.507E-05    4.13      31.7  T
     SCC iter.                  ...       10 min, 10.892 sec
     gradient                   ...        5 min,  5.319 sec
 * total energy  : -5104.0941236 Eh     change    :  -0.2755238E-04 Eh
   gradient norm :     0.0015464 Eh/a0  converged?    E=F G=F D=F
   time step     :     0.8630678 fs     power     :   0.4158879E-09
   step length   :     0.0204429 a0     speed     :   0.5729451E-03

........................................................................
.............................. CYCLE   61 ..............................
........................................................................

 iter      E             dE          RMSdq      gap      omega  full diag
   1  -5198.6642429 -0.519866E+04  0.524E-04    4.13       0.0  T
   2  -5198.6642430 -0.562068E-08  0.312E-04    4.13       5.2  T
   3  -5198.6642429  0.281607E-07  0.723E-05    4.13      22.3  T
     SCC iter.                  ...       10 min, 10.656 sec
     gradient                   ...        5 min,  3.774 sec
 * total energy  : -5104.0941550 Eh     change    :  -0.3141956E-04 Eh
   gradient norm :     0.0014485 Eh/a0  converged?    E=F G=F D=F
   time step     :     0.9493746 fs     power     :   0.4294770E-09
   step length   :     0.0233822 a0     speed     :   0.5957495E-03

........................................................................
.............................. CYCLE   62 ..............................
........................................................................

 iter      E             dE          RMSdq      gap      omega  full diag
   1  -5198.6644180 -0.519866E+04  0.589E-04    4.13       0.0  T
   2  -5198.6644180 -0.713499E-08  0.350E-04    4.13       4.6  T
   3  -5198.6644179  0.247928E-07  0.712E-05    4.13      22.6  T
     SCC iter.                  ...       10 min,  4.627 sec
     gradient                   ...        5 min,  4.902 sec
 * total energy  : -5104.0941904 Eh     change    :  -0.3539899E-04 Eh
   gradient norm :     0.0015391 Eh/a0  converged?    E=F G=F D=F
   time step     :     1.0443120 fs     power     :   0.4386602E-09
   step length   :     0.0269023 a0     speed     :   0.6231248E-03

........................................................................
.............................. CYCLE   63 ..............................
........................................................................

 iter      E             dE          RMSdq      gap      omega  full diag
   1  -5198.6642261 -0.519866E+04  0.646E-04    4.13       0.0  T
   2  -5198.6642261 -0.769978E-08  0.382E-04    4.13       4.2  T
   3  -5198.6642261  0.303789E-07  0.801E-05    4.13      20.1  T
     SCC iter.                  ...       10 min, 10.197 sec
     gradient                   ...        5 min,  2.254 sec
 * total energy  : -5104.0942313 Eh     change    :  -0.4085011E-04 Eh
   gradient norm :     0.0014903 Eh/a0  converged?    E=F G=F D=F
   time step     :     1.1487432 fs     power     :   0.4651917E-09
   step length   :     0.0308551 a0     speed     :   0.6497101E-03

........................................................................
.............................. CYCLE   64 ..............................
........................................................................

 iter      E             dE          RMSdq      gap      omega  full diag
   1  -5198.6639691 -0.519866E+04  0.748E-04    4.13       0.0  T
   2  -5198.6639691 -0.115906E-07  0.447E-04    4.13       3.6  T
   3  -5198.6639691  0.778246E-07  0.117E-04    4.13      13.8  T
     SCC iter.                  ...       10 min, 11.328 sec
     gradient                   ...        5 min,  6.906 sec
 * total energy  : -5104.0942776 Eh     change    :  -0.4632984E-04 Eh
   gradient norm :     0.0014404 Eh/a0  converged?    E=F G=F D=F
   time step     :     1.2500000 fs     power     :   0.4776113E-09
   step length   :     0.0352160 a0     speed     :   0.6814683E-03

........................................................................
.............................. CYCLE   65 ..............................
........................................................................

 iter      E             dE          RMSdq      gap      omega  full diag
   1  -5198.6643350 -0.519866E+04  0.771E-04    4.13       0.0  T
   2  -5198.6643351 -0.926957E-08  0.455E-04    4.13       3.5  T
   3  -5198.6643350  0.287946E-07  0.837E-05    4.13      19.2  T
     SCC iter.                  ...       10 min, 10.923 sec
     gradient                   ...        5 min,  1.777 sec
 * total energy  : -5104.0943254 Eh     change    :  -0.4779922E-04 Eh
   gradient norm :     0.0015025 Eh/a0  converged?    E=F G=F D=F
   time step     :     1.2500000 fs     power     :   0.4982733E-09
   step length   :     0.0368269 a0     speed     :   0.7126404E-03

........................................................................
.............................. CYCLE   66 ..............................
........................................................................

 iter      E             dE          RMSdq      gap      omega  full diag
   1  -5198.6649625 -0.519866E+04  0.808E-04    4.13       0.0  T
   2  -5198.6649625 -0.127147E-07  0.480E-04    4.13       3.4  T
   3  -5198.6649624  0.717500E-07  0.116E-04    4.13      13.9  T
     SCC iter.                  ...       10 min,  9.251 sec
     gradient                   ...        5 min,  1.898 sec
 * total energy  : -5104.0943751 Eh     change    :  -0.4973506E-04 Eh
   gradient norm :     0.0014486 Eh/a0  converged?    E=F G=F D=F
   time step     :     1.2500000 fs     power     :   0.5140311E-09
   step length   :     0.0383298 a0     speed     :   0.7417223E-03

........................................................................
.............................. CYCLE   67 ..............................
........................................................................

 iter      E             dE          RMSdq      gap      omega  full diag
   1  -5198.6651352 -0.519867E+04  0.829E-04    4.13       0.0  T
   2  -5198.6651353 -0.163172E-07  0.489E-04    4.13       3.3  T
   3  -5198.6651352  0.538585E-07  0.114E-04    4.13      14.1  T
     SCC iter.                  ...       10 min, 10.654 sec
     gradient                   ...        5 min,  1.833 sec
 * total energy  : -5104.0944256 Eh     change    :  -0.5044210E-04 Eh
   gradient norm :     0.0016644 Eh/a0  converged?    E=F G=F D=F
   time step     :     1.2500000 fs     power     :   0.5197694E-09
   step length   :     0.0398596 a0     speed     :   0.7713258E-03
 * RMSD in coord.:     0.0062995 a0     energy gain  -0.5301499E-03 Eh

........................................................................
.............................. CYCLE   68 ..............................
........................................................................

 iter      E             dE          RMSdq      gap      omega  full diag
   1  -5198.6651776 -0.519867E+04  0.163E-04    4.13       0.0  T
   2  -5198.6651776 -0.565706E-09  0.958E-05    4.13      16.8  T
   3  -5198.6651776  0.340879E-08  0.269E-05    4.13      59.8  T
     SCC iter.                  ...       10 min, 11.188 sec
     gradient                   ...        5 min,  5.592 sec
 * total energy  : -5104.0944359 Eh     change    :  -0.1027892E-04 Eh
   gradient norm :     0.0015281 Eh/a0  converged?    E=F G=F D=F
   time step     :     0.2500000 fs     power     :   0.5412035E-09
   step length   :     0.0078583 a0     speed     :   0.7603318E-03

........................................................................
.............................. CYCLE   69 ..............................
........................................................................

 iter      E             dE          RMSdq      gap      omega  full diag
   1  -5198.6652407 -0.519867E+04  0.176E-04    4.13       0.0  T
   2  -5198.6652407 -0.246564E-08  0.105E-04    4.13      15.3  T
   3  -5198.6652407  0.394357E-08  0.371E-05    4.13      43.4  T
     SCC iter.                  ...       10 min,  9.046 sec
     gradient                   ...        5 min,  4.961 sec
 * total energy  : -5104.0944461 Eh     change    :  -0.1028465E-04 Eh
   gradient norm :     0.0013614 Eh/a0  converged?    E=F G=F D=F
   time step     :     0.2500000 fs     power     :   0.5346304E-09
   step length   :     0.0078294 a0     speed     :   0.7575368E-03

........................................................................
.............................. CYCLE   70 ..............................
........................................................................

 iter      E             dE          RMSdq      gap      omega  full diag
   1  -5198.6653141 -0.519867E+04  0.178E-04    4.13       0.0  T
   2  -5198.6653141 -0.196997E-08  0.107E-04    4.13      15.0  T
   3  -5198.6653141  0.392902E-08  0.331E-05    4.13      48.5  T
     SCC iter.                  ...       10 min,  9.150 sec
     gradient                   ...        5 min,  7.999 sec
 * total energy  : -5104.0944562 Eh     change    :  -0.1003479E-04 Eh
   gradient norm :     0.0014254 Eh/a0  converged?    E=F G=F D=F
   time step     :     0.2500000 fs     power     :   0.5209899E-09
   step length   :     0.0078668 a0     speed     :   0.7611514E-03

........................................................................
.............................. CYCLE   71 ..............................
........................................................................

[...]
  3608   6 C     3615   6 C                                       1.5361993
  3615   6 C     3616   6 C                                       1.5404276
  3617   6 C     3618   6 C                                       1.3906558
  3618   6 C     3619   6 C                                       1.3842501
  3619   6 C     3620   6 C                                       1.3853829
  3620   6 C     3621   6 C                                       1.3842365
  3617   6 C     3622   6 C                                       1.3884887
  3621   6 C     3622   6 C                                       1.3831634
  3616   6 C     3623   6 C                                       1.5391486
  3623   6 C     3624   6 C                                       1.5357465
  3625   6 C     3626   6 C                                       1.3910664
  3626   6 C     3627   6 C                                       1.3826271
  3627   6 C     3628   6 C                                       1.3844102
  3628   6 C     3629   6 C                                       1.3840717
  3625   6 C     3630   6 C                                       1.3894863
  3629   6 C     3630   6 C                                       1.3842595
  3624   6 C     3631   6 C                                       1.5345391
  3631   6 C     3632   6 C                                       1.5349293
  3633   6 C     3634   6 C                                       1.3888369
  3634   6 C     3635   6 C                                       1.3842035
  3635   6 C     3636   6 C                                       1.3837795
  3636   6 C     3637   6 C                                       1.3850404
  3633   6 C     3638   6 C                                       1.3905856
  3637   6 C     3638   6 C                                       1.3827199
  3632   6 C     3639   6 C                                       1.5369923
  3641   6 C     3642   6 C                                       1.3902412
  3642   6 C     3643   6 C                                       1.3813158
  3643   6 C     3644   6 C                                       1.3846322
  3644   6 C     3645   6 C                                       1.3829732
  3641   6 C     3646   6 C                                       1.3879687
  3645   6 C     3646   6 C                                       1.3846198
  3640   6 C     3647   6 C                                       1.5379717
  3647   6 C     3648   6 C                                       1.5379693
  3649   6 C     3650   6 C                                       1.3887765
  3650   6 C     3651   6 C                                       1.3844294
  3651   6 C     3652   6 C                                       1.3836748
  3652   6 C     3653   6 C                                       1.3847807
  3649   6 C     3654   6 C                                       1.3913866
  3653   6 C     3654   6 C                                       1.3830995
  3648   6 C     3655   6 C                                       1.5362873
  3655   6 C     3656   6 C                                       1.5361006
  3657   6 C     3658   6 C                                       1.3892476
  3658   6 C     3659   6 C                                       1.3839372
  3659   6 C     3660   6 C                                       1.3838881
  3660   6 C     3661   6 C                                       1.3840841
  3657   6 C     3662   6 C                                       1.3886868
  3661   6 C     3662   6 C                                       1.3826520
  3663   6 C     3664   6 C                                       1.5388757
  3665   6 C     3666   6 C                                       1.3902593
  3666   6 C     3667   6 C                                       1.3843770
  3667   6 C     3668   6 C                                       1.3841711
  3668   6 C     3669   6 C                                       1.3853407
  3665   6 C     3670   6 C                                       1.3908617
  3669   6 C     3670   6 C                                       1.3838660
  3671   6 C     3672   6 C                                       1.5356113
  3673   6 C     3674   6 C                                       1.3908255
  3674   6 C     3675   6 C                                       1.3829008
  3675   6 C     3676   6 C                                       1.3845870
  3676   6 C     3677   6 C                                       1.3841491
  3673   6 C     3678   6 C                                       1.3888868
  3677   6 C     3678   6 C                                       1.3839790
  3672   6 C     3679   6 C                                       1.5325590
  3679   6 C     3680   6 C                                       1.5329672
  3681   6 C     3682   6 C                                       1.3903182
  3682   6 C     3683   6 C                                       1.3829123
  3683   6 C     3684   6 C                                       1.3851383
  3684   6 C     3685   6 C                                       1.3849864
  3681   6 C     3686   6 C                                       1.3893114
  3685   6 C     3686   6 C                                       1.3846393
  3680   6 C     3687   6 C                                       1.5369353
  3687   6 C     3688   6 C                                       1.5373539
  3549   6 C     3689   1 H                                       1.0962618
  3551   6 C     3690   1 H                                       1.0921899
  3551   6 C     3691   1 H                                       1.0913485
  3552   6 C     3692   1 H                                       1.0949524
  3559   6 C     3693   1 H                                       1.0909698
  3559   6 C     3694   1 H                                       1.0915806
  3560   6 C     3695   1 H                                       1.0937121
  3567   6 C     3696   1 H                                       1.0931822
  3567   6 C     3697   1 H                                       1.0922075
  3568   6 C     3698   1 H                                       1.0950586
  3575   6 C     3699   1 H                                       1.0920983
  3576   6 C     3700   1 H                                       1.0945658
  3583   6 C     3701   1 H                                       1.0921739
  3583   6 C     3702   1 H                                       1.0927258
  3584   6 C     3703   1 H                                       1.0938646
  3591   6 C     3704   1 H                                       1.0897964
  3591   6 C     3705   1 H                                       1.0900575
  3592   6 C     3706   1 H                                       1.0958952
  3599   6 C     3707   1 H                                       1.0921941
  3599   6 C     3708   1 H                                       1.0910338
  3600   6 C     3709   1 H                                       1.0948505
  3608   6 C     3710   1 H                                       1.0941815
  3615   6 C     3711   1 H                                       1.0911787
  3615   6 C     3712   1 H                                       1.0903857
  3616   6 C     3713   1 H                                       1.0950258
  3623   6 C     3714   1 H                                       1.0932207
  3623   6 C     3715   1 H                                       1.0904289
  3624   6 C     3716   1 H                                       1.0940268
  3631   6 C     3717   1 H                                       1.0906387
  3631   6 C     3718   1 H                                       1.0914680
  3632   6 C     3719   1 H                                       1.0959175
  3639   6 C     3720   1 H                                       1.0917286
  3639   6 C     3721   1 H                                       1.0921557
  3640   6 C     3722   1 H                                       1.0933364
  3647   6 C     3723   1 H                                       1.0931466
  3647   6 C     3724   1 H                                       1.0928681
  3648   6 C     3725   1 H                                       1.0951631
  3655   6 C     3726   1 H                                       1.0911394
  3655   6 C     3727   1 H                                       1.0918019
  3656   6 C     3728   1 H                                       1.0935921
  3663   6 C     3729   1 H                                       1.0916318
  3663   6 C     3730   1 H                                       1.0923431
  3664   6 C     3731   1 H                                       1.0961612
  3671   6 C     3732   1 H                                       1.0918124
  3671   6 C     3733   1 H                                       1.0909725
  3672   6 C     3734   1 H                                       1.0966015
  3679   6 C     3735   1 H                                       1.0900311
  3679   6 C     3736   1 H                                       1.0891759
  3543   6 C     3737   1 H                                       1.0814875
  3548   6 C     3738   1 H                                       1.0806022
  3547   6 C     3739   1 H                                       1.0806321
  3546   6 C     3740   1 H                                       1.0798660
  3545   6 C     3741   1 H                                       1.0805840
  3554   6 C     3742   1 H                                       1.0806292
  3555   6 C     3743   1 H                                       1.0809266
  3556   6 C     3744   1 H                                       1.0812383
  3557   6 C     3745   1 H                                       1.0804013
  3558   6 C     3746   1 H                                       1.0793942
  3562   6 C     3747   1 H                                       1.0802281
  3563   6 C     3748   1 H                                       1.0809606
  3564   6 C     3749   1 H                                       1.0788991
  3565   6 C     3750   1 H                                       1.0806660
  3566   6 C     3751   1 H                                       1.0816679
  3570   6 C     3752   1 H                                       1.0812063
  3571   6 C     3753   1 H                                       1.0800009
  3572   6 C     3754   1 H                                       1.0801391
  3573   6 C     3755   1 H                                       1.0809430
  3574   6 C     3756   1 H                                       1.0784934
  3575   6 C     3757   1 H                                       1.0918305
  3578   6 C     3758   1 H                                       1.0806372
  3579   6 C     3759   1 H                                       1.0808896
  3580   6 C     3760   1 H                                       1.0815003
  3581   6 C     3761   1 H                                       1.0806258
  3582   6 C     3762   1 H                                       1.0811380
  3586   6 C     3763   1 H                                       1.0799905
  3587   6 C     3764   1 H                                       1.0810307
  3588   6 C     3765   1 H                                       1.0801000
  3589   6 C     3766   1 H                                       1.0804604
  3590   6 C     3767   1 H                                       1.0813921
  3594   6 C     3768   1 H                                       1.0807126
  3595   6 C     3769   1 H                                       1.0812050
  3596   6 C     3770   1 H                                       1.0804310
  3597   6 C     3771   1 H                                       1.0805241
  3598   6 C     3772   1 H                                       1.0814891
  3602   6 C     3773   1 H                                       1.0800241
  3603   6 C     3774   1 H                                       1.0804868
  3604   6 C     3775   1 H                                       1.0801739
  3605   6 C     3776   1 H                                       1.0802957
  3606   6 C     3777   1 H                                       1.0814333
  3607   6 C     3778   1 H                                       1.0925515
  3607   6 C     3779   1 H                                       1.0901845
  3610   6 C     3780   1 H                                       1.0805347
  3611   6 C     3781   1 H                                       1.0805552
  3612   6 C     3782   1 H                                       1.0806053
  3613   6 C     3783   1 H                                       1.0807984
  3614   6 C     3784   1 H                                       1.0803204
  3618   6 C     3785   1 H                                       1.0798403
  3619   6 C     3786   1 H                                       1.0820196
  3620   6 C     3787   1 H                                       1.0809012
  3621   6 C     3788   1 H                                       1.0797465
  3622   6 C     3789   1 H                                       1.0820075
  3626   6 C     3790   1 H                                       1.0803217
  3627   6 C     3791   1 H                                       1.0802125
  3628   6 C     3792   1 H                                       1.0794690
  3629   6 C     3793   1 H                                       1.0803525
  3630   6 C     3794   1 H                                       1.0817916
  3634   6 C     3795   1 H                                       1.0804654
  3635   6 C     3796   1 H                                       1.0805603
  3636   6 C     3797   1 H                                       1.0801416
  3637   6 C     3798   1 H                                       1.0805943
  3638   6 C     3799   1 H                                       1.0802045
  3642   6 C     3800   1 H                                       1.0798444
  3643   6 C     3801   1 H                                       1.0793280
  3644   6 C     3802   1 H                                       1.0799969
  3645   6 C     3803   1 H                                       1.0818947
  3646   6 C     3804   1 H                                       1.0809500
  3650   6 C     3805   1 H                                       1.0811632
  3651   6 C     3806   1 H                                       1.0804546
  3652   6 C     3807   1 H                                       1.0803723
  3653   6 C     3808   1 H                                       1.0807072
  3654   6 C     3809   1 H                                       1.0805080
  3658   6 C     3810   1 H                                       1.0815201
  3659   6 C     3811   1 H                                       1.0803740
  3660   6 C     3812   1 H                                       1.0801708
  3661   6 C     3813   1 H                                       1.0801817
  3662   6 C     3814   1 H                                       1.0794330
  3666   6 C     3815   1 H                                       1.0826385
  3667   6 C     3816   1 H                                       1.0807673
  3668   6 C     3817   1 H                                       1.0807630
  3669   6 C     3818   1 H                                       1.0807439
  3670   6 C     3819   1 H                                       1.0807919
  3674   6 C     3820   1 H                                       1.0805297
  3675   6 C     3821   1 H                                       1.0807685
  3676   6 C     3822   1 H                                       1.0801740
  3677   6 C     3823   1 H                                       1.0805464
  3678   6 C     3824   1 H                                       1.0814370
  3686   6 C     3825   1 H                                       1.0812054
  3685   6 C     3826   1 H                                       1.0808590
  3684   6 C     3827   1 H                                       1.0808680
  3683   6 C     3828   1 H                                       1.0806734
  3682   6 C     3829   1 H                                       1.0801383
  3550   6 C     3830   1 H                                       1.0878805
  3550   6 C     3831   1 H                                       1.0878769
  3550   6 C     3832   1 H                                       1.0875178
  3680   6 C     3833   1 H                                       1.0944327
  3687   6 C     3834   1 H                                       1.0917691
  3687   6 C     3835   1 H                                       1.0928333
  3688   6 C     3836   6 C                                       1.5358335
  3837   6 C     3838   6 C                                       1.3893603
  3838   6 C     3839   6 C                                       1.3842652
  3839   6 C     3840   6 C                                       1.3833965
  3840   6 C     3841   6 C                                       1.3846431
  3837   6 C     3842   6 C                                       1.3903666
  3841   6 C     3842   6 C                                       1.3820691
  3838   6 C     3843   1 H                                       1.0816749
  3839   6 C     3844   1 H                                       1.0808651
  3840   6 C     3845   1 H                                       1.0798290
  3841   6 C     3846   1 H                                       1.0802043
  3842   6 C     3847   1 H                                       1.0793860
  3836   6 C     3848   6 C                                       1.5264207
  3836   6 C     3849   1 H                                       1.0912325
  3836   6 C     3850   1 H                                       1.0910979
  3851   6 C     3852   6 C                                       1.3924402
  3852   6 C     3853   6 C                                       1.3799514
  3853   6 C     3854   6 C                                       1.3849042
  3854   6 C     3855   6 C                                       1.3823830
  3851   6 C     3856   6 C                                       1.3870120
  3855   6 C     3856   6 C                                       1.3856433
  3852   6 C     3857   1 H                                       1.0806022
  3853   6 C     3858   1 H                                       1.0803274
  3854   6 C     3859   1 H                                       1.0801023
  3855   6 C     3860   1 H                                       1.0809280
  3856   6 C     3861   1 H                                       1.0794829
  3688   6 C     3862   1 H                                       1.0956395
  3848   6 C     3863   1 H                                       1.0957407
  3848   6 C     3864   1 H                                       1.0940613

 * 2 distinct bonds (by element types)

   Z      Z             #   av. dist./Å        max./Å        min./Å
   1 H    6 C        1944     1.0850756     1.0982273     1.0772497
   6 C    6 C        1868     1.4200715     1.5410224     1.3799514


optimized geometry written to: xtbopt.xyz


           -------------------------------------------------
          | TOTAL ENERGY            -5104.103215884154 Eh   |
          | GRADIENT NORM               0.000755336956 Eh/α |
          | HOMO-LUMO GAP               4.135251112910 eV   |
           -------------------------------------------------

------------------------------------------------------------------------
 * finished run on 2024/10/09 at 21:44:52.834     
------------------------------------------------------------------------
 total:
 * wall-time:     5 d,  0 h,  5 min, 47.548 sec
 *  cpu-time:    32 d,  3 h, 53 min,  1.836 sec
 * ratio c/w:     6.427 speedup
 SCF:
 * wall-time:     0 d,  0 h, 46 min, 10.724 sec
 *  cpu-time:     0 d,  5 h, 38 min, 37.612 sec
 * ratio c/w:     7.333 speedup
 ANC optimizer:
 * wall-time:     4 d, 23 h, 18 min, 25.576 sec
 *  cpu-time:    31 d, 22 h, 12 min, 49.996 sec
 * ratio c/w:     6.422 speedup

