3258
 energy: -3427.521902993241 gnorm: 0.000789211538 xtb: 6.6.1 (8d0f1dd)
C           98.91480964065978      122.29757184533658      106.31679702625745
C           98.92479850871605      120.98705227974686      105.53985344346590
C           98.60392416067855      121.19444510466647      104.06150494083323
C           98.61554677436396      119.87968615198704      103.28724480200768
C           98.31307343050352      120.06445492103765      101.80200825176557
C           98.39836809658559      118.74023626034138      101.04739267455456
C           98.15013940566313      118.89504907293907       99.54856397861948
C           98.34727623757473      117.59147861531176       98.76941594201192
C           99.81765059767302      117.19826121789674       98.64806009750001
C          100.04744220359416      115.86611649631979       97.93604451616426
C           99.74180397222665      115.89817919619615       96.44005156343917
C          100.27748397024635      114.65306942064301       95.73536160720508
C           99.91094913777464      114.62209355099660       94.25237958666035
C          100.76107042954065      113.64590724616058       93.43734473212538
C          100.66612838099103      112.17894899822011       93.85729085733404
C           99.29750914583471      111.54965362979762       93.61069421070751
C           99.31801608546390      110.03957145376161       93.84437415039395
C           97.98266541627689      109.38748574711720       93.49582750894152
C           97.96990305144145      107.88727519398060       93.78257234635650
C           96.65250752512929      107.24867059901904       93.34763944681461
C           96.52913254872067      105.76666629000316       93.70631776506936
C           96.41089132493914      105.52237434706058       95.21039634357044
C           95.90047085918074      104.12023424602074       95.53860691379728
C           95.76314118332321      103.91837638693406       97.04528601402293
C           95.14441649046213      102.57515195847344       97.42205130382732
C           94.99480729333055      102.44013883575279       98.93567163023482
C           94.34801209440474      101.12176784049988       99.35216220789572
C           94.20481037783389      101.02131503108856      100.86890177933302
C           93.47601005392499       99.75398933689736      101.31243472698175
C           93.34902148300742       99.65511368455896      102.83528795375582
C           94.65261497630654       99.23574794706202      103.51281993949948
C           94.62964959448030       99.46487660092053      105.02179124386288
C           95.98418654608248       99.16905100829831      105.66088006125622
C           96.01192699379089       99.50373814209897      107.15039687907769
C           97.42111122861606       99.41642159126793      107.73110902213097
C           97.45472994884526       99.72581130606039      109.22542066489481
C           98.87049671012281       99.65902469410264      109.79138699332037
C           98.91208189033740       99.94242200409280      111.29058910454971
C          100.33416249123893       99.89080609435734      111.84224819646661
C          100.38318992018256      100.12018270288212      113.35053045449332
C          101.81138697336731      100.07037435777073      113.88530582634104
C          101.87870458556698      100.24814167901192      115.39985897025893
C          103.32055486916718      100.23637371716219      115.89829466091247
C          103.43881412616392      100.39802856869790      117.41039263306942
C          104.90048250776938      100.48492693596260      117.84249008589674
C          105.05354581745615      100.67766748640773      119.34799256737780
C          106.48085342652250      101.01706482231195      119.77781338648953
C          106.96717409210012      102.35475257612258      119.22034898479950
C          108.21513187621471      102.86848538987634      119.93266559237381
C          108.72867061762851      104.16386256247014      119.31009191890999
C          109.91050634783501      104.75610120683714      120.07392908634357
C          110.47219821337488      105.99290254853729      119.37589521628709
C          111.53236572958885      106.70676570898559      120.20906716771896
C          112.05815312935243      107.98688369175214      119.55753905368172
C          113.02017120660784      107.73236131400847      118.40024593672952
C          113.56793745794940      109.03204217821728      117.81213002539701
C          114.71176837243759      108.76947627800601      116.83557492980255
C          115.36015630544898      110.03330642905026      116.26988988563716
C          116.15117081526330      110.81621083346057      117.31406564847612
C          116.97157594613078      111.95589250658819      116.71197969428161
C          117.53057309233554      112.85845066272896      117.80921358236395
C          118.30712142004357      114.06466561440173      117.28587688063938
C          118.69137221000206      114.99104695356525      118.43787335895921
C          119.66933490999220      116.10278820722093      118.06252078055576
C          119.07219813271234      117.20507780987143      117.18924563422597
C          120.02456018635095      118.39754409083343      117.11310276241827
C          119.51181254782713      119.56766259037633      116.27410984747786
C          119.59751457967833      119.31839599806139      114.77252230155683
C          119.19070338260047      120.54401160930151      113.95986465225879
C          119.37254082414601      120.31596893787817      112.46228456084174
C          118.93245725992411      121.51810952617804      111.63258525844536
C          119.06096282882825      121.25168759594463      110.13589166542077
C          118.55005129301723      122.41364460438000      109.29004552033955
C          118.66051211130608      122.12018235240717      107.79606310258585
C          117.92686674363411      123.13944026673320      106.92707306624317
C          118.60784269510084      124.50282457082680      106.83700739392474
C          117.73214400937526      125.49300097801131      106.07093660502140
C          118.47088320301579      126.78052474293391      105.71590434931467
C          117.55377761071578      127.86966746770293      105.15263622545049
C          116.70979332163365      127.44282392551914      103.95022955979303
C          117.53056832599501      127.02446235948514      102.73397600634399
C          116.65924429054276      126.66431788724243      101.52823554897004
C          115.76857939635970      125.43304184972199      101.71642248069627
C          116.55357546185840      124.15172932065778      101.99109457845310
C          115.67852393194575      122.90287717326827      101.90395910152583
C          116.47590381043067      121.63213076098664      102.18950679778148
C          115.65482567980824      120.36362935809021      101.97444169125190
C          116.49079714346823      119.10576816879903      102.19664875690961
C          115.74536107493093      117.82849567912629      101.82148172862230
C          116.61474555010884      116.58121822697572      101.96838100908077
C          115.93500560619820      115.33487580419811      101.40730563624889
C          116.86017670451653      114.12108739054545      101.40321068125857
C          116.21548349347164      112.90012235174689      100.75059662406014
C          117.17226026836161      111.71204635485894      100.69182986624281
C          116.54821606473627      110.48228124619807      100.03889178738038
C          117.44001703159699      109.25015203448706      100.16905839318879
C          116.78955981303481      107.99565958903349       99.59122278477328
C          117.58660189744963      106.73290134649994       99.90864823217427
C          116.91089966707378      105.46856878874617       99.38178583443430
C          117.61903125530391      104.20267284070209       99.85850102708423
C          116.92602186729718      102.92551746296215       99.38880513549215
C          117.51280569749932      101.67865938492871      100.04550412256138
C          116.74003518654514      100.39931181862381       99.72683407359054
C          116.86812402886990       99.95362055658573       98.27184657921056
C          116.16981761695877       98.61823473536056       98.00571172486673
C          114.65121992272162       98.74639879425652       97.89748165974878
C          113.96909122931912       97.38219398524399       97.83822435304309
C          112.46148655907216       97.49137216258313       97.62243576836978
C          111.73702230825855       96.15277403353855       97.78395894196441
C          111.55560815215478       95.74411310652378       99.24433105870874
C          110.80286703791707       94.42283967536996       99.38807015072425
C          110.47642973646123       94.11791545414385      100.84848935478598
C          109.57561802498940       92.89367005281460      101.01093554905324
C          109.02825921769805       92.74696124197268      102.43289479217773
C          110.08839861547992       92.31539150171069      103.44349127680317
C          109.59525648755756       92.41993890208515      104.88496360658684
C          110.69414019081438       92.07119486885077      105.88635118143274
C          110.26183772006259       92.30102969855493      107.33196979752493
C          111.38431235749208       91.98747641315008      108.31837040927311
C          110.96690474759036       92.23920278781966      109.76146384103566
H          111.68626669660877       90.94325848661525      108.20299594903450
H          112.25055948377607       92.60963917098559      108.08132268318474
H          109.95775052128465       93.34299177821498      107.45433142123383
H          109.39442107579279       91.67520330225007      107.55695445597357
H          110.98724993296160       91.02635314896828      105.75458368665119
H          111.57422537554616       92.68550713888939      105.67891462508966
H          109.25335019060081       93.44114780973680      105.07232233211167
H          108.73856743250141       91.75791919230947      105.03202219817219
H          110.39485482380707       91.28750962249649      103.23388209731698
H          110.96982241727625       92.94821127433865      103.33226508525091
H          108.60416239497970       93.70440979769431      102.74710593976424
H          108.21681517862569       92.01468173514340      102.43463594013811
H          108.73163554677338       92.98615488608358      100.32149370688434
H          110.12389860168940       91.99030723495265      100.73359042202041
H          111.40854566083063       93.96985952485950      101.39429274709411
H          109.97215685815020       94.98422659149409      101.28346978783351
H          109.87372596536378       94.47945442752912       98.81610120713226
H          111.39866959700424       93.61028529440892       98.96491608862188
H          112.52769316957085       95.65951392213478       99.73406427792816
H          110.99549599235471       96.52697918352342       99.76175459494745
H          110.74797153220794       96.22503309867066       97.32312096018960
H          112.28964604555888       95.37517548570142       97.25082560464168
H          112.04390132250018       98.21237656684366       98.32943084541733
H          112.28014899545845       97.87778227062070       96.61561815198118
H          114.39963516221276       96.79418104792585       97.02401310110915
H          114.16879231115875       96.84995815851489       98.77003027864122
H          114.26427678039909       99.29646250266602       98.75595640616324
H          114.40406290984663       99.31845675164118       96.99951383854821
H          116.54964001247870       98.19313149546532       97.07187765756582
H          116.41884141352628       97.91868200174673       98.80833181262616
H          116.44867705958322      100.71221656322680       97.60854826824567
H          117.93034630170692       99.85532495384165       98.03322910475985
H          117.11783263608410       99.59809292382265      100.36793064677107
H          115.68866241881597      100.54902665403165       99.97621295619433
H          118.55132600495968      101.56114046707110       99.72815863465050
H          117.51292536745424      101.82004405457440      101.13006721850587
H          115.86037850189275      102.98655658498238       99.62650059143587
H          117.02036854202790      102.84373188172992       98.30500858369538
H          118.65149286156826      104.20384724117872       99.50098045340991
H          117.64925905626592      104.21114019970423      100.95115088494396
H          115.87651182340592      105.44535402710227       99.73072219138238
H          116.88709160965058      105.49329425213575       98.29007293968141
H          118.59112438172595      106.81587378746872       99.48418291464841
H          117.69711850976410      106.64794078592956      100.99329047914333
H          115.78598649858880      107.89098731527744      100.01099344952024
H          116.68020072192907      108.10268454313609       98.51029246442098
H          118.39471243460486      109.43282335279021       99.66939794795015
H          117.65461827987166      109.08210328465964      101.22773209339236
H          115.58730738838665      110.27473168930337      100.51490925008854
H          116.35795099311430      110.68616744325914       98.98316024470203
H          118.06609075919837      111.99904876700683      100.13385683811595
H          117.48782511423238      111.45639528970585      101.70591691668774
H          115.31996981276421      112.62026169732334      101.31234295252148
H          115.89518203693716      113.15916313633943       99.73827517893841
H          117.77397511802958      114.37477383577118      100.85915466252294
H          117.14708171401037      113.87734953666428      102.42974558824220
H          115.03807512996946      115.11279879009734      101.98875680103141
H          115.61821568932504      115.53779908658974      100.38057926113045
H          117.55569269684959      116.73658544241037      101.43407629848151
H          116.85722283010296      116.42608587451109      103.02222724205737
H          114.85706484218707      117.72748958785488      102.44907830548732
H          115.41355021764848      117.90758759383037      100.78200505549839
H          117.39436040956281      119.18129996319166      101.58839002411177
H          116.79968163716005      119.05099182502370      103.24228659015506
H          114.79872323358852      120.36664427023868      102.65186557176698
H          115.26786553448933      120.36117888550143      100.95273782804392
H          117.34892323682527      121.60593672262087      101.53104946929666
H          116.84329543283116      121.65738166783466      103.21862196498606
H          114.85290441003481      122.98389802430395      102.61459641889387
H          115.24644281179347      122.83714309940738      100.90184795008715
H          117.36703536390864      124.06861779688114      101.26507573264675
H          117.00267504061678      124.19799002914449      102.98511187445573
H          115.05707283877699      125.60600958924458      102.52566376809436
H          115.18713107588817      125.29717867100905      100.80012893204923
H          116.02268342903119      127.51975611488933      101.28583095860931
H          117.31295548495250      126.48987581612842      100.66911692918418
H          118.18857584046206      127.85058954046561      102.45057181211402
H          118.16412696156321      126.17450516340709      102.98613669279281
H          116.05983566183050      126.62133266510445      104.24873266265605
H          116.06861072258091      128.28264367066558      103.66627193888861
H          116.87419517340557      128.19598528149976      105.94503402137552
H          118.16659664323888      128.73050832205973      104.87191522683972
H          118.95310865653740      127.17382765066411      106.61503021282212
H          119.26254825145821      126.55643390300119      104.99776306815774
H          117.38552944709649      125.01081894912758      105.15493822921833
H          116.85207377867090      125.73379945485601      106.67236403691791
H          118.80359585294154      124.89289860370030      107.83753543658227
H          119.56926086127855      124.39584688632434      106.32707824108284
H          117.83086876036924      122.73525783955205      105.91551407477355
H          116.91781426064112      123.27639143648038      107.32125867113798
H          119.71314215582046      122.07811460702148      107.50664982292291
H          118.22915527882891      121.13451179931137      107.60697952906010
H          117.50108088233084      122.59716949830114      109.53895077158155
H          119.11384494971659      123.31504616539937      109.53636828691192
H          120.10731603136996      121.05531910792503      109.88823785614190
H          118.49225161122925      120.35274638122505      109.88590717065458
H          117.89077827422204      121.75439578000575      111.86651960970011
H          119.53600882812218      122.38880115969089      111.90204606257760
H          120.42431326089815      120.09735853882914      112.25724960621314
H          118.79303257121306      119.44288949421913      112.15758676186583
H          118.14465160031001      120.78615582355484      114.16756520769947
H          119.79415617061539      121.40042826873592      114.27026399643798
H          120.62400813606020      119.04418586661005      114.51524680636723
H          118.95212246943980      118.48058247940595      114.50235618045026
H          118.47586568281216      119.78543121569646      116.54680799138315
H          120.10683016694212      120.45324496824573      116.51195128101230
H          120.20120975923538      118.75483885905518      118.13066098875758
H          120.98494166936801      118.06399795462451      116.70983300708055
H          118.87088663949898      116.81758256249417      116.18976095134875
H          118.12187999885136      117.53334084235938      117.61974124872110
H          120.03149307632340      116.56012820422117      118.98782815255345
H          120.53302619182543      115.66656531292593      117.55441755485722
H          117.78521632003564      115.43461880207143      118.86084265538530
H          119.15236172510414      114.38344454271703      119.22315742019967
H          119.21128763614560      113.72543360165628      116.77481058221775
H          117.69817349586214      114.60673794899847      116.55930137970681
H          116.70310474164005      113.21864395145471      118.42724399183605
H          118.18353324922802      112.26820265117210      118.45913709364440
H          117.79005070887568      111.54808775963440      116.11554874461110
H          116.34071040016158      112.54428164242152      116.04247258306447
H          115.45935037238907      111.23626940948402      118.04693988600286
H          116.82183798088417      110.13687899707944      117.84734126717980
H          116.03801139088679      109.74438020813569      115.46259008943358
H          114.59093194153058      110.67947678111422      115.84098897261102
H          115.47964315654133      108.18085292658239      117.34201645687772
H          114.33274202795258      108.16383205409743      116.00834489114597
H          112.76424468903909      109.57316874036225      117.30611250346706
H          113.92083220977216      109.66450315670943      118.62865175418762
H          113.85521783932113      107.12957475656329      118.76790615285863
H          112.52334215821855      107.16077402612608      117.61381989680065
H          111.21614009263335      108.58908296189924      119.20817046091484
H          112.58454841160788      108.57448400508810      120.31488332413707
H          111.09684032206333      106.96201486610134      121.17990952597053
H          112.36730430254374      106.02745859120641      120.39389295460262
H          110.90117780614388      105.69242571861712      118.41812142206071
H          109.65420570677851      106.68765729721230      119.16785116108882
H          109.58461173517620      105.02436404568364      121.08312920972918
H          110.69797846900718      104.00408501678086      120.17305453880780
H          109.02419119785090      103.97137053896041      118.27765671550428
H          107.91669946438310      104.89557152092725      119.28515152578331
H          107.98367037502068      103.03803560880813      120.98669552668480
H          109.00056990849617      102.10844941169260      119.88785616782693
H          107.18636253272075      102.25663139258749      118.15532038553881
H          106.17136625644498      103.09585456262002      119.32413934429299
H          106.50742469288238      101.06229699677546      120.86925892864683
H          107.15910831197635      100.21895610272755      119.46710234600054
H          104.39125352403683      101.48166165851967      119.67245230059062
H          104.73196827968840       99.76603392384122      119.85998741784948
H          105.42717484059656       99.57869210741494      117.53576354071720
H          105.35799520493745      101.32824601244975      117.32246137493922
H          102.91795612356026      101.30925218376775      117.71813230335692
H          102.94910996225146       99.55980471760843      117.91176278333059
H          103.79843760069285       99.30058347418320      115.59901327633156
H          103.86701152032005      101.05136526791358      115.41544959004369
H          101.40342291854662      101.19348502606496      115.67591221219855
H          101.31664137373468       99.44778949640249      115.88621240885348
H          102.26319021814400       99.11241490959699      113.61684522270016
H          102.40163960092067      100.85474360110375      113.40366835056609
H           99.94095575325971      101.09213038421480      113.58578118850707
H           99.78268479105566       99.35741900474987      113.85137395928410
H          100.77398982553817       98.91743278460004      111.61217922422051
H          100.94238040967949      100.64946497830414      111.34252144752377
H           98.48304341704643      100.92911668988880      111.48580991146022
H           98.29560847361559       99.20843020110398      111.81461799411160
H           99.28899429522765       98.66810504497130      109.60063257241210
H           99.49952914932481      100.38343703560213      109.26954390262033
H           97.04238911145566      100.72389555476111      109.39794441830132
H           96.81878176916861       99.01396859697238      109.75637546313170
H           97.82412947389444       98.41610382824580      107.56026308795168
H           98.07012019959636      100.11968506137391      107.20254853415005
H           95.62776068145222      100.51700345627921      107.29824208922767
H           95.35070947123305       98.82212228600730      107.69049230854706
H           96.23184038644253       98.11565069163292      105.51739938035296
H           96.75037949990289       99.75673495611677      105.15090569548802
H           94.36568376904243      100.50784913083405      105.21701406172328
H           93.85826846210169       98.84031096610593      105.47933505818446
H           94.84812752380020       98.18210442747348      103.30482859094602
H           95.47868952237349       99.80928512529177      103.09100956381114
H           93.03410748225647      100.62640389209909      103.22576523613380
H           92.56827178207352       98.93408938396976      103.08917466965239
H           92.47700948958301       99.75462105851609      100.86895329291387
H           94.00288799324343       98.87531874105406      100.93544357929559
H           95.19910429927560      101.05440986131850      101.31742463212426
H           93.65357595841016      101.89255288408069      101.23248857257519
H           93.36273977436690      101.03844686849429       98.88644790009074
H           94.95637808509684      100.29030941921813       98.98766987620265
H           95.97974566777249      102.52003710134164       99.40203159518410
H           94.38771064395723      103.26877628167047       99.30939831697289
H           94.16249082100808      102.48178483178050       96.95132634827426
H           95.76994217335587      101.76321510878707       97.04381282657486
H           96.74942690334352      103.99601832783750       97.50661680899762
H           95.14285980462452      104.72060277659499       97.45334718675082
H           94.92694497309863      103.97095351789247       95.06426936233883
H           96.58306105361075      103.37245391445532       95.12701917674917
H           97.38142827496941      105.66939667613286       95.68639536704291
H           95.71790125750388      106.25281842060616       95.63582674028980
H           95.63530759062959      105.37060074884812       93.21666006019527
H           97.38825088841330      105.22018474417190       93.31007330796663
H           95.82288233641101      107.79187508356605       93.80818292846952
H           96.55152109681806      107.35901163317236       92.26444362628956
H           98.79744982452299      107.40803943954839       93.25396217876256
H           98.12499406785942      107.72857437068598       94.85026290506956
H           97.18553671144855      109.86780829867052       94.06980994589819
H           97.76663811764502      109.55479143616422       92.43708547851331
H          100.10410035590428      109.59086246564850       93.23147689538145
H           99.56022015339063      109.83634599442624       94.88933237308207
H           98.55358558789551      112.00301794161837       94.26916958618121
H           98.99192157286434      111.74923857432056       92.57990642308079
H          101.40713118133010      111.62040184253037       93.27965044091141
H          100.93123902048194      112.07737776008310       94.91088354522593
H          100.47450220530159      113.72774399736961       92.38505932495949
H          101.80621346492097      113.95447936301493       93.51613597887187
H           98.85294139149451      114.38031523833041       94.13933965418400
H          100.05898179327647      115.62190100195531       93.83351193422455
H          101.36553664298967      114.63292781103371       95.83547948436508
H           99.87917223100803      113.76736672898657       96.23305230436291
H           98.66490215807458      115.96999807969756       96.27914832967815
H          100.20227556545174      116.78564641351711       95.99704295152777
H          101.09604340643662      115.58774073613937       98.06469027919889
H           99.44153903570383      115.09114104906440       98.41269162101391
H          100.35646635693814      117.98617681694060       98.11516022065595
H          100.24773722326164      117.12584171856908       99.64796508598930
H           97.79677476312592      116.78944509454587       99.26642025985750
H           97.92584703080836      117.71308109319946       97.76924657666403
H           97.12798454160736      119.25209734962975       99.39655198180809
H           98.82417874802506      119.65636429945360       99.14658286916868
H           99.38928692497778      118.31626996244644      101.21136874072882
H           97.66612999719648      118.04313233649084      101.46197632924729
H           97.31593763698376      120.49576875982527      101.68054570341063
H           99.02988700552510      120.77031615619376      101.37405623630791
H           99.59818951165592      119.41542176144975      103.39319789486292
H           97.88016764481000      119.19797474350264      103.72292879635187
H           97.62219775015853      121.66585260967034      103.96626780824649
H           99.33959269015412      121.87628739325076      103.62716191404205
H           99.90778896070182      120.52009182992478      105.63125874491008
H           98.19377035440353      120.30068660260777      105.97489534540188
H           99.15800751172638      122.12549733489243      107.36294306118137
H           99.64472555080516      122.99091303361223      105.90376699200468
H           97.93384151844266      122.76569395681518      106.26524212806896
H          110.69301553752635       93.28306092673739      109.89637610841970
H          110.10989864978794       91.62315509579227      110.02667172957663
H          111.78186414433473       92.00601096990528      110.44310700692338
C           96.02883401547875      114.40069276792767       95.63056420411195
C           96.02952073445431      114.21607485460393       97.14246155398058
C           95.07637944335697      115.18278898612145       97.83989909160601
C           95.02570127230364      114.95158799778967       99.34828488899034
C           93.98441524618814      115.83955104025161      100.02681230290527
C           93.85726962618666      115.57297763389023      101.52832856715258
C           94.98754742695486      116.19136821533779      102.34792032841624
C           94.93242632102280      115.75991604742372      103.81183855654011
C           96.03901091343327      116.40553077473071      104.64092234858136
C           96.05616935992708      115.90804328414913      106.08462677217531
C           97.16001768705301      116.58134443931098      106.89589024972294
C           97.26713684411177      116.04649717117908      108.32218457132250
C           98.39331736747451      116.73727155923146      109.08752194595461
C           98.60144747423540      116.17085997021907      110.48949369004649
C           99.80097469421042      116.81632597653530      111.17675127603709
C          100.08128204738262      116.25022709083106      112.56677793216585
C          101.36196485647532      116.84578947202802      113.14529323506986
C          101.72502910340721      116.29775326390363      114.52195800653628
C          103.01062480558880      116.93378768613897      115.04535369711520
C          103.42884910348843      116.39238746057302      116.40872794478592
C          104.77562363220230      116.95985166927345      116.85131127603978