3258
 energy: -3427.542476590249 gnorm: 0.000664079124 xtb: 6.6.1 (8d0f1dd)
C          113.87087150462818      118.18158114692396       97.15091276907290
C          115.09109165151744      118.18041213584608       98.06402181559569
C          114.73805232648630      118.00392307437387       99.54047042042305
C          113.99497604504064      119.19371631133497      100.14404646775711
C          113.79454794112092      119.01753292095070      101.64710377374969
C          112.98521370740490      120.15037478015330      102.27398847241052
C          112.81247794668135      119.94827303925835      103.77702331790034
C          111.94631414841798      121.02326282111201      104.42947188173136
C          111.78094368540185      120.76885427317545      105.92535472068904
C          110.85786709540831      121.77351933300990      106.61063634880482
C          110.69620322028550      121.45014234548603      108.09373025252607
C          109.73743928464438      122.39170238427241      108.81711580097932
C          109.59529509428791      122.01525145791426      110.29003485272118
C          108.60294867880539      122.90206226169825      111.03500017450754
C          108.45984111969166      122.49504370137547      112.49957003929349
C          107.43747253813599      123.35663882723884      113.23249463864880
C          107.29213481466718      122.98110859828739      114.70423410649539
C          106.24493481676986      123.84682814543881      115.39684129069292
C          106.12108186050123      123.55869201244147      116.88924980436771
C          105.09561006373148      124.48381492539056      117.53755144926652
C          104.85553285902755      124.21125657989818      119.02082652634563
C          106.06280071158810      124.43356364234450      119.93225846639668
C          106.55907776135248      125.87882212807089      119.96871830096353
C          107.73925762119480      126.07848698229766      120.93173342248508
C          109.11567677286723      126.04147912029163      120.26188198261022
C          109.40675360344811      124.73126669150035      119.53804233416476
C          110.85511831261509      124.60871803472939      119.07322459027992
C          111.05137493743119      123.34465998938566      118.23880203579797
C          112.51880404249492      123.05875247786688      117.94190898278123
C          112.72624653543703      121.76577232800408      117.15426654960596
C          112.24905313196655      121.84786548965135      115.70642538446121
C          112.62091488843329      120.59012920504156      114.92738844823405
C          112.32648648880459      120.70049725284558      113.43449351889581
C          112.79552867154491      119.45771977575866      112.68373512412256
C          112.62913836213642      119.56945922294133      111.17133204425741
C          113.14357565411680      118.32278654696464      110.45678890318972
C          113.05625269581027      118.43237709650545      108.93735752092454
C          113.59187914729841      117.18253545125454      108.24407768445838
C          113.55047738319703      117.29381412886299      106.72296175144486
C          114.11181929507622      116.05091049831522      106.03670133567152
C          114.07782719868787      116.17048422026535      104.51616741065958
C          114.58806282555247      114.91617907055462      103.81046085744039
C          114.52556386766170      115.06032866937333      102.29260733105767
C          114.96950731256933      113.80725661050906      101.54376331693062
C          114.75038953436520      113.95601800432654      100.04018521698011
C          115.20868374338536      112.73164523653342       99.25371519876499
C          114.99913071030893      112.88072576745751       97.74566652251571
C          113.54036099151739      112.73894781530018       97.30977213772185
C          113.39954146342215      112.86187937170767       95.79400071797679
C          111.95737755440922      112.84287136930242       95.28546781043838
C          111.18160819753675      111.55131336403720       95.55446823082713
C          111.88180012996676      110.28950775973176       95.04875920395835
C          110.91116079021639      109.11343438169156       94.93727037272990
C          111.60054118387681      107.75247941000042       94.84330947075482
C          112.49767780674466      107.58376147971870       93.61880072915903
C          113.09841895121018      106.18004741677208       93.56211542048693
C          114.11985282155597      105.97306389519404       92.44262255287791
C          115.39101662939601      106.79461206995906       92.64366096546976
C          116.54049016929650      106.35633632002303       91.73843140068465
C          117.74413853483192      107.28068371618660       91.90953175269577
C          118.98472307910855      106.81434653445318       91.14995584358371
C          120.03934541675501      107.91471665589950       91.01060633791215
C          120.55100430746319      108.44465759073212       92.34876877020095
C          121.54085507326104      109.59215121603468       92.16312795156445
C          122.00152154374977      110.22166877248065       93.47977613089634
C          120.85625037255382      110.84130908388744       94.28247642069002
C          121.34448756969419      111.85004115391007       95.32054872235693
C          120.19715825816748      112.36490455850429       96.18869205905486
C          120.59983214416422      113.55914587375075       97.05077626499035
C          119.49002127266520      113.96544409086869       98.01883198325480
C          119.78941187156344      115.28744878598766       98.72322420099761
C          118.81030526391935      115.56611851408896       99.86166222162872
C          118.95394922021482      116.98001636055486      100.42346205158499
C          118.21222604303772      117.13907185114637      101.74879367914737
C          118.11191002764605      118.59350106198644      102.20362710023477
C          117.52431780395588      118.69978822782539      103.60911077759123
C          117.18875898058842      120.13469759652662      104.00911986685927
C          116.69602335964048      120.20991333559451      105.45230016542973
C          116.14883967702252      121.58544401597861      105.82634561451880
C          115.69772844361191      121.62502975929165      107.28399226067829
C          114.96526443510382      122.91263454218877      107.65405865873474
C          114.52814044552889      122.89284939377198      109.11612117683589
C          113.65513456346341      124.08176497428997      109.51100027836068
C          113.28847247859225      124.01018331621266      110.99098272179918
C          112.29489001286302      125.07920777912092      111.43835001434721
C          111.94229623568833      124.90341511420917      112.91373870857322
C          110.87927947871165      125.87939597349784      113.41079726637261
C          110.50663584171591      125.58877205080623      114.86383425260705
C          109.32784435002222      126.41200385274271      115.38430552084064
C          109.57465132794300      127.91931864802703      115.45542586317679
C          110.64368061522791      128.29879546640279      116.47629157967310
C          110.84155217107745      129.80788967945665      116.62382550979488
C          111.30129506113107      130.52143231639542      115.35038853159962
C          112.64638124937157      130.02396803725526      114.82599652873712
C          113.06799997369630      130.76716518495041      113.56021980342130
C          114.45785257321756      130.37539671749533      113.05585688390993
C          114.56554928945951      128.91221020710231      112.63228574994406
C          115.91839349269777      128.60216451899385      111.99466893216886
C          116.05757408030976      127.12162701445497      111.65416300936940
C          117.41268354190736      126.77878895576536      111.03864851084286
C          117.53951537498401      125.27755730167226      110.80174075782890
C          118.87923636072645      124.85203731929046      110.20452855648274
C          118.94664190273487      123.33108370392249      110.10119833962661
C          120.24426393899809      122.78490703919773      109.51008095827264
C          120.22129704023359      121.25855064477199      109.54132889982596
C          121.44026157461346      120.58560241502197      108.91656846241877
C          121.34923138754303      119.06936723468495      109.08448877243576
C          122.41916704861053      118.29847356733129      108.31673655515158
C          122.32351075816023      116.79957710666045      108.60209864060080
C          123.19375816226109      115.94223983426001      107.68085473656573
C          122.57525527053942      115.76120855751068      106.29646456624771
C          123.42886147220339      114.89217957937166      105.37598028102069
C          122.74439647291165      114.67447805911320      104.02884345333943
C          123.57212956686818      113.82921128356972      103.06378812310031
C          122.81779933351470      113.59678719126283      101.75614465687518
C          123.61488352391289      112.83870187843658      100.69500094797294
C          123.90390936953919      111.38968878702974      101.08196169761143
C          124.55501384571319      110.58449351361435       99.95516296608750
C          123.57824944052921      110.20586958195594       98.84410606564506
C          124.24463131661471      109.37008330203231       97.75837615054567
H          122.75270087100712      109.63943313536375       99.27794962920427
H          123.16160502364524      111.10837209327944       98.39245349924889
H          125.38495649595743      111.15777799331491       99.53371348496681
H          124.97333619117525      109.66504955764906      100.37461662062208
H          124.56892914481871      111.37787018864216      101.94809315133547
H          122.96850355397180      110.90546677525596      101.37269501372707
H          123.03931690024568      112.85199334373843       99.76680756586282
H          124.55786979432155      113.35822609248321      100.50481596986306
H          121.90239982461783      113.04389541740386      101.97184847459694
H          122.52761963628929      114.56824171253481      101.34555416568662
H          124.52039067940449      114.33221373543253      102.85630842916680
H          123.80124177202251      112.87156952440648      103.53547358705093
H          121.78495319908946      114.18163406165023      104.19655257158888
H          122.54022794798659      115.64572389961698      103.56994845275544
H          124.40138455265121      115.36715578892202      105.22194938565087
H          123.60849419660531      113.92460967758686      105.85249416625433
H          121.59138110799590      115.29948029189923      106.40635278405276
H          122.42990069873917      116.73633086242239      105.82695870770360
H          124.18364938619412      116.39568587317704      107.58677261474972
H          123.32729581780708      114.95592394464967      108.13341994623312
H          122.61561147330636      116.62526206025983      109.64080603534788
H          121.28283286365792      116.48379900296663      108.49467691307842
H          122.29215554101289      118.48221445532026      107.24792611078384
H          123.41218758424209      118.65990637416834      108.59658897427967
H          121.42261856572331      118.82417771728949      110.14637637665484
H          120.36892108696438      118.73645616552052      108.73880090392689
H          121.49311988216108      120.83653240990252      107.85379674393702
H          122.35470906970804      120.95668281639067      109.38686616027307
H          120.13054011019761      120.93001173680773      110.57901418187045
H          119.32966928289541      120.91592952190381      109.01097769773914
H          120.36128395363673      123.13521769618939      108.48136704885472
H          121.09781583204018      123.15510754316539      110.08368058786563
H          118.82025604220550      122.90985661293489      111.10143337398777
H          118.10920200633002      122.98633173643036      109.48816474393323
H          119.00366721088329      125.29964460054606      109.21528775487347
H          119.69430687360469      125.21434848053103      110.83582138426002
H          117.40579963121729      124.76384549407592      111.75710249448314
H          116.73423719515132      124.95171770410526      110.13915852739302
H          117.53298080129372      127.31485027486151      110.09374424400824
H          118.20920261476343      127.11000870963913      111.70919524776436
H          115.92054517235981      126.53396924629095      112.56579224636614
H          115.26383464726793      126.83294884795289      110.96088013991964
H          116.03967730822232      129.19932156922454      111.08710177768920
H          116.71480745008044      128.88949489076322      112.68513614348254
H          114.43007504330348      128.26541859075050      113.50142576932352
H          113.76877405689696      128.68152618031237      111.92031315529111
H          114.70651519890137      131.00789753105144      112.19926306251520
H          115.19513076772567      130.57861532453416      113.83568467610237
H          112.33368217111762      130.57717204461605      112.77269540844655
H          113.06099941062388      131.84208001006880      113.76085356534536
H          113.40582909347651      130.16022613184896      115.60030600287365
H          112.57727906340030      128.95917423972793      114.60672545775125
H          110.54521023133115      130.40636238188029      114.57119595209628
H          111.37954216684412      131.59080990089140      115.56587113902363
H          109.90097600314246      130.25891348973602      116.95227287827909
H          111.58165666805019      129.98320544527206      117.40942226416489
H          110.35822436400400      127.89463111963070      117.45192848567167
H          111.59275376232934      127.84229245457658      116.19878811897857
H          109.85945432156591      128.28115901085937      114.46745017057945
H          108.63706744168050      128.41349328919515      115.72689639536662
H          108.46714809960646      126.23371175798499      114.73437570076595
H          109.06597426110496      126.05129611842598      116.38268029479784
H          110.23826516410536      124.53215557150679      114.94029262301326
H          111.37911921185025      125.74498682887101      115.50086686141807
H          111.25400116756686      126.90021476927329      113.31204221268106
H          109.98667392953054      125.79141969796149      112.78579009499251
H          111.58154185295683      123.88328014191637      113.06732689077056
H          112.84878545302496      125.02823391812275      113.51155351951384
H          112.71941047863818      126.07307027219363      111.27573230359522
H          111.38607792031631      125.00415918231126      110.83582317155872
H          112.85155047317940      123.02826196048066      111.19004219255100
H          114.19953845694985      124.09459701476024      111.58796216250163
H          114.18348304329737      125.01611428175687      109.30348151664961
H          112.74425383010646      124.07809240664447      108.90715429859462
H          113.96683932503274      121.97293590546131      109.29900611563254
H          115.41203199608435      122.86526674827549      109.75779537019723
H          115.61515836935021      123.77283401309168      107.47296951668932
H          114.08627302870843      123.02423820053993      107.01397685358961
H          115.03309842748982      120.77705653557999      107.46946147502281
H          116.56630370537015      121.50138055747981      107.93509755665993
H          116.91520358103533      122.34615930899999      105.65707595043460
H          115.30112743776725      121.82429208376128      105.17859389446050
H          115.90806377150879      119.46582415698836      105.59651482859695
H          117.51446712716378      119.94889702635409      106.12690636985958
H          118.07271771852892      120.76655584819780      103.89019622002182
H          116.41639731659521      120.52490882143860      103.34060113569332
H          116.61433289353195      118.09636149354897      103.66024318887271
H          118.23199823610476      118.28003435429498      104.32714143306966
H          119.10379426268925      119.05267226412671      102.18750777115821
H          117.48446529653040      119.14981862386541      101.50157545232292
H          117.20517532115470      116.72794739310557      101.64646250827873
H          118.72371656647981      116.55594983574046      102.51704296378159
H          120.01255794852696      117.20758521340659      100.57395460285959
H          118.56678054382337      117.69912879491683       99.69644686502221
H          117.78782116759345      115.42504368991061       99.50371513582343
H          118.97980504501214      114.84262983558911      100.66121621636177
H          120.80641200957865      115.26232593616010       99.12398023406480
H          119.74580907720511      116.10194784213689       97.99517887874416
H          118.54853033611356      114.05614538853641       97.47174298994463
H          119.36130167211211      113.17930465592296       98.76514444896142
H          121.50129979685497      113.31333962732724       97.61860094356607
H          120.84481622279154      114.40446489146468       96.40217099985993
H          119.36477099718924      112.65999842625536       95.54478835603643
H          119.84654332165260      111.55714549702301       96.83397698418105
H          122.10169813738959      111.38397807740941       95.95574005666970
H          121.81888622540303      112.69186586548152       94.80890776022004
H          120.17272319525736      111.34860227681614       93.59712340322874
H          120.29607505920293      110.05627682470343       94.79124434086897
H          122.50845897109451      109.46864145576436       94.08765649960667
H          122.73308236503983      111.00045232456938       93.24761781281768
H          122.41618247251961      109.22844346115261       91.61797291944033
H          121.07363138197445      110.36718038179244       91.54911952205001
H          119.70733738973998      108.80369926238828       92.93540784737390
H          121.03008767431048      107.63537008303345       92.90311987185950
H          120.88239249410283      107.52804814994984       90.43129838928134
H          119.60881672559691      108.74496399514598       90.44344427705643
H          119.42203818909060      105.95208427736243       91.65738796771392
H          118.69021654341277      106.49003147620287       90.14800863061110
H          117.47179861785266      108.28102625768715       91.56241584637120
H          117.97898217546516      107.34839469363018       92.97291165305096
H          116.82742491440003      105.33115632500868       91.98341510557847
H          116.21429067787361      106.36649426215219       90.69505366777940
H          115.18031233043268      107.84813506721585       92.45246820667198
H          115.71266177389995      106.70292898473093       93.68410425845556
H          114.38891565539099      104.91368196886971       92.41540714257646
H          113.66898537952613      106.22219399421181       91.47884732149757
H          113.58212026757761      105.96165374191581       94.51786846617362
H          112.28731744202433      105.45865692587675       93.43807323294267
H          111.91803316547548      107.76957694460647       92.71050411094942
H          113.29897663580095      108.32142221325523       93.66012365000633
H          112.19860978332154      107.59661533373287       95.74516551904470
H          110.82975497055747      106.97690464731247       94.82581488277327
H          110.26719852350224      109.10408934554077       95.82175998508325
H          110.26747813400949      109.25842713559766       94.06628108770242
H          112.31918683172363      110.49213379401608       94.07041065959184
H          112.69050055438599      110.02066622205012       95.73069248236301
H          110.98860029833833      111.45543339001557       96.62435203115653
H          110.20951885585332      111.63838467967844       95.06131687127161
H          111.40895186493336      113.67587973605305       95.73424890417482
H          111.98118004638073      113.01540217392574       94.20496127377372
H          113.85668423045486      113.80490229745806       95.47756241852444
H          113.95486550509919      112.05644378485647       95.31258199153940
H          113.16738290531241      111.76674915885781       97.63717368190491
H          112.93115821182732      113.50772997319628       97.78947621062835
H          115.37975600710277      113.85494828546770       97.42609496096679
H          115.59149769918056      112.11898230791127       97.23315386225067
H          116.27391211294287      112.57444308432420       99.44575061286797
H          114.67234276239513      111.84827284698501       99.60924938146272
H          113.68830342674593      114.13258259791472       99.85419372243953
H          115.29625829670681      114.83357469225538       99.68301819868951
H          116.02817741931176      113.61801746775920      101.73880566293093
H          114.40403780024972      112.94646518647936      101.90873738356932
H          113.49946635288640      115.29197720642154      101.99866836116540
H          115.14555869097336      115.90572707575285      101.98377041125563
H          115.61935504257706      114.72161249174025      104.11388692139742
H          113.98538162618243      114.05902075298360      104.11840715091994
H          113.05080685435665      116.36631433762227      104.19720993677532
H          114.67734700016449      117.03083133480587      104.20667291088760
H          115.14228010938915      115.89359198256051      106.36220266576872
H          113.53258701432051      115.17809252967838      106.34402432807256
H          112.51819384295860      117.45168978705570      106.39879335216698
H          114.12194118188269      118.17129871615386      106.40788942614442
H          114.62224952837609      117.01083573203876      108.56111828334795
H          113.00512430218377      116.31787005632413      108.55898531846545
H          112.01751511211626      118.59809597828863      108.64064887501952
H          113.62796643923032      119.30355874338703      108.60494789666728
H          114.18373227788925      118.15240018715697      110.74126443595718
H          112.56744613110261      117.45762836314113      110.78929296005066
H          111.57603470852487      119.72482807850787      110.92521899144660
H          113.17973768055772      120.44449250406021      110.81420568640743
H          113.85080872770270      119.28869265130312      112.90791184152037
H          112.23915115132881      118.59102724288098      113.04521372905357
H          111.25437854518105      120.84386229963329      113.27702108831733
H          112.83893180607612      121.58001571837936      113.03598228694341
H          113.68888464405764      120.39915372594750      115.05740446442462
H          112.08102376335185      119.73591620205484      115.34155824911042
H          111.16622065333684      121.98292597128588      115.67641868184569
H          112.70680528257951      122.71787630345379      115.23088034095113
H          113.79357424958778      121.52543682380356      117.15254805687627
H          112.20745809581452      120.94668105617627      117.65887509234506
H          112.94817632897788      123.89441181035494      117.38670317753218
H          113.05687691171948      122.98199652698845      118.89120657972234
H          110.63028920746774      122.49136408998120      118.77567292913487
H          110.49904077180059      123.45255331058023      117.30364570610618
H          111.12939532174978      125.48526798692460      118.48053191383408
H          111.51374763633210      124.58140026418641      119.94532382549649
H          109.18276517019315      123.89738924919068      120.20827643813107
H          108.75400071312600      124.64693729932377      118.66714993789607
H          109.19291236430280      126.87098829375446      119.55322260281046
H          109.87786273763791      126.19895023061028      121.03070043796269
H          107.63804206180600      127.04753650345911      121.42734857304755
H          107.69986031906583      125.31340480915716      121.71121979654720
H          106.85621313752831      126.20230223065008      118.97019248299750
H          105.72808336225003      126.51762786496489      120.28156720394608
H          105.77487722266781      124.14969968284083      120.94895699682232
H          106.86824304135254      123.76844870705484      119.62795440853178
H          104.03408404483976      124.84887203269642      119.35656495752934
H          104.53052211559172      123.17243265246368      119.12927044751335
H          105.40527588993304      125.52222762581339      117.39693894678824
H          104.14194114877665      124.35675172005976      117.01776428709042
H          105.81861124078605      122.51967870094472      117.03816353334396
H          107.09686386838898      123.69177351482705      117.35902039791904
H          106.50326316496385      124.90067265900397      115.25943915052002
H          105.27469216329868      123.68405627508146      114.92087357381730
H          107.00733736305769      121.93009493954433      114.78601492081413
H          108.25430404652491      123.10553282305085      115.20714109912288
H          107.73153273306170      124.40683049738520      113.15616366503927
H          106.46579934189064      123.25576289786058      112.74159553254431
H          108.15369898757945      121.44780737291173      112.55530681199244
H          109.42989203704160      122.58679192339569      112.99412393863770
H          108.93087722104100      123.94337228188766      110.97862271838170
H          107.62634314356545      122.84343385168330      110.54595498337665
H          109.26363237776754      120.97644953480133      110.35989174229812
H          110.57215403825484      122.08738440624516      110.77274970880136
H          110.10007398290423      123.41988717629681      108.73564141439641
H          108.75639719843912      122.35463180897776      108.33459274798203
H          110.32559256092009      120.42728913680814      108.19119548693892
H          111.67361506030437      121.49446211764173      108.57760296239738
H          111.26137466860187      122.78331031800258      106.49549995859712
H          109.87787794561322      121.75764069896876      106.12516841705744
H          111.37748469709901      119.76433684013087      106.06798578125232
H          112.76138363247236      120.79906835357471      106.40415668357889
H          112.39742946214122      122.00672250027152      104.27028715548821
H          110.96261800178854      121.03557651519739      103.95174705211068
H          112.35783816346080      118.97131395433358      103.95297646308940
H          113.79532254713722      119.94231163318349      104.25224663340347
H          113.48497623970052      121.10506660753711      102.08710223875899
H          112.00161560986858      120.19998933890386      101.79841930515235
H          113.28350786969416      118.07009603768958      101.83044593869712
H          114.77045326470375      118.96269758566216      102.13407164164167
H          114.56126071847287      120.11041453041240       99.95675169146124
H          113.02088437273918      119.30459576177026       99.66308424129065
H          114.12834597473307      117.10537989070615       99.65897550487841
H          115.66382694187502      117.85293343840718      100.10075812335761
H          115.75337035587457      117.36359852403672       97.76453094236238
H          115.64390392619826      119.11432419184031       97.93317044628236
H          113.22535067704301      119.02968553996874       97.36357934320557
H          114.17643460353786      118.24154802404622       96.10840619442787
H          113.29531129237665      117.26906287392762       97.28810948915239
H          125.05396726449987      109.92496634584309       97.28770823407437
H          124.65859126257948      108.45532691268845       98.17828539848865
H          123.52509469280599      109.09660300113099       96.98937355285766
C          106.64662758958325       91.44145480108784      106.94185935485528
C          107.47313163599638       90.59497798250833      105.98124659003427
C          106.64797805535723       90.07031681535265      104.80717850361859
C          107.46399762122607       89.12855200435536      103.92408589995036
C          106.65919654724397       88.48495744691319      102.79364815043557
C          106.24915516618142       89.45365539105985      101.68491885009533
C          105.55730751523855       88.71417908046624      100.54090625923406
C          105.06109106400756       89.62755594941225       99.41864195756867
C          106.19256638669603       90.34231578281997       98.67789210472652
C          105.79000602999109       90.84237561583186       97.28959718912157
C          104.74079088744335       91.95149999533457       97.31970686529610
C          104.33762755683820       92.38618352007795       95.91207533383741
C          103.22333248348086       93.43435868148926       95.89561348985934
C          103.68070291272733       94.81378539741819       96.36331170153981
C          102.56211187965185       95.84720391549267       96.24738063704540
C          102.98141187240937       97.25284161002524       96.67999298226597
C          104.06474278896188       97.84857477719400       95.78495276685115
C          104.28238757240548       99.33772894672606       96.03460134965451
C          105.37038665958318       99.92435668512044       95.13413400092377
C          106.79233442405943       99.52239714940667       95.52520371157712
C          107.27526194581876      100.23402199505489       96.78360744853792