3258
 energy: -3427.555675422828 gnorm: 0.000882703339 xtb: 6.6.1 (8d0f1dd)
C          121.42471411128899      102.38384741882885      114.62717639695731
C          122.67704922758483      103.03452791026477      114.05323238508504
C          122.40945583135088      103.66889924054051      112.69392422545268
C          123.63583947072853      104.36035645431288      112.10430775736462
C          123.28240920094579      105.04819666270504      110.78910724972758
C          124.48237415260336      105.67467908401514      110.08511982070942
C          124.11914538024540      106.24768352000557      108.71383937951592
C          123.28971989837446      107.52798219423074      108.79247472731726
C          122.76738948458141      107.95544487361559      107.42408520320527
C          121.93886334831760      109.23591147553790      107.48848243607408
C          121.30402803067891      109.57489476288546      106.14322930894403
C          120.51098706840577      110.87832944520861      106.17257623379452
C          119.86132778231668      111.18100515014156      104.82525829334783
C          119.07519978173030      112.48889699779561      104.82483216436025
C          118.48233804545092      112.79515462636711      103.45168149124700
C          117.66941837613957      114.08556569582557      103.44093112301994
C          117.06143535162602      114.38075340817348      102.07158286700943
C          116.22956441867061      115.65889894443522      102.09179163004045
C          115.43922435904399      115.88922454730877      100.80596265938750
C          114.53914993599791      117.11659175580175      100.92456621474298
C          113.56789992101811      117.27648906957342       99.75749264515372
C          112.57188037112053      118.40274799953578      100.02380169727456
C          111.47309807394869      118.50151179266929       98.96849867256138
C          110.43279997526953      119.54813031309801       99.35837058161493
C          109.28296681239685      119.67067156646623       98.36406943036916
C          108.25550066527389      120.69960870590100       98.83434262276198
C          107.09291252115418      120.89816066189489       97.86159875776968
C          106.29332475185078      119.61775072210533       97.63954358443826
C          104.99529509029152      119.83428241562363       96.86448200066668
C          104.40211990435024      118.49479036623207       96.43378581355528
C          103.10458010172297      118.63201161016785       95.63772920424503
C          102.79789344109197      117.38550342199271       94.80556760591892
C          102.56195946146767      116.13264629759122       95.64532688192273
C          102.49271137392030      114.87385657932582       94.78470265711977
C          102.24330345910180      113.62364946187928       95.62293210783892
C          102.22316717848594      112.35213987377887       94.77904436624651
C          101.78022974456536      111.13894993750591       95.59235732316193
C          101.63781463550079      109.88720233178671       94.72797790104003
C          100.90660184944342      108.75002189876406       95.44296886729975
C          101.74760062473847      108.04972738116896       96.50877017959476
C          100.88968599173124      107.10455513791926       97.34845362733628
C          101.69679207931516      106.15467339295176       98.23220286724082
C          102.64519663281227      106.86819254782742       99.19460297847903
C          103.12844397733373      105.92964377975748      100.29808840682111
C          104.24337086400280      106.53629114110214      101.14424806720662
C          104.56999496299967      105.68057517039912      102.36364071461627
C          105.76895629227387      106.21190788464064      103.14557728168145
C          105.90416442651316      105.51910259860341      104.49715172755708
C          107.15964526605832      105.93499928574313      105.25905705498369
C          107.13344122175307      105.41725085710623      106.69416080590703
C          108.44650864268159      105.64692927307135      107.43533953853725
C          108.33105347785727      105.27018521314228      108.90973291031685
C          109.67412888656230      105.31635469850744      109.63123432789723
C          109.52577586616245      105.06131073528753      111.12816046381319
C          110.87358272809973      104.98126477658309      111.83853788918056
C          110.71456270167172      104.84277053456354      113.34914843965164
C          112.05275055142396      104.68819828653012      114.06535368325554
C          111.88182985187963      104.66596938946344      115.58078511396741
C          113.20747776663423      104.52019140447941      116.32018492484201
C          113.02712076367288      104.61903865152136      117.83188889716581
C          114.35540085102485      104.59148334408336      118.58184898013050
C          114.16826826259410      104.69847820388544      120.09253589481494
C          115.49857736019256      104.87485166606788      120.81764899162665
C          115.32928455558576      105.01817522386074      122.32769680722136
C          116.64621171525957      105.37903296475555      123.01112942990484
C          116.52172907394922      105.51796222823803      124.52839763507225
C          116.43643129426697      104.17267299504383      125.24467661925999
C          116.35973626626351      104.31149386642495      126.76574323663036
C          115.05007368280747      104.90941426231433      127.28513993162697
C          113.81035645815740      104.05087138268475      127.03014630870481
C          113.80466113480593      102.74939759620838      127.82743877059184
C          112.51180739852582      101.94823578100058      127.66641867955137
C          112.36553014215312      101.29095922982066      126.29440403126752
C          111.17793788174382      100.33083991840876      126.26549067586754
C          111.06456233564035       99.52184964192638      124.97231548613850
C          110.56013224108213      100.32657633165078      123.77652998212736
C          110.31368534920911       99.42741751222363      122.56655534196423
C          109.64670837087527      100.16455955369780      121.40931689895939
C          109.38895839617074       99.24403707496185      120.21881934933528
C          108.63731124658327       99.94890324867161      119.09313319033267
C          108.31610997636542       99.00836164722406      117.93550052471973
C          107.56478457787547       99.71106873317997      116.80962222992936
C          107.28887929631399       98.79268318705637      115.62171722450599
C          106.53120395017331       99.51918454395739      114.51439468002559
C          106.27426803095351       98.64452998349603      113.29053229421147
C          105.46214149173262       99.38595798685414      112.23341317763204
C          105.16315450304046       98.53540032228116      111.00183997388540
C          104.29803194269358       99.29649029733964      110.00144905198140
C          103.91151586944957       98.46513499927788      108.78116395471201
C          103.01080753291181       99.25565425126933      107.83458827954975
C          102.52466785389716       98.41935519759340      106.65351035154346
C          101.71976244785289       99.22712310120819      105.63337421246892
C          100.41960587863474       99.79058999027906      106.20150677314429
C           99.57278329058703      100.49202128350562      105.14160065820542
C           98.36167420069002      101.17581731406501      105.76996350309973
C           97.46372662509467      101.87008599437259      104.74904012029089
C           96.34778755472649      102.64763903519361      105.44106967272130
C           95.43833693814953      103.39186786511306      104.46783477450299
C           94.37218224737950      104.19223867083647      105.21136949107597
C           93.52047381896789      105.05115589458060      104.27892281609873
C           92.31176943423291      105.66957553692423      104.98372011149287
C           92.68912360689703      106.71773855046041      106.02768886843421
C           91.48094773966834      107.18301744907872      106.83747363118037
C           91.88113321929255      108.17663517964951      107.92455594936430
C           90.73642055681876      108.51127448450653      108.87738258141651
C           91.18961107946483      109.44585480867859      109.99717277495240
C           90.08535919291728      109.70712131725332      111.01843340812617
C           90.47147079687309      110.75426207270264      112.06523733398112
C           91.58416641335361      110.34320370495487      113.03187728388541
C           91.15782670428301      109.25174143635370      114.01104094458613
C           92.24635864536272      108.87473338963775      115.01774357772707
C           92.54081523545048      109.96357731557447      116.04803982425145
C           93.53223973711592      109.48852042054133      117.10855351440804
C           93.93779165479053      110.60440425200272      118.06898405050559
C           95.02236248306278      110.15768327966128      119.04675589235447
C           95.53380760812777      111.31234312012002      119.90500391381043
C           96.63286997223661      110.87240656008993      120.86861732421593
C           97.24301773429364      112.04775289753809      121.62826789094122
C           98.39740261486202      111.61249956741149      122.52798691412664
C           99.07576519811440      112.79422874886939      123.20925864219792
H           98.02382446530218      110.92202446610327      123.28672859655731
H           99.13532833951317      111.07322988375851      121.92795203056598
H           97.60609843960739      112.78688800301732      120.90987167324052
H           96.47289414559131      112.53245613651002      122.23440412273409
H           96.22574226411616      110.15017707636056      121.58009398301063
H           97.41871335258416      110.36850826523383      120.30262507412620
H           95.92513207323847      112.09523082548816      119.24968170959556
H           94.70325021608866      111.74498166893093      120.46912476659350
H           94.63087552593848      109.36709264556237      119.69162704285841
H           95.85861447946662      109.73615760849592      118.48319368941492
H           94.30956442869774      111.45542427450738      117.49323886571655
H           93.06056844301776      110.94505710933127      118.62523106781953
H           93.09357836233761      108.66249878822228      117.67285784465250
H           94.42731764120357      109.10339774345258      116.61332804864082
H           92.95377683102626      110.84208113476330      115.54862213894310
H           91.60949161374360      110.26797318148385      116.53294452656272
H           91.92739560584549      107.97607127833612      115.55065787208953
H           93.16475906761441      108.62961102757070      114.47854930037661
H           90.26626156684294      109.58106732237758      114.55209155885937
H           90.88696173324117      108.35540748609957      113.44836302002349
H           92.45825461462633      110.00770404447842      112.47167842873667
H           91.87762480004710      111.23140351396083      113.59492871759514
H           90.79001315832467      111.65603872984180      111.53837858487981
H           89.58271433466328      111.01121234454885      112.64897380034292
H           89.19678033557507      110.06538219091811      110.49034933989648
H           89.81159613100857      108.77047882184620      111.50820551078465
H           92.05052961653513      109.00030969603870      110.49741352582721
H           91.51083295183842      110.39616795456554      109.56461913443096
H           89.91734728767645      108.97442735187182      108.32103226304778
H           90.35299083572563      107.58530350246087      109.31455848943490
H           92.70222579050247      107.74819330029791      108.50367996653040
H           92.24663657675670      109.09481324423000      107.45838345655223
H           90.74142273076660      107.63737992357095      106.17332969208191
H           91.01163841667754      106.31330818484899      107.30509296688403
H           93.42100969076071      106.29447735789542      106.71658542301518
H           93.15170391476161      107.57374165500606      105.53176600922315
H           91.65920342577486      106.12993139567513      104.23685500833062
H           91.73932575617617      104.87286186726685      105.46690244297292
H           94.13691009467203      105.84356880400537      103.84846964107939
H           93.16238782309802      104.42734296412124      103.45524110780309
H           93.72343276944949      103.50169600216380      105.75659330364499
H           94.86618908185014      104.83010423987395      105.94607751660226
H           96.03748891975025      104.06911051473080      103.85554618439163
H           94.95979522185883      102.67913891372490      103.79119703796319
H           95.74711284126089      101.95806648219249      106.03922767014315
H           96.79616187707821      103.37108625351449      106.12654216927847
H           98.05972004925157      102.55591004591901      104.14232758262841
H           97.03176891819126      101.12729183271104      104.07313739570473
H           97.77461574839279      100.43554716974722      106.31878282202641
H           98.71351708980515      101.91653325559692      106.49291613337367
H          100.18177692252746      101.23813327228901      104.62547799575485
H           99.24054872742178       99.76494276435861      104.39564547146807
H           99.83871450739665       98.97983009405071      106.64789803692308
H          100.64918516311724      100.50843566608155      106.99162007529286
H          102.33421678654467      100.04972793834087      105.25906097547589
H          101.48302916433356       98.58073967081019      104.78311985176683
H          103.39130317109581       97.98232797230894      106.14899408186824
H          101.91151434998967       97.59349099544458      107.02411712250475
H          102.15114503976740       99.62307247799085      108.39886452211208
H          103.55699383309836      100.12411282918900      107.45841128206092
H          104.81340463749594       98.14836395886537      108.25077794634161
H          103.38827366037219       97.56127479510154      109.10636756073890
H          103.38688592813048       99.63029424370190      110.50500696342263
H          104.83277698744443      100.18940801929479      109.67082880616191
H          106.09979772300140       98.23619955636018      110.52432434221730
H          104.64408374721727       97.62132432650350      111.30610964102603
H          104.51759071920013       99.71132750297436      112.67555942626221
H          106.00501553411100      100.28119214859915      111.92411451830219
H          107.22658162506586       98.32430314157970      112.86095240875284
H          105.73336098052982       97.74559207837227      113.59392960976670
H          105.57427613723354       99.86823326246819      114.90903597718224
H          107.10203241307818      100.39878684106316      114.21098974866437
H          108.23702500581926       98.41844908439560      115.22642362090338
H          106.70818627568116       97.92795340977158      115.95574728767386
H          106.61582088189138      100.09441757652982      117.19429776708272
H          108.15017459198675      100.56674414184968      116.46815398273090
H          109.24575952309570       98.59168186349392      117.54205937746491
H          107.71400711590189       98.17780523029862      118.30966920170722
H          107.70498841366512      100.36303983254551      119.48857906229985
H          109.23705214517931      100.78483565495593      118.72748484166478
H          110.34245739851850       98.87013550112690      119.83869381374575
H          108.80889297752242       98.37962264707916      120.55304685571890
H          108.69580729632075      100.57946313777535      121.75541276437333
H          110.27807837701475      100.99914758278254      121.09511919236562
H          111.26382189971149       99.00636735105799      122.22975220622340
H          109.67380721059658       98.59375424546818      122.86859787712402
H          109.62586359191613      100.82365519615666      124.05124584920145
H          111.28385482523805      101.10100569845285      123.51512239866624
H          112.03796077686226       99.08539754701319      124.73399825101481
H          110.36946212927550       98.69501418427080      125.14550603109345
H          111.28165314076868       99.63193188608383      127.10061720760645
H          110.25299448417408      100.89121952858304      126.42392318751058
H          112.23882344217459      102.05768598614540      125.52999640957337
H          113.27798676477859      100.73483482167020      126.06623471779474
H          112.49646874964533      101.16353844446468      128.42832496612482
H          111.65403645814581      102.59975265995836      127.85118876677237
H          114.64493085318942      102.12222739959942      127.52323354161558
H          113.93935618385395      102.98944753537842      128.88602877730114
H          112.92772183446178      104.63092364575340      127.31362912896869
H          113.73021213993607      103.82985178636396      125.96605898064347
H          115.14808175297448      105.06961583687291      128.36273970148579
H          114.89951368758157      105.88796216488504      126.82603195887683
H          116.50959626189228      103.32993036232057      127.22065163418516
H          117.18383207303870      104.94865658440592      127.09987952390036
H          115.57494324787154      103.61117305236495      124.88359548666874
H          117.32915780222605      103.59108091306106      124.99764573591297
H          117.39382005992329      106.05464901102808      124.91099657407892
H          115.63813712106914      106.11697571196224      124.75564897496997
H          117.39821339756310      104.62114475935104      122.77900204094985
H          117.00015800236956      106.32842989508818      122.59978472607314
H          114.59636077404259      105.80044378935474      122.53571169429371
H          114.94019442612070      104.08351584088211      122.73573344093650
H          116.14471816450629      104.01911008142514      120.60584770306647
H          115.99640862982130      105.76647804240005      120.42691360746919
H          113.52538631522303      105.55326214229561      120.31422058050485
H          113.66214841151658      103.80514208467817      120.46438987079237
H          114.89066208563075      103.66766760609137      118.34693154401879
H          114.97755008384942      105.42450766912204      118.24362225804236
H          112.50308844630916      105.54931339300929      118.06759174646470
H          112.39732564870063      103.79626790598554      118.17528605361449
H          113.66956477045774      103.56176148545843      116.06858700700286
H          113.89085020613683      105.30421084362061      115.98498512782868
H          111.40396844391979      105.59659860028317      115.89708951536910
H          111.21736570959297      103.84586779722716      115.86008655133988
H          112.53886667609068      103.76499047154515      113.73825220026706
H          112.70977844670762      105.51551412695129      113.78692809353871
H          110.20299640253208      105.72833088491153      113.73637371935271
H          110.08429421398257      103.97810373232412      113.57029870570791
H          111.43721402414505      104.12788129762930      111.45203239797654
H          111.45349682621028      105.88001945345951      111.61697004131281
H          108.93137945657023      105.86501006885641      111.57187717045657
H          108.97883572070087      104.12783930551404      111.28454159305996
H          110.34183947360997      104.56631060737801      109.19948040333917
H          110.13673963303005      106.29346266428655      109.47418661897308
H          107.63293431326800      105.95369135134577      109.40074737544998
H          107.91197708545752      104.26358290386591      108.99336813170305
H          109.23399678388103      105.05044470398553      106.96847885292196
H          108.73562821000942      106.69734161859810      107.34941167275491
H          106.32461679975989      105.91475008048542      107.23505407687574
H          106.90854511748512      104.34697002821986      106.68612289487150
H          108.04210637029949      105.54658074631455      104.74505194285058
H          107.23876189849955      107.02549343966400      105.26816040022935
H          105.02431848545375      105.75606570264895      105.09916990327272
H          105.91357544149069      104.43537513013509      104.34880345558797
H          106.67931433425478      106.06205121463033      102.56101402576138
H          105.65521541681311      107.28783122345732      103.30212451923161
H          103.69640579220672      105.64997540902050      103.01996800035963
H          104.77287750210617      104.65434658315627      102.04561053390519
H          105.13851590828895      106.65514207308519      100.52989547528973
H          103.94010927781008      107.52934118159661      101.48100728876344
H          102.28254047156712      105.68269464600661      100.94494640209776
H          103.48380708517679      104.99759760871075       99.84922914653038
H          103.50538808862785      107.25419905214503       98.64354166844052
H          102.12830025813179      107.71691548209733       99.64673370301733
H          100.99384442280541      105.54839119989121       98.81036279797280
H          102.27189148504668      105.47184080346723       97.60128018671806
H          100.22123067057632      107.69811897716149       97.97707530626427
H          100.26432970285758      106.50591914564863       96.68008150261679
H          102.54868740772183      107.48736338565035       96.02270195904080
H          102.20730373012402      108.79369844582649       97.15918545334634
H          100.00231711442100      109.15102213140422       95.90822539985750
H          100.59086868214044      108.00791325524075       94.70470843296806
H          101.07178902325511      110.15125676571394       93.83050408819967
H          102.62390505595185      109.54616383624897       94.40419594730571
H          102.49824913021854      110.96182719392738       96.39493681364273
H          100.81575766220173      111.36060748393841       96.05600396613691
H          101.53385948847614      112.48882123600542       93.94166127865337
H          103.21639220908880      112.17168930572824       94.36148277648337
H          103.02211033836933      113.54110427650519       96.38385522164361
H          101.28620959633682      113.72509580278661       96.13841038646923
H          101.69712000045304      114.98104136732526       94.04200799556186
H          103.43290899009760      114.75969695245111       94.23809231142754
H          103.37295251749951      116.01411595730430       96.36421101341675
H          101.63316731460068      116.24301079600524       96.20859812856584
H          101.91642089217832      117.57416022596118       94.18656320507836
H          103.63579509204591      117.20295619104009       94.12683356467801
H          102.27213495721618      118.83828948133134       96.31435226916967
H          103.19301608465750      119.48455677426935       94.95862061735804
H          105.13944540102511      117.97628825851437       95.81621878448081
H          104.22788169000999      117.88457403419993       97.32227425441491
H          104.27725811515151      120.38087081931114       97.48127935338776
H          105.19576816143540      120.44114680489133       95.97875759069339
H          106.90869150613688      118.90499591700616       97.08727725659220
H          106.06026002791648      119.17077335364914       98.60940971968949
H          106.43219852018305      121.67328040408773       98.25933170607834
H          107.47673959819821      121.25652357409260       96.90241997469059
H          107.85590008361066      120.38633711879503       99.80271025145663
H          108.75686395607325      121.66072731627851       98.97992100867316
H          109.67248288301752      119.96542219845965       97.38772322024244
H          108.80443541301740      118.69635823917422       98.25612784553387
H          110.02340303520943      119.29349689043960      100.33938688576197
H          110.92614705128760      120.51682679507921       99.45255541333739
H          111.91162696264954      118.75889938128834       98.00130205962691
H          110.98904751631206      117.52753114696749       98.85802370415148
H          112.10528905047106      118.23201564734522      100.99827949888459
H          113.10361208590631      119.35570564585824      100.08125666205407
H          114.11881763647649      117.47402956557721       98.83530896662774
H          113.02059134023180      116.34116105888349       99.61997422433527
H          113.95623239325501      117.02930947119435      101.84574696412056
H          115.15726359153011      118.01494832436060      101.01290382559851
H          116.12290572993606      116.00595672504149       99.96116047021071
H          114.82038845765216      115.01178354303228      100.60681955633456
H          115.52249859841471      115.59212909399673      102.92252222662098
H          116.87943969493185      116.51715695464404      102.28160897065584
H          117.85695895943554      114.46892418870796      101.32801784100319
H          116.42352288033494      113.54482768464074      101.77733691780109
H          116.86618670851949      114.00396438924595      104.17724700086215
H          118.30641212026251      114.92272080307721      103.74174852952657
H          119.28823735282110      112.86839145676275      102.71747050514287
H          117.83669547394319      111.96868202351308      103.14844747492458
H          118.26964172742792      112.42433015935572      105.55879039628454
H          119.73095034522646      113.30925740760580      105.12858615156618
H          120.63576264447084      111.22727551373683      104.05537531430477
H          119.18967682448994      110.36292910648677      104.55793135815929
H          119.73593496171937      110.81093188899528      106.93839149253799
H          121.17687816303253      111.69964522816508      106.44700684990299
H          122.09034575915867      109.65005996019293      105.38743962053145
H          120.64235950700305      108.75941762212152      105.84252980749586
H          121.15128374580702      109.11715522125625      108.23566436671256
H          122.57549559858838      110.06252129738553      107.80967656219777
H          123.61165182705963      108.10391220540635      106.74576819676437
H          122.15092608874448      107.15170925134279      107.01269138066830
H          122.43884232900990      107.37523444885733      109.45700130795998
H          123.89897406219400      108.32778796551922      109.21943838578143
H          125.03650725640105      106.45489734673319      108.15667354208225
H          123.55866236853211      105.49258324223455      108.15563483108475
H          124.90783496778349      106.46421327669194      110.70994190451134
H          125.25229926459366      104.90921281294833      109.95813691665019
H          122.82656979014185      104.31375856006848      110.12044605612019
H          122.53591315094258      105.81644889925428      110.99377269908140
H          124.01859131610695      105.09824896919913      112.81461944709672
H          124.42556165142744      103.62322166626664      111.93783926131404
H          122.07251433021892      102.89470011153881      112.00016538855252
H          121.60154248094722      104.39808918440990      112.79471574653692
H          123.03978229605009      103.80172509856436      114.74219871586783
H          123.46580448771351      102.28711411883587      113.94813389016511
H          121.63231421118239      101.93613721224327      115.59682157040052
H          120.63657138117114      103.12297854437362      114.75141257379219
H          121.05718054100726      101.60836759718032      113.95904357874034
H           98.36514323941877      113.34312316459840      123.82381979070297
H           99.88706779835148      112.45270422723119      123.84862400129219
H           99.48608274563317      113.47936417320911      122.46968706755013
C          117.05986768618644       99.66167365651313      123.80788835808362
C          115.67843485845374      100.19530581695518      124.16886055099980
C          114.99409107248255      100.93388385937394      123.01830478431360
C          114.58806795296910      100.02143183047595      121.86322872737331
C          113.84495350570586      100.78569600793156      120.77078189620644
C          113.45046539988407       99.89857125942147      119.59233233102024
C          112.72056677975857      100.69141442469009      118.51111885900518
C          112.33202806499160       99.84070481882520      117.30418742664257
C          111.59129621798682      100.66335937594063      116.25259813466403
C          111.24067653416371       99.85976223928218      115.00333614445476
C          110.45875507352336      100.69300698729275      113.99110918589602
C          110.18844206654454       99.94155111545130      112.69045259716140
C          109.34085341264235      100.75888925079504      111.71863663746832
C          109.15075773852668      100.05433031975588      110.37866795995139
C          108.22585061953835      100.82164138170585      109.43769633433497
C          108.14692653862112      100.16833137876610      108.06108301334868
C          107.09990068800246      100.81382416899686      107.15842128568549
C          107.12823764509466      100.24020482655108      105.74294450712074
C          105.90184437811729      100.65457868784661      104.93354787415588
C          105.98220717949471      100.19489267345622      103.47751876122371
C          104.61534713720711      100.12326035170182      102.79564350443229