3864
 energy: -5104.223772100202 gnorm: 0.000920798594 xtb: 6.6.1 (8d0f1dd)
C           40.65797421726629       61.04132002925290       62.49970299288550
C           40.14092559822384       59.79465381454207       62.16632398725807
C           38.97578350924979       59.37387789763770       62.79595993081422
C           38.35606488793235       60.16770076236176       63.74582887593954
C           38.89434504823943       61.39856919361053       64.08182405295545
C           40.04750585457494       61.83558770354600       63.45252505166378
C           40.79726176050975       58.92664368929356       61.12318351950724
C           40.83200855352268       59.66018386298905       59.78107328172549
C           42.21400047888589       58.49772755064806       61.52947736510480
C           42.24921351129044       57.63073428526609       62.79625215346469
C           41.40542353505667       56.38948366733791       62.66318711436877
C           41.64529544094430       55.45305998082600       61.66320393319798
C           40.91712909482795       54.27908804831632       61.60684580151796
C           39.94932308440177       54.01216474638029       62.55997100942331
C           39.68706325924259       54.94506982645244       63.54728906795781
C           40.40434923065786       56.12703093941127       63.58990024362622
C           43.70135164007073       57.23414993597717       63.10704199232778
C           43.84773214476944       56.34846089643953       64.35164445499923
C           43.57517137529342       57.13075300200043       65.61153123989936
C           44.38126962265811       58.20278871893178       65.97826243251292
C           44.14850514362367       58.89921794588233       67.14929470086322
C           43.09798023080891       58.53850310850637       67.97562662490606
C           42.28704725658065       57.47408739130938       67.62263541521467
C           42.52871328980896       56.77509580179957       66.45268884690289
C           45.25482460168377       55.72720232316444       64.42190917158700
C           45.44259427412190       54.52957815428703       63.47076066007656
C           46.90340873347960       54.39805122614810       63.12360123116188
C           47.85621630219360       54.15303133066835       64.10687162802776
C           49.19646230698402       54.04627284334007       63.78240173357347
C           49.60667790175609       54.18106169986446       62.46644523287761
C           48.66839129656838       54.43080817468807       61.48041938462314
C           47.33107699773824       54.54726953811139       61.81082622814018
C           44.87165724193123       53.23615557977932       64.07677844898122
C           44.43105779121483       52.21240148766113       63.01723432612349
C           43.48345245313308       51.20846893013587       63.62740383488494
C           42.18914967593880       51.06485096659651       63.14714698893921
C           41.32349175545438       50.14177036129447       63.70714757069899
C           41.73606084470894       49.34263445687419       64.75692267062821
C           43.02627707012125       49.47222194853016       65.24240575855188
C           43.88838074937200       50.39594740674493       64.68194764905566
C           45.60150473979826       51.47109011527165       62.34955387001921
C           45.21126587657409       50.93206149407172       60.95863077391384
C           45.34973944046013       52.04006534935536       59.94543645448633
C           44.25052225057581       52.81499875078507       59.59519015881393
C           44.37927490198847       53.88463920092506       58.72624600587550
C           45.60665232192269       54.17131623136109       58.15789689751101
C           46.70238696485066       53.38869415732748       58.47665071063094
C           46.58118279558089       52.34448959995708       59.37596741428578
C           46.03699071180525       49.68893630542130       60.58640097583421
C           45.33276567051853       48.38716285317238       61.00859716962778
C           46.29811945217234       47.23706611241425       61.13190377493769
C           47.20076193604278       46.93599110318318       60.11868110887646
C           48.05014414203819       45.85018091166307       60.22719701751121
C           48.01085748987449       45.04298418842561       61.35102383225885
C           47.11825683588319       45.33207640959399       62.36818046809555
C           46.27252490309207       46.42107996635491       62.25631294664655
C           44.24984144952710       48.04409197453145       59.97458821082683
C           43.36780751402740       46.82978261515451       60.30794084161750
C           42.64386597303629       46.42786654697965       59.04313931303287
C           41.81241250964990       47.31996474622697       58.37481713320157
C           41.23764799641652       46.98359178986006       57.16384879527981
C           41.43652868168972       45.72474984556232       56.62360618124537
C           42.23720865885742       44.81544239718683       57.28970018393841
C           42.85532017837320       45.17856167742963       58.47434686326976
C           42.41349833579440       47.11582863165457       61.47860108531566
C           41.40889851196805       45.97518815827127       61.73322969264146
C           40.06892939291662       46.24392071594637       61.09192876924070
C           39.56156903205383       45.40228070921057       60.11055198004187
C           38.29131642442541       45.60064323234987       59.59681384285670
C           37.50670528849569       46.64277262786771       60.05796128325955
C           38.00928923918002       47.50166345755156       61.01869177608629
C           39.27898546254295       47.30224859258671       61.52782810893972
C           41.17585086816973       45.73696610363920       63.23934902702911
C           42.28849750549682       44.94942166591353       63.96104197986097
C           42.63692876399494       45.57670148912456       65.28779948094800
C           41.64417859673475       45.91720788989794       66.20062638955629
C           41.96924145859010       46.44752234135093       67.43587975102994
C           43.29581402536766       46.64250560869633       67.78375813693708
C           44.29324482789535       46.29966585470711       66.88697622261931
C           43.96299589882820       45.76997851656259       65.65162434855137
C           41.88667277942463       43.48722020505386       64.24413640009425
C           41.93627117803046       42.59359692914769       62.99765488119625
C           43.37903308376673       42.33733137888110       62.62044141484608
C           43.95359743575555       42.98618379587638       61.53488755401916
C           45.26654025341124       42.75654743683964       61.16544167990099
C           46.03881045483717       41.86534668033120       61.88681259387373
C           45.49182940587744       41.22887644441028       62.98794901600171
C           44.17781580531709       41.46551663142854       63.35291878458157
C           41.19506572793486       41.26029556856109       63.19490042854992
C           39.66117955202436       41.34650016457856       63.30024630827898
C           39.13158939286009       39.98269762883247       63.67860523184689
C           39.25237529617997       38.89848214751387       62.81572187956866
C           38.74731686005464       37.65687659938721       63.15473308219225
C           38.11811258220165       37.47337174376228       64.37416274724248
C           38.00910071552925       38.53739587838726       65.25232172535142
C           38.51314514606779       39.77938303992767       64.90534607999798
C           38.99389186157222       41.84069990769508       62.01019361740151
C           37.46634877487722       41.95248448902283       62.15155875988362
C           37.10770207602329       42.96948421749450       63.20609488394784
C           36.43670629489754       42.58070242574548       64.35865022481515
C           36.08077024581042       43.50961829312433       65.32117061882813
C           36.38629974971108       44.84783947439006       65.14208917839292
C           37.05620758216415       45.24789512231997       63.99874717286137
C           37.41718932135881       44.31570819489535       63.04333280721551
C           36.83963321337929       42.31501407333288       60.79512917228951
C           35.35091924194865       42.67300340282667       60.90353083401608
C           34.49964704127186       41.49400351995401       61.29595934928298
C           34.37123155748684       40.37828175973434       60.47810277239281
C           33.54582452539573       39.32791344714940       60.83559042289585
C           32.83824036603757       39.37032381722899       62.02380166293036
C           32.96560016318121       40.47121813224597       62.85340961802063
C           33.78631039056670       41.52288328268864       62.48843760339263
C           34.85143485504575       43.30040406998479       59.59265516379710
C           33.36405547704984       43.67711581432936       59.64323989764559
C           33.00466922833554       44.39068366903349       60.92347346209004
C           33.79431053521974       45.41692060539169       61.43105720193437
C           33.46489543016244       46.04512492114626       62.61801111879335
C           32.32003583145405       45.67909845430366       63.30436390686344
C           31.51051267854938       44.67812413021449       62.79635552999293
C           31.85587977668002       44.03744214390623       61.61913164647857
C           32.95748457053900       44.58644137746991       58.47087005035346
C           33.08856007631962       43.95874940310555       57.07573511929835
C           32.94108446863591       45.02860305319984       56.01764136159317
C           33.88076094314937       45.13207297527773       54.99917503100845
C           33.78305566773983       46.11948661342316       54.03617087662570
C           32.73916957337831       47.02611160834331       54.07262943800313
C           31.78354563196632       46.92306177375709       55.06944056369615
C           31.88079990677888       45.92930676017385       56.02797856892805
C           32.08070890391859       42.81242002867720       56.82335468098845
C           32.76234490296122       41.43814379444003       56.78945819748414
C           31.80325069772336       40.27346286819710       56.74191933446679
C           32.21440922129767       39.04999596664994       57.26314146189006
C           31.41548208570751       37.92650635910420       57.16450032195489
C           30.18092111206072       38.00446455025047       56.54188798401397
C           29.75702958980992       39.21638625034788       56.02620360911377
C           30.56142974957591       40.33934516439047       56.12301438797547
C           33.72075854963735       41.32129744608029       55.57979989936413
C           35.13217530055324       40.79915668578980       55.93558954098717
C           36.17866264964168       41.81570364933785       55.55008914666163
C           37.03390486998510       42.35855315380640       56.50016092949903
C           37.97057649430371       43.31632258773956       56.14841892169008
C           38.05637296456248       43.74938089848913       54.83822041600710
C           37.20915726535229       43.21920124466168       53.87984499736875
C           36.28338243599411       42.25545938285521       54.23389740346587
C           35.40293156455260       39.44822980636005       55.25946948713297
C           36.69706667349630       38.78479283146813       55.74979977044870
H           40.18683884702446       58.02408125621535       61.00774461509918
H           42.65982063020442       57.94581538809717       60.69982174847227
H           42.83290205340447       59.38269122452168       61.69148931462338
H           41.86099250340541       58.22156402204055       63.63540129525132
H           44.10890945371938       56.70567492734109       62.24539325764309
H           44.28985789533331       58.14164700071961       63.24494011445353
H           43.11621742016726       55.53612331112659       64.28889306727000
H           45.99301843532357       56.49432143842856       64.17762322128863
H           45.45017106436708       55.40455848293754       65.44730589952358
H           44.89378793761926       54.73751309563848       62.54694339907116
H           43.99275802086836       53.49220503227693       64.67485806927530
H           43.88872068209865       52.76938167346228       62.24654440731249
H           46.45904321326780       52.13627321567391       62.24533959990384
H           45.90722504437071       50.63811110519595       62.98572331723889
H           44.15652549799833       50.64041728964082       61.00454752004300
H           46.19162092816339       49.67024097611077       59.50554686745340
H           47.02193845033123       49.74183592170066       61.05717243993648
H           44.86264116359111       48.54985095588741       61.98472231202592
H           43.61251114214154       48.91836454397721       59.83332742721544
H           44.75096475823619       47.84366239616615       59.02334160617924
H           44.02663041039484       46.00435152459073       60.60411759287602
H           41.81342328115615       45.06086772217408       61.29350445453364
H           41.06842354509549       46.71216528058861       63.71679281081149
H           40.22648808915681       45.20964216853745       63.36616676275086
H           43.19152746513289       44.94210244516839       63.34170705205531
H           42.56283228834968       43.07508730854359       64.99895981981346
H           40.88163866349993       43.47860168898536       64.66939432433156
H           41.45337181256122       43.13302625956984       62.18082538668305
H           41.44944106110619       40.60427504347845       62.35911526368771
H           41.55734460167321       40.78017068206901       64.10699967655711
H           39.39885331470081       42.04271507679265       64.10388949340813
H           39.38679309437190       42.82465386973369       61.75262532836462
H           39.23041658717607       41.15723080264367       61.19354718932534
H           37.06770508156439       40.98074487608949       62.46594006123353
H           37.36584916092038       43.17799739861884       60.38362755244859
H           36.97076751026444       41.47172814794346       60.11430015464946
H           35.25305489888393       43.42468900003411       61.69184930390410
H           35.44695158507542       44.19059378356791       59.38267342386956
H           35.00769978781091       42.59693524909427       58.77542696492682
H           32.76937357974331       42.75821857593914       59.59886854600369
H           31.92338706872128       44.90028222252047       58.63409417573624
H           33.58031157592059       45.48486291038190       58.50161518701137
H           34.10127085406830       43.55842048993576       56.98725141291881
H           31.31418856909868       42.81320820165901       57.60165397234460
H           31.57847179830207       42.99220955128413       55.86995702358401
H           33.33752129428824       41.33957009922996       57.71523608815274
H           33.26912767224643       40.66281352410792       54.83432310444121
H           33.80518662134514       42.30198920066231       55.11347968955184
H           41.54766058853423       61.40615081581049       62.00947709346931
H           40.46845973043792       62.79898067423169       63.70380069458320
H           38.41561601039125       62.01647939134126       64.82882992550380
H           37.44824644338024       59.82615769414470       64.22444243921706
H           38.54782458245715       58.41400429016926       62.53755545823081
H           42.41282781353624       55.63768256045122       60.92557586026564
H           41.09840632673262       53.56171456297689       60.81775224398336
H           39.40173571603114       53.08230659637222       62.53228440993253
H           38.92360356460117       54.75068374654667       64.28865323829555
H           40.19543806864956       56.85456392349320       64.36316349597431
H           45.20660083950508       58.49887600673974       65.34866429678327
H           44.78634262054506       59.72917763837273       67.41807505363121
H           42.91368272318782       59.08364104757638       68.89035016495363
H           41.46595173391941       57.18410629900237       68.26367352334094
H           41.89536659070809       55.93874716659292       66.18978691811009
H           47.55087285128972       54.04686283733439       65.13837208056400
H           49.92403047208905       53.85509863434264       64.55958820389306
H           50.65527035705742       54.09194992141789       62.21858975022392
H           48.97175437808496       54.53680874660686       60.45064185076956
H           46.60650901573151       54.73788534986852       61.03324592344673
H           45.60414736769264       52.78695275854448       64.74913169764658
H           41.84746502363357       51.68984209786986       62.33511824010835
H           40.31791673843210       50.05019364097603       63.32289181386012
H           41.06342775162098       48.62557196410764       65.20611659092154
H           43.35612868380441       48.84809595320537       66.06053137599865
H           44.89024037864971       50.48752429164315       65.07729615902700
H           43.27785918100984       52.57756666145247       60.00519658637707
H           43.52351667708416       54.49443423176996       58.48210906480185
H           45.70550843282518       54.99868419900604       57.47048485734376
H           47.65700984553130       53.60294753912746       58.01923293023898
H           47.45067660964902       51.76051931884979       59.64056448343574
H           47.24819195086423       47.55903381329114       59.23803385777797
H           48.74872488067503       45.63154303965329       59.43174811146819
H           48.67238505809593       44.19246664132724       61.43804405565290
H           47.07951238181447       44.70348151258359       63.24767588617817
H           45.57905461529371       46.64531148556540       63.05607134588659
H           41.61950696277499       48.29552648068405       58.79475552987212
H           40.64156959203942       47.71042664657126       56.63327107716594
H           40.97686839033914       45.45815656746526       55.68328616910868
H           42.39112896485022       43.82247582711943       56.89069423959830
H           43.52274296396721       44.47501044755071       58.95203831479375
H           43.01124291508368       47.27263955870382       62.37905851297551
H           41.86780971597084       48.04274934605493       61.29166294608881
H           40.16591964893956       44.58437619410562       59.74292565050028
H           37.90701864195521       44.93895212486321       58.83469659880281
H           36.51353396366189       46.79711149272079       59.66237351331915
H           37.40193848601333       48.31904870591566       61.37977242357227
H           39.65925943021598       47.96851321728035       62.28824542170409
H           40.60569731452280       45.76164472210500       65.94540377356125
H           41.18600073937561       46.70892899907047       68.13378671189294
H           43.54959983046724       47.05820469082886       68.74856866683078
H           45.33127612556826       46.44673616258683       67.15082875451660
H           44.74873526316312       45.49470859153643       64.96162667707615
H           43.36218433590131       43.68257929373546       60.96136428459276
H           45.69244996228714       43.26931153082089       60.31503401215655
H           47.05852156285806       41.67063063596823       61.58706597076100
H           46.08964683343616       40.53773573715753       63.56646225893051
H           43.77464516840280       40.95571791210062       64.21577895037041
H           39.75264993670406       39.02109793518277       61.86653087591920
H           38.83889611877631       36.82476392862939       62.47114585174526
H           37.72086329776588       36.50306512292549       64.63549258751213
H           37.52724875978038       38.40138672566483       66.21068314381527
H           38.42041586098330       40.60508247217681       65.59793171908441
H           36.18246638608480       41.53858642302270       64.49913422553671
H           35.55592774055197       43.18792614469329       66.21063483522229
H           36.09872516735275       45.57500502382415       65.88774539761518
H           37.29096972897901       46.29181676143666       63.84600611534314
H           37.92945694006555       44.65001793574811       62.15491488027283
H           34.92303083394297       40.31850788298342       59.55145568493431
H           33.45176071973631       38.47099722870601       60.18518774543647
H           32.19045522073379       38.55098378347873       62.30220026927319
H           32.41841334036364       40.51361209666342       63.78521660143677
H           33.87180165258133       42.38387757170966       63.13746614175179
H           34.68808668601954       45.72302647558445       60.90825528570345
H           34.10599099518619       46.82027176544428       63.01221605242630
H           32.05970487572129       46.17045011669342       64.23109144040478
H           30.61244209870393       44.38694909055175       63.32418863926102
H           31.22823882122255       43.24082766548405       61.24180106982033
H           34.71054250134728       44.43995630597955       54.96310099421745
H           34.53415931101280       46.18467195271521       53.26529987090642
H           32.66192303968848       47.81115531757576       53.33436245359304
H           30.96238616447206       47.62688675760106       55.10389493681897
H           31.12338182120615       45.86449224061648       56.79567861589928
H           33.17679987375369       38.97718139557085       57.74931121343688
H           31.75452551523456       36.98482832765908       57.57358175803919
H           29.55350360493607       37.12805463851651       56.46070339654716
H           28.79261183712488       39.28846397594248       55.54208228840668
H           30.20594164784650       41.27149352138562       55.71046074066037
H           35.62452687325187       41.84619684669794       53.48062804050842
H           37.26578246706122       43.55632484853922       52.85585969967922
H           38.77817979470250       44.50441767158516       54.56842029059535
H           38.63705029631092       43.72334936026116       56.89496684487422
H           36.96595592434504       42.02895876779350       57.52779123898910
H           41.19052767061553       58.99978015412309       58.99759761139880
H           39.83504038803159       59.99928531932067       59.50979974265709
H           41.48784877233113       60.52578195830473       59.82325279501605
H           35.19477092118254       40.63840238550835       57.01754405767385
H           34.56228623198579       38.78163780799858       55.46232356615935
H           35.45719919176904       39.60227719026951       54.18186895068259
C           37.04797109051775       37.54904119188888       54.90717132209755
C           36.57012466126703       38.38101923118450       57.19996879106382
C           37.38469404371305       38.94424334517093       58.17443265889661
C           37.26200604469602       38.58335650721296       59.50521213281532
C           36.32112810127579       37.64554400019514       59.88796816563378
C           35.51462671846683       37.06289678024577       58.92397481690022
C           35.63690132205706       37.42807919860193       57.59564801765314
H           38.12538042253654       39.67759785591191       57.89326221548899
H           37.89426793724472       39.03595561487514       60.25474577559123
H           36.21920707241219       37.37479226875276       60.92899447287235
H           34.78343702069041       36.31788849318345       59.20948305384583
H           34.99589594031990       36.96008881636893       56.86253096968890
C           37.54755394211037       37.87324040521873       53.49430407009690
H           37.82228991817045       36.97737814040597       55.42676952925426
H           36.17003995266960       36.90520808075141       54.83469694432186
C           37.83232672351296       36.59482906423471       52.76066304223364
C           36.78456646815303       35.76412627082924       52.37611812031070
C           37.03236213428829       34.53822684766621       51.78729248961150
C           38.33539265459714       34.12538443459339       51.56276082153997
C           39.38381819338833       34.96123598664546       51.90508027144828
C           39.13275968492140       36.18344304440477       52.50267356507827
H           35.76331969663207       36.07554636774877       52.54684225426940
H           36.20615567437983       33.89568016604450       51.51321323948043
H           38.52971512577487       33.15062715614334       51.13861463160047
H           40.40464554682828       34.66318793163046       51.71836941051567
H           39.96550642545287       36.81557546100862       52.77678312430564
H           37.51167097618071       39.51166219456210       55.65692700921085
H           36.79071582938013       38.44317032054231       52.95226664914496
H           38.44922039888078       38.48361668786605       53.55133461375978
C           56.14542541300239       63.90473727142916       49.09795609463663
C           56.50241223772684       62.80772220234738       48.32642676149398
C           55.50684700914830       61.91527835445041       47.94724957692031
C           54.19584564484256       62.10622844491868       48.34211246377660
C           53.85422550159226       63.19596709164267       49.12406734089756
C           54.83540970447294       64.09573975026996       49.49898482504513
C           57.93967429524447       62.59443905493344       47.92651324599803
C           58.41544055496176       61.20691696336998       48.35020264676952
C           58.12125826275121       62.81707885226436       46.41682068441727
C           58.14409091646552       64.31638944316600       46.10000646743470
C           59.36273901483480       64.97483924089504       46.70359957899080
C           60.64513667728705       64.47344103128124       46.51133708870125
C           61.74137863326922       65.09385797967373       47.08324961619481
C           61.57776228669163       66.22914089791324       47.85776120732441
C           60.30920145055682       66.75062931215639       48.04281009956464
C           59.21722441611982       66.12701646810314       47.46734570248940
C           58.06849566056032       64.62067830208035       44.59066278331018
C           56.62199934694347       64.77990593704941       44.09963058780664
C           55.86878400702302       63.47355729995329       44.11504306473567
C           54.73319451692580       63.31089871587063       44.89933363264925
C           54.00823423910026       62.13201071966535       44.86102497514475
C           54.40992536581260       61.09511569489014       44.03759226025404
C           55.54333733995387       61.24095145560551       43.25438650453283
C           56.26463385244949       62.41961490957458       43.29728553234956
C           56.56323269620670       65.38883245851272       42.68722491997309
C           55.11690129979660       65.77139969628982       42.33692145954596
C           54.71837718671939       67.02936054882106       43.07408110238875
C           55.33390255940602       68.24537692988774       42.79723094632923
C           54.95176330760814       69.40160792713047       43.45252408483366
C           53.94700653009561       69.36185993864336       44.40383683366588
C           53.33641969268907       68.15727610229000       44.69886857497685
C           53.71910844911250       67.00344659256807       44.03839079677944
C           54.85562418121054       65.97585927067685       40.83445501690880
C           55.07001537105412       64.74602191960926       39.94575268769925
C           54.77024360183792       65.01586635600563       38.48522700539426
C           55.27242959497592       64.12205909621743       37.54253807573595
C           55.00681693487633       64.26976779924259       36.19582752770118
C           54.23699465041094       65.33155820688084       35.75447107180315
C           53.75524621656080       66.24376031469657       36.67434429183173
C           54.02135987993758       66.08966850942356       38.02440064634303
C           54.31719876673613       63.48674098647555       40.42215038214763
C           52.81020870428041       63.63935068413812       40.67292758392481
C           52.05829076986053       64.02927797457721       39.42727780241697
C           52.11118749182357       63.25575011148527       38.27228469456310
C           51.40930972011980       63.62029938094076       37.13961684927025
C           50.62404257826849       64.76114447073417       37.14388168278290
C           50.55226316143396       65.53590913813910       38.28763014913075
C           51.26886094800918       65.17209875939508       39.41412374138657
C           52.27558380579998       62.32741729094458       41.27922749485695
C           50.82197563720288       62.42951572196741       41.77697024084241
C           50.60616318590720       61.62270443219754       43.03384403306534
C           51.00823063094089       60.29360450205068       43.11056197566270
C           50.80930715606563       59.55745901886482       44.26399455313473
C           50.17757409719216       60.13055610221550       45.35489577937176
C           49.74945071277881       61.44368223439888       45.28305632307876
C           49.97444200998623       62.18413102364945       44.13492456090740
C           49.82571228434982       61.97356917342363       40.69842784355302
C           48.38557309980296       62.44677958374308       40.95062285430048
C           47.43621595139287       61.69541563017359       40.05295486793172
C           46.42316492801250       60.91526041689941       40.59413532779028
C           45.52456881514393       60.24981218134442       39.77944968849400