      -----------------------------------------------------------      
     |                   =====================                   |     
     |                           x T B                           |     
     |                   =====================                   |     
     |                         S. Grimme                         |     
     |          Mulliken Center for Theoretical Chemistry        |     
     |                    University of Bonn                     |     
      -----------------------------------------------------------      

   * xtb version 6.6.1 (8d0f1dd) compiled by 'stahn@M-Bot' on 2023-08-01

   xtb is free software: you can redistribute it and/or modify it under
   the terms of the GNU Lesser General Public License as published by
   the Free Software Foundation, either version 3 of the License, or
   (at your option) any later version.
   
   xtb is distributed in the hope that it will be useful,
   but WITHOUT ANY WARRANTY; without even the implied warranty of
   MERCHANTABILITY or FITNESS FOR A PARTICULAR PURPOSE.  See the
   GNU Lesser General Public License for more details.
   
   Cite this work as:
   * C. Bannwarth, E. Caldeweyher, S. Ehlert, A. Hansen, P. Pracht,
     J. Seibert, S. Spicher, S. Grimme, WIREs Comput. Mol. Sci., 2020, 11,
     e01493. DOI: 10.1002/wcms.1493
   
   for GFN2-xTB:
   * C. Bannwarth, S. Ehlert and S. Grimme., J. Chem. Theory Comput., 2019,
     15, 1652-1671. DOI: 10.1021/acs.jctc.8b01176
   for GFN1-xTB:
   * S. Grimme, C. Bannwarth, P. Shushkov, J. Chem. Theory Comput., 2017,
     13, 1989-2009. DOI: 10.1021/acs.jctc.7b00118
   for GFN0-xTB:
   * P. Pracht, E. Caldeweyher, S. Ehlert, S. Grimme, ChemRxiv, 2019, preprint.
     DOI: 10.26434/chemrxiv.8326202.v1
   for GFN-FF:
   * S. Spicher and S. Grimme, Angew. Chem. Int. Ed., 2020, 59, 15665-15673.
     DOI: 10.1002/anie.202004239
   
   for ALPB and GBSA implicit solvation:
   * S. Ehlert, M. Stahn, S. Spicher, S. Grimme, J. Chem. Theory Comput.,
     2021, 17, 4250-4261. DOI: 10.1021/acs.jctc.1c00471
   
   for DFT-D4:
   * E. Caldeweyher, C. Bannwarth and S. Grimme, J. Chem. Phys., 2017,
     147, 034112. DOI: 10.1063/1.4993215
   * E. Caldeweyher, S. Ehlert, A. Hansen, H. Neugebauer, S. Spicher,
     C. Bannwarth and S. Grimme, J. Chem. Phys., 2019, 150, 154122.
     DOI: 10.1063/1.5090222
   * E. Caldeweyher, J.-M. Mewes, S. Ehlert and S. Grimme, Phys. Chem. Chem. Phys.
     2020, 22, 8499-8512. DOI: 10.1039/D0CP00502A
   
   for sTDA-xTB:
   * S. Grimme and C. Bannwarth, J. Chem. Phys., 2016, 145, 054103.
     DOI: 10.1063/1.4959605
   
   in the mass-spec context:
   * V. Asgeirsson, C. Bauer and S. Grimme, Chem. Sci., 2017, 8, 4879.
     DOI: 10.1039/c7sc00601b
   * J. Koopman and S. Grimme, ACS Omega 2019, 4, 12, 15120-15133.
     DOI: 10.1021/acsomega.9b02011
   
   for metadynamics refer to:
   * S. Grimme, J. Chem. Theory Comput., 2019, 155, 2847-2862
     DOI: 10.1021/acs.jctc.9b00143
   
   for SPH calculations refer to:
   * S. Spicher and S. Grimme, J. Chem. Theory Comput., 2021, 17, 1701-1714
     DOI: 10.1021/acs.jctc.0c01306
   
   with help from (in alphabetical order)
   P. Atkinson, C. Bannwarth, F. Bohle, G. Brandenburg, E. Caldeweyher
   M. Checinski, S. Dohm, S. Ehlert, S. Ehrlich, I. Gerasimov, C. Hölzer
   A. Katbashev, J. Koopman, C. Lavigne, S. Lehtola, F. März, M. Müller,
   F. Musil, H. Neugebauer, J. Pisarek, C. Plett, P. Pracht, F. Pultar,
   J. Seibert, P. Shushkov, S. Spicher, M. Stahn, M. Steiner, T. Strunk,
   J. Stückrath, T. Rose, and J. Unsleber
   
 * started run on 2024/06/17 at 15:17:35.992     

           -------------------------------------------------
          |                Calculation Setup                |
           -------------------------------------------------

          program call               : /home/abt-grimme/AK-bin/xtb input.xyz --input input.inp --opt --gbsa water
          hostname                   : boar088.thch.uni-bonn.de
          coordinate file            : input.xyz
          omp threads                :                     8

   ID    Z sym.   atoms
    1    6 C      1-120, 363-482, 725-844, 1087-1206, 1449-1568, 1811-1930,
                  2173-2292, 2535-2654, 2897-3016
    2    1 H      121-362, 483-724, 845-1086, 1207-1448, 1569-1810,
                  1931-2172, 2293-2534, 2655-2896, 3017-3258

molecular fragmentation (1/2 indicates fragments):
111111111111111111111111111111111111111111111111111111111111111111111111
111111111111111111111111111111111111111111111111111111111111111111111111
111111111111111111111111111111111111111111111111111111111111111111111111
111111111111111111111111111111111111111111111111111111111111111111111111
111111111111111111111111111111111111111111111111111111111111111111111111
112222222222222222222222222222222222222222222222222222222222222222222222
222222222222222222222222222222222222222222222222222222222222222222222222
222222222222222222222222222222222222222222222222222222222222222222222222
222222222222222222222222222222222222222222222222222222222222222222222222
222222222222222222222222222222222222222222222222222222222222222222222222
222222222222222222222222222222222222222222222222222222222222222222222222
222222222222222222222222222222222222222222222222222222222222222222222222
222222222222222222222222222222222222222222222222222222222222222222222222
222222222222222222222222222222222222222222222222222222222222222222222222
222222222222222222222222222222222222222222222222222222222222222222222222
222222222222222222222222222222222222222222222222222222222222222222222222
222222222222222222222222222222222222222222222222222222222222222222222222
222222222222222222222222222222222222222222222222222222222222222222222222
222222222222222222222222222222222222222222222222222222222222222222222222
222222222222222222222222222222222222222222222222222222222222222222222222
222222222222222222222222222222222222222222222222222222222222222222222222
222222222222222222222222222222222222222222222222222222222222222222222222
222222222222222222222222222222222222222222222222222222222222222222222222
222222222222222222222222222222222222222222222222222222222222222222222222
222222222222222222222222222222222222222222222222222222222222222222222222
222222222222222222222222222222222222222222222222222222222222222222222222
222222222222222222222222222222222222222222222222222222222222222222222222
222222222222222222222222222222222222222222222222222222222222222222222222
222222222222222222222222222222222222222222222222222222222222222222222222
222222222222222222222222222222222222222222222222222222222222222222222222
222222222222222222222222222222222222222222222222222222222222222222222222
222222222222222222222222222222222222222222222222222222222222222222222222
222222222222222222222222222222222222222222222222222222222222222222222222
222222222222222222222222222222222222222222222222222222222222222222222222
222222222222222222222222222222222222222222222222222222222222222222222222
222222222222222222222222222222222222222222222222222222222222222222222222
222222222222222222222222222222222222222222222222222222222222222222222222
222222222222222222222222222222222222222222222222222222222222222222222222
222222222222222222222222222222222222222222222222222222222222222222222222
222222222222222222222222222222222222222222222222222222222222222222222222
222222222222222222222222222222222222222222222222222222222222222222222222
222222222222222222222222222222222222222222222222222222222222222222222222
222222222222222222222222222222222222222222222222222222222222222222222222
222222222222222222222222222222222222222222222222222222222222222222222222
222222222222222222222222222222222222222222222222222222222222222222222222
222222222222222222
# atoms in fragment 1/2:   362  2896
 fragment masses (1/2) :     1685.21    13481.68
CMA distance (Bohr)    :  20.984
constraining FC (au)   :  0.0500

           -------------------------------------------------
          |                 G F N 2 - x T B                 |
           -------------------------------------------------

        Reference                      10.1021/acs.jctc.8b01176
      * Hamiltonian:
        H0-scaling (s, p, d)           1.850000    2.230000    2.230000
        zeta-weighting                 0.500000
      * Dispersion:
        s8                             2.700000
        a1                             0.520000
        a2                             5.000000
        s9                             5.000000
      * Repulsion:
        kExp                           1.500000    1.000000
        rExp                           1.000000
      * Coulomb:
        alpha                          2.000000
        third order                    shell-resolved
        anisotropic                    true
        a3                             3.000000
        a5                             4.000000
        cn-shift                       1.200000
        cn-exp                         4.000000
        max-rad                        5.000000

      * Solvation model:               GBSA
        Solvent                        water
        Parameter file                 internal GFN2-xTB/GBSA
        Dielectric constant                8.0200E+01
        Reference state                gsolv [1 M gas/solution]
        Free energy shift                  1.8574E-03 Eh       1.1656E+00 kcal/mol
        Temperature                        2.9815E+02 K
        Density                            1.0000E+00 kg/L
        Solvent mass                       1.8000E+01 g/mol
        Interaction kernel             Still
        Born radius scaling (c1)           1.5524E+00
        Born radii integrator          GBOBC
        Born offset                        2.4628E-02 a0       4.6540E-02 AA
        H-bond correction              true
        Ion screening                  false
        Surface tension                    1.0000E-05 Eh       1.5569E+01 dyn/cm
        Grid points                               230 per atom
q/qsh data taken from xtbrestart
CAMM data taken from xtbrestart

          ...................................................
          :                      SETUP                      :
          :.................................................:
          :  # basis functions                6498          :
          :  # atomic orbitals                6498          :
          :  # shells                         4338          :
          :  # electrons                      6498          :
          :  max. iterations                   250          :
          :  Hamiltonian                  GFN2-xTB          :
          :  restarted?                       true          :
          :  GBSA solvation                   true          :
          :  PC potential                    false          :
          :  electronic temp.          300.0000000     K    :
          :  accuracy                    1.0000000          :
          :  -> integral cutoff          0.2500000E+02      :
          :  -> integral neglect         0.1000000E-07      :
          :  -> SCF convergence          0.1000000E-05 Eh   :
          :  -> wf. convergence          0.1000000E-03 e    :
          :  Broyden damping             0.4000000          :
          ...................................................

 iter      E             dE          RMSdq      gap      omega  full diag
   1  -3472.1958623 -0.347220E+04  0.739E-05   10.79       0.0  T
   2  -3472.1958623 -0.371256E-08  0.576E-05   10.79      30.4  T
   3  -3472.1958623 -0.530599E-08  0.304E-05   10.79      57.6  T

   *** convergence criteria satisfied after 3 iterations ***

         #    Occupation            Energy/Eh            Energy/eV
      -------------------------------------------------------------
         1        2.0000           -0.6167342             -16.7822
       ...           ...                  ...                  ...
      3243        2.0000           -0.3854751             -10.4893
      3244        2.0000           -0.3853896             -10.4870
      3245        2.0000           -0.3846256             -10.4662
      3246        2.0000           -0.3843645             -10.4591
      3247        2.0000           -0.3837860             -10.4433
      3248        2.0000           -0.3833838             -10.4324
      3249        2.0000           -0.3817249             -10.3873 (HOMO)
      3250                          0.0147155               0.4004 (LUMO)
      3251                          0.0180799               0.4920
      3252                          0.0186183               0.5066
      3253                          0.0189425               0.5155
      3254                          0.0205315               0.5587
       ...                                ...                  ...
      6498                          0.3847799              10.4704
      -------------------------------------------------------------
                  HL-Gap            0.3964404 Eh           10.7877 eV
             Fermi-level           -0.1835047 Eh           -4.9934 eV

 SCC (total)                   0 d,  0 h,  7 min, 10.021 sec
 SCC setup                      ...        0 min,  1.797 sec (  0.418%)
 Dispersion                     ...        0 min,  3.644 sec (  0.847%)
 classical contributions        ...        0 min,  0.143 sec (  0.033%)
 integral evaluation            ...        0 min,  5.849 sec (  1.360%)
 iterations                     ...        3 min, 11.074 sec ( 44.434%)
 molecular gradient             ...        3 min, 39.028 sec ( 50.934%)
 printout                       ...        0 min,  8.486 sec (  1.973%)

         :::::::::::::::::::::::::::::::::::::::::::::::::::::
         ::                     SUMMARY                     ::
         :::::::::::::::::::::::::::::::::::::::::::::::::::::
         :: total energy           -3426.779991037946 Eh    ::
         :: total w/o Gsasa/hb     -3426.682874974448 Eh    ::
         :: gradient norm              0.631479577901 Eh/a0 ::
         :: HOMO-LUMO gap             10.787691534802 eV    ::
         ::.................................................::
         :: SCC energy             -3472.195862298813 Eh    ::
         :: -> isotropic ES            0.282840567143 Eh    ::
         :: -> anisotropic ES          1.282528947008 Eh    ::
         :: -> anisotropic XC          2.136882896727 Eh    ::
         :: -> dispersion             -4.181908934830 Eh    ::
         :: -> Gsolv                  -0.032938068121 Eh    ::
         ::    -> Gelec                0.064177995377 Eh    ::
         ::    -> Gsasa               -0.094439497264 Eh    ::
         ::    -> Ghb                 -0.004534009361 Eh    ::
         ::    -> Gshift               0.001857443127 Eh    ::
         :: repulsion energy          44.744844926532 Eh    ::
         :: add. restraining           0.000000000000 Eh    ::
         :: total charge              -0.000000000009 e     ::
         :::::::::::::::::::::::::::::::::::::::::::::::::::::

      ----------------------------------------------------------- 
     |              Fast Inertial Relaxation Engine              |
      ----------------------------------------------------------- 

          ...................................................
          :                      SETUP                      :
          :.................................................:
          :   energy convergence        0.5000000E-05 Eh    :
          :   grad. convergence         0.1000000E-02 Eh/a0 :
          :   optimization log               true           :
          :   writing optlog all                1     steps :
          :   Hessian reset                    20     steps :
          :   time step scaling                 5     steps :
          :   maximium step len.        1.0000000     a0    :
          :   initial time step         0.2500000     fs    :
          :   maximum time step         1.2500000     fs    :
          :   power reset thr           0.0000000     au    :
          :   alpha parameter           0.1000000           :
          :   BFGS update                   false           :
          :   preconditioning               false           :
          ...................................................

........................................................................
.............................. CYCLE    1 ..............................
........................................................................

 iter      E             dE          RMSdq      gap      omega  full diag
   1  -3472.4292620 -0.347243E+04  0.745E-03   10.83       0.0  T
   2  -3472.4293057 -0.436421E-04  0.392E-03   10.83       1.0  T
   3  -3472.4293061 -0.417685E-06  0.181E-03   10.83       1.0  T
   4  -3472.4293063 -0.147551E-06  0.223E-04   10.83       7.9  T
   5  -3472.4293063 -0.358841E-07  0.141E-04   10.83      12.4  T
     SCC iter.                  ...        5 min,  8.547 sec
     gradient                   ...        3 min, 37.245 sec
 * total energy  : -3426.8252873 Eh     change    :  -0.4529627E-01 Eh
   gradient norm :     0.5983169 Eh/a0  converged?    E=F G=F D=F
   time step     :     0.2500000 fs     power     :   0.2337974E-05
   step length   :     0.0740081 a0     speed     :   0.7160677E-02

........................................................................
.............................. CYCLE    2 ..............................
........................................................................

 iter      E             dE          RMSdq      gap      omega  full diag
   1  -3472.7733527 -0.347277E+04  0.109E-02   10.88       0.0  T
   2  -3472.7734464 -0.936744E-04  0.573E-03   10.88       1.0  T
   3  -3472.7734473 -0.958957E-06  0.265E-03   10.88       1.0  T
   4  -3472.7734477 -0.358026E-06  0.343E-04   10.88       5.1  T
   5  -3472.7734478 -0.845012E-07  0.224E-04   10.88       7.8  T
     SCC iter.                  ...        5 min, 34.106 sec
     gradient                   ...        3 min, 39.398 sec
 * total energy  : -3426.8876638 Eh     change    :  -0.6237648E-01 Eh
   gradient norm :     0.5499604 Eh/a0  converged?    E=F G=F D=F
   time step     :     0.2500000 fs     power     :   0.3167005E-05
   step length   :     0.1089326 a0     speed     :   0.1053981E-01

........................................................................
.............................. CYCLE    3 ..............................
........................................................................

 iter      E             dE          RMSdq      gap      omega  full diag
   1  -3473.2190450 -0.347322E+04  0.140E-02   10.91       0.0  T
   2  -3473.2191976 -0.152614E-03  0.735E-03   10.90       1.0  T
   3  -3473.2191993 -0.164968E-05  0.338E-03   10.90       1.0  T
   4  -3473.2191999 -0.609962E-06  0.450E-04   10.90       3.9  T
   5  -3473.2192000 -0.141020E-06  0.295E-04   10.90       5.9  T
     SCC iter.                  ...        5 min,  5.570 sec
     gradient                   ...        3 min, 38.285 sec
 * total energy  : -3426.9606467 Eh     change    :  -0.7298291E-01 Eh
   gradient norm :     0.4895151 Eh/a0  converged?    E=F G=F D=F
   time step     :     0.2500000 fs     power     :   0.3634655E-05
   step length   :     0.1410388 a0     speed     :   0.1364626E-01

........................................................................
.............................. CYCLE    4 ..............................
........................................................................

 iter      E             dE          RMSdq      gap      omega  full diag
   1  -3473.7548078 -0.347375E+04  0.166E-02   10.91       0.0  T
   2  -3473.7550183 -0.210532E-03  0.871E-03   10.91       1.0  T
   3  -3473.7550208 -0.244268E-05  0.396E-03   10.91       1.0  T
   4  -3473.7550217 -0.874024E-06  0.544E-04   10.91       3.2  T
   5  -3473.7550219 -0.195736E-06  0.356E-04   10.91       4.9  T
     SCC iter.                  ...        5 min,  1.868 sec
     gradient                   ...        3 min, 37.937 sec
 * total energy  : -3427.0369482 Eh     change    :  -0.7630153E-01 Eh
   gradient norm :     0.4213771 Eh/a0  converged?    E=F G=F D=F
   time step     :     0.2500000 fs     power     :   0.3710847E-05
   step length   :     0.1694627 a0     speed     :   0.1639643E-01

........................................................................
.............................. CYCLE    5 ..............................
........................................................................

 iter      E             dE          RMSdq      gap      omega  full diag
   1  -3474.3667667 -0.347437E+04  0.186E-02   10.91       0.0  T
   2  -3474.3670234 -0.256746E-03  0.976E-03   10.91       1.0  T
   3  -3474.3670267 -0.328490E-05  0.437E-03   10.91       1.0  T
   4  -3474.3670278 -0.111578E-05  0.623E-04   10.91       2.8  T
   5  -3474.3670281 -0.238530E-06  0.405E-04   10.91       4.3  T
   6  -3474.3670282 -0.129729E-06  0.170E-04   10.91      10.3  T
     SCC iter.                  ...        6 min,  5.229 sec
     gradient                   ...        3 min, 38.175 sec
 * total energy  : -3427.1094998 Eh     change    :  -0.7255161E-01 Eh
   gradient norm :     0.3522462 Eh/a0  converged?    E=F G=F D=F
   time step     :     0.2500000 fs     power     :   0.3424272E-05
   step length   :     0.1934691 a0     speed     :   0.1871917E-01

........................................................................
.............................. CYCLE    6 ..............................
........................................................................

 iter      E             dE          RMSdq      gap      omega  full diag
   1  -3475.1120621 -0.347511E+04  0.221E-02   10.91       0.0  T
   2  -3475.1124062 -0.344068E-03  0.116E-02   10.91       1.0  T
   3  -3475.1124112 -0.499529E-05  0.505E-03   10.91       1.0  T
   4  -3475.1124127 -0.152551E-05  0.748E-04   10.91       2.3  T
   5  -3475.1124130 -0.306005E-06  0.475E-04   10.91       3.7  T
   6  -3475.1124131 -0.148890E-06  0.183E-04   10.91       9.6  T
     SCC iter.                  ...        6 min,  6.604 sec
     gradient                   ...        3 min, 39.634 sec
 * total energy  : -3427.1784786 Eh     change    :  -0.6897872E-01 Eh
   gradient norm :     0.2856014 Eh/a0  converged?    E=F G=F D=F
   time step     :     0.2750000 fs     power     :   0.2782098E-05
   step length   :     0.2357962 a0     speed     :   0.2074050E-01

........................................................................
.............................. CYCLE    7 ..............................
........................................................................

 iter      E             dE          RMSdq      gap      omega  full diag
   1  -3475.9852162 -0.347599E+04  0.252E-02   10.91       0.0  T
   2  -3475.9856209 -0.404688E-03  0.133E-02   10.91       1.0  T
   3  -3475.9856282 -0.733297E-05  0.549E-03   10.91       1.0  T
   4  -3475.9856302 -0.199209E-05  0.882E-04   10.91       2.0  T
   5  -3475.9856305 -0.349999E-06  0.550E-04   10.91       3.2  T
   6  -3475.9856307 -0.169151E-06  0.192E-04   10.91       9.1  T
     SCC iter.                  ...        6 min, 13.341 sec
     gradient                   ...        3 min, 39.726 sec
 * total energy  : -3427.2357452 Eh     change    :  -0.5726661E-01 Eh
   gradient norm :     0.2416643 Eh/a0  converged?    E=F G=F D=F
   time step     :     0.3025000 fs     power     :   0.1880792E-05
   step length   :     0.2778731 a0     speed     :   0.2221960E-01

........................................................................
.............................. CYCLE    8 ..............................
........................................................................

 iter      E             dE          RMSdq      gap      omega  full diag
   1  -3476.9498218 -0.347695E+04  0.276E-02   10.91       0.0  T
   2  -3476.9502101 -0.388274E-03  0.147E-02   10.91       1.0  T
   3  -3476.9502201 -0.998212E-05  0.541E-03   10.91       1.0  T
   4  -3476.9502223 -0.225267E-05  0.990E-04   10.91       1.8  T
   5  -3476.9502227 -0.319923E-06  0.598E-04   10.90       2.9  T
   6  -3476.9502228 -0.158986E-06  0.178E-04   10.90       9.8  T
     SCC iter.                  ...        6 min, 12.920 sec
     gradient                   ...        3 min, 39.189 sec
 * total energy  : -3427.2758341 Eh     change    :  -0.4008895E-01 Eh
   gradient norm :     0.2362605 Eh/a0  converged?    E=F G=F D=F
   time step     :     0.3327500 fs     power     :   0.9626407E-06
   step length   :     0.3137220 a0     speed     :   0.2280563E-01

........................................................................
.............................. CYCLE    9 ..............................
........................................................................

 iter      E             dE          RMSdq      gap      omega  full diag
   1  -3477.9294058 -0.347793E+04  0.294E-02   10.91       0.0  T
   2  -3477.9296830 -0.277264E-03  0.161E-02   10.91       1.0  T
   3  -3477.9296952 -0.122131E-04  0.454E-03   10.91       1.0  T
   4  -3477.9296973 -0.203220E-05  0.104E-03   10.90       1.7  T
   5  -3477.9296975 -0.205908E-06  0.595E-04   10.90       2.9  T
   6  -3477.9296976 -0.116127E-06  0.138E-04   10.90      12.7  T
     SCC iter.                  ...        6 min, 13.513 sec
     gradient                   ...        3 min, 38.568 sec
 * total energy  : -3427.2993777 Eh     change    :  -0.2354356E-01 Eh
   gradient norm :     0.2507566 Eh/a0  converged?    E=F G=F D=F
   time step     :     0.3660250 fs     power     :   0.2912555E-06
   step length   :     0.3375055 a0     speed     :   0.2230412E-01

........................................................................
.............................. CYCLE   10 ..............................
........................................................................

 iter      E             dE          RMSdq      gap      omega  full diag
   1  -3478.8299970 -0.347883E+04  0.315E-02   10.90       0.0  T
   2  -3478.8301290 -0.131992E-03  0.178E-02   10.90       1.0  T
   3  -3478.8301423 -0.132837E-04  0.291E-03   10.90       1.0  T
   4  -3478.8301437 -0.147784E-05  0.105E-03   10.90       1.7  T
   5  -3478.8301438 -0.709369E-07  0.522E-04   10.90       3.4  T
   6  -3478.8301439 -0.691653E-07  0.789E-05   10.90      22.2  T
     SCC iter.                  ...        6 min,  6.807 sec
     gradient                   ...        3 min, 40.215 sec
 * total energy  : -3427.3111765 Eh     change    :  -0.1179886E-01 Eh
   gradient norm :     0.2511072 Eh/a0  converged?    E=F G=F D=F
   time step     :     0.4026275 fs     power     :  -0.9825604E-07
   step length   :     0.3503801 a0     speed     :   0.2104995E-01

........................................................................
.............................. CYCLE   11 ..............................
........................................................................
 * reset velocities

 iter      E             dE          RMSdq      gap      omega  full diag
   1  -3478.8130183 -0.347881E+04  0.117E-03   10.90       0.0  T
   2  -3478.8130191 -0.780127E-06  0.668E-04   10.90       2.6  T
   3  -3478.8130191 -0.371165E-08  0.264E-04   10.90       6.6  T
     SCC iter.                  ...        3 min,  2.820 sec
     gradient                   ...        3 min, 39.649 sec
 * total energy  : -3427.3135387 Eh     change    :  -0.2362132E-02 Eh
   gradient norm :     0.2440397 Eh/a0  converged?    E=F G=F D=F
   time step     :     0.2013138 fs     power     :   0.1534797E-06
   step length   :     0.0095415 a0     speed     :   0.1146456E-02

........................................................................
.............................. CYCLE   12 ..............................
........................................................................

 iter      E             dE          RMSdq      gap      omega  full diag
   1  -3478.7792064 -0.347878E+04  0.230E-03   10.90       0.0  T
   2  -3478.7792094 -0.301912E-05  0.132E-03   10.90       1.3  T
   3  -3478.7792094 -0.174150E-07  0.520E-04   10.90       3.4  T
   4  -3478.7792094 -0.849059E-08  0.441E-05   10.90      39.7  T
     SCC iter.                  ...        4 min, 11.462 sec
     gradient                   ...        3 min, 38.950 sec
 * total energy  : -3427.3179996 Eh     change    :  -0.4460963E-02 Eh
   gradient norm :     0.2301891 Eh/a0  converged?    E=F G=F D=F
   time step     :     0.2013138 fs     power     :   0.2854358E-06
   step length   :     0.0188143 a0     speed     :   0.2260636E-02

........................................................................
.............................. CYCLE   13 ..............................
........................................................................

 iter      E             dE          RMSdq      gap      omega  full diag
   1  -3478.7295820 -0.347873E+04  0.336E-03   10.90       0.0  T
   2  -3478.7295885 -0.653631E-05  0.192E-03   10.90       1.0  T
   3  -3478.7295886 -0.436098E-07  0.767E-04   10.90       2.3  T
   4  -3478.7295886 -0.226555E-07  0.738E-05   10.90      23.7  T
     SCC iter.                  ...        4 min, 11.591 sec
     gradient                   ...        3 min, 40.372 sec
 * total energy  : -3427.3240645 Eh     change    :  -0.6064886E-02 Eh
   gradient norm :     0.2100067 Eh/a0  converged?    E=F G=F D=F
   time step     :     0.2013138 fs     power     :   0.3813378E-06
   step length   :     0.0275603 a0     speed     :   0.3311503E-02

........................................................................
.............................. CYCLE   14 ..............................
........................................................................

 iter      E             dE          RMSdq      gap      omega  full diag
   1  -3478.6654539 -0.347867E+04  0.432E-03   10.90       0.0  T
   2  -3478.6654648 -0.108760E-04  0.248E-03   10.90       1.0  T
   3  -3478.6654649 -0.760024E-07  0.991E-04   10.90       1.8  T
   4  -3478.6654649 -0.401551E-07  0.985E-05   10.90      17.8  T
     SCC iter.                  ...        4 min,  9.301 sec
     gradient                   ...        3 min, 39.395 sec
 * total energy  : -3427.3310646 Eh     change    :  -0.7000050E-02 Eh
   gradient norm :     0.1842202 Eh/a0  converged?    E=F G=F D=F
   time step     :     0.2013138 fs     power     :   0.4309080E-06
   step length   :     0.0355368 a0     speed     :   0.4269920E-02

........................................................................
.............................. CYCLE   15 ..............................
........................................................................

 iter      E             dE          RMSdq      gap      omega  full diag
   1  -3478.5885652 -0.347859E+04  0.515E-03   10.90       0.0  T
   2  -3478.5885808 -0.155658E-04  0.295E-03   10.90       1.0  T
   3  -3478.5885809 -0.110642E-06  0.119E-03   10.90       1.5  T
   4  -3478.5885810 -0.588498E-07  0.120E-04   10.90      14.7  T
   5  -3478.5885810 -0.164541E-07  0.813E-05   10.90      21.6  T
     SCC iter.                  ...        5 min,  5.363 sec
     gradient                   ...        3 min, 38.981 sec
 * total energy  : -3427.3382364 Eh     change    :  -0.7171872E-02 Eh
   gradient norm :     0.1538202 Eh/a0  converged?    E=F G=F D=F
   time step     :     0.2013138 fs     power     :   0.4293301E-06
   step length   :     0.0425255 a0     speed     :   0.5109653E-02

........................................................................
.............................. CYCLE   16 ..............................
........................................................................

 iter      E             dE          RMSdq      gap      omega  full diag
   1  -3478.5011121 -0.347850E+04  0.581E-03   10.90       0.0  T
   2  -3478.5011321 -0.200385E-04  0.333E-03   10.90       1.0  T
   3  -3478.5011323 -0.131381E-06  0.134E-03   10.90       1.3  T
   4  -3478.5011323 -0.674986E-07  0.128E-04   10.91      13.7  T
   5  -3478.5011323 -0.192572E-07  0.844E-05   10.91      20.8  T
     SCC iter.                  ...        5 min, 12.378 sec
     gradient                   ...        3 min, 39.536 sec
 * total energy  : -3427.3448136 Eh     change    :  -0.6577182E-02 Eh
   gradient norm :     0.1202461 Eh/a0  converged?    E=F G=F D=F
   time step     :     0.2013138 fs     power     :   0.3780581E-06
   step length   :     0.0483363 a0     speed     :   0.5807846E-02

........................................................................
.............................. CYCLE   17 ..............................
........................................................................

 iter      E             dE          RMSdq      gap      omega  full diag
   1  -3478.3953646 -0.347840E+04  0.697E-03   10.90       0.0  T
   2  -3478.3953938 -0.291735E-04  0.400E-03   10.90       1.0  T
   3  -3478.3953940 -0.186255E-06  0.162E-03   10.90       1.1  T
   4  -3478.3953941 -0.945915E-07  0.151E-04   10.91      11.6  T
   5  -3478.3953941 -0.274731E-07  0.984E-05   10.91      17.8  T
     SCC iter.                  ...        5 min,  2.552 sec
     gradient                   ...        3 min, 37.997 sec
 * total energy  : -3427.3505848 Eh     change    :  -0.5771185E-02 Eh
   gradient norm :     0.0822552 Eh/a0  converged?    E=F G=F D=F
   time step     :     0.2214451 fs     power     :   0.2729914E-06
   step length   :     0.0585817 a0     speed     :   0.6398988E-02

........................................................................
.............................. CYCLE   18 ..............................
........................................................................

 iter      E             dE          RMSdq      gap      omega  full diag
   1  -3478.2730255 -0.347827E+04  0.799E-03   10.90       0.0  T
   2  -3478.2730645 -0.389802E-04  0.459E-03   10.90       1.0  T
   3  -3478.2730647 -0.246112E-06  0.188E-03   10.91       1.0  T
   4  -3478.2730649 -0.123359E-06  0.174E-04   10.91      10.1  T
   5  -3478.2730649 -0.364321E-07  0.111E-04   10.91      15.8  T
     SCC iter.                  ...        5 min,  1.087 sec
     gradient                   ...        3 min, 38.712 sec
 * total energy  : -3427.3543964 Eh     change    :  -0.3811544E-02 Eh
   gradient norm :     0.0491837 Eh/a0  converged?    E=F G=F D=F
   time step     :     0.2435896 fs     power     :   0.1199302E-06
   step length   :     0.0685113 a0     speed     :   0.6803281E-02

........................................................................
.............................. CYCLE   19 ..............................
........................................................................

 iter      E             dE          RMSdq      gap      omega  full diag
   1  -3478.1438186 -0.347814E+04  0.838E-03   10.90       0.0  T
   2  -3478.1438624 -0.438294E-04  0.484E-03   10.90       1.0  T
   3  -3478.1438627 -0.278392E-06  0.200E-03   10.90       1.0  T
   4  -3478.1438628 -0.134802E-06  0.183E-04   10.91       9.6  T
   5  -3478.1438628 -0.410064E-07  0.113E-04   10.91      15.5  T
     SCC iter.                  ...        5 min,  2.865 sec
     gradient                   ...        3 min, 44.023 sec
 * total energy  : -3427.3553115 Eh     change    :  -0.9151889E-03 Eh
   gradient norm :     0.0544312 Eh/a0  converged?    E=F G=F D=F
   time step     :     0.2679486 fs     power     :  -0.4385065E-07
   step length   :     0.0754013 a0     speed     :   0.6806788E-02

........................................................................
.............................. CYCLE   20 ..............................
........................................................................
 * reset velocities

 iter      E             dE          RMSdq      gap      omega  full diag
   1  -3478.1450351 -0.347815E+04  0.119E-04   10.91       0.0  T
   2  -3478.1450351 -0.531418E-08  0.760E-05   10.91      23.1  T
   3  -3478.1450351 -0.294631E-08  0.327E-05   10.91      53.5  T
     SCC iter.                  ...        3 min,  2.050 sec
     gradient                   ...        3 min, 37.729 sec
 * total energy  : -3427.3553612 Eh     change    :  -0.4969938E-04 Eh
   gradient norm :     0.0540794 Eh/a0  converged?    E=F G=F D=T
   time step     :     0.1339743 fs     power     :   0.4906328E-08
   step length   :     0.0009160 a0     speed     :   0.1653844E-03
 * RMSD in coord.:     0.0347849 a0     energy gain  -0.5753702E+00 Eh

........................................................................
.............................. CYCLE   21 ..............................
........................................................................

 iter      E             dE          RMSdq      gap      omega  full diag
   1  -3478.1512387 -0.347815E+04  0.546E-04   10.91       0.0  T
   2  -3478.1512388 -0.822042E-07  0.310E-04   10.91       5.7  T
   3  -3478.1512388 -0.696218E-09  0.831E-05   10.91      21.1  T
     SCC iter.                  ...        3 min,  8.010 sec
     gradient                   ...        3 min, 40.793 sec
 * total energy  : -3427.3556208 Eh     change    :  -0.2595641E-03 Eh
   gradient norm :     0.0523740 Eh/a0  converged?    E=F G=F D=F
   time step     :     0.2500000 fs     power     :   0.1355260E-07
   step length   :     0.0048783 a0     speed     :   0.4719993E-03

........................................................................
.............................. CYCLE   22 ..............................
........................................................................

 iter      E             dE          RMSdq      gap      omega  full diag
   1  -3478.1611651 -0.347816E+04  0.889E-04   10.91       0.0  T
   2  -3478.1611653 -0.210208E-06  0.506E-04   10.91       3.5  T
   3  -3478.1611653 -0.371210E-08  0.134E-04   10.91      13.1  T
     SCC iter.                  ...        3 min,  6.256 sec
     gradient                   ...        3 min, 39.967 sec
 * total energy  : -3427.3560261 Eh     change    :  -0.4053185E-03 Eh
   gradient norm :     0.0497850 Eh/a0  converged?    E=F G=F D=F
   time step     :     0.2500000 fs     power     :   0.2093459E-07
   step length   :     0.0079461 a0     speed     :   0.7688273E-03

........................................................................
.............................. CYCLE   23 ..............................
........................................................................

 iter      E             dE          RMSdq      gap      omega  full diag
   1  -3478.1743284 -0.347817E+04  0.119E-03   10.91       0.0  T
   2  -3478.1743288 -0.367458E-06  0.681E-04   10.91       2.6  T
   3  -3478.1743288 -0.858108E-08  0.177E-04   10.91       9.9  T
     SCC iter.                  ...        3 min,  4.947 sec
     gradient                   ...        3 min, 38.649 sec
 * total energy  : -3427.3565469 Eh     change    :  -0.5208261E-03 Eh
   gradient norm :     0.0466330 Eh/a0  converged?    E=F G=F D=F
   time step     :     0.2500000 fs     power     :   0.2662130E-07
   step length   :     0.0108561 a0     speed     :   0.1050388E-02

........................................................................
.............................. CYCLE   24 ..............................
........................................................................

 iter      E             dE          RMSdq      gap      omega  full diag
   1  -3478.1900468 -0.347819E+04  0.146E-03   10.91       0.0  T
   2  -3478.1900473 -0.517330E-06  0.830E-04   10.91       2.1  T
   3  -3478.1900473 -0.140672E-07  0.210E-04   10.91       8.3  T
     SCC iter.                  ...        3 min,  5.750 sec
     gradient                   ...        3 min, 37.315 sec
 * total energy  : -3427.3571492 Eh     change    :  -0.6022741E-03 Eh
   gradient norm :     0.0433628 Eh/a0  converged?    E=F G=F D=F
   time step     :     0.2500000 fs     power     :   0.3050423E-07
   step length   :     0.0135632 a0     speed     :   0.1312316E-02

........................................................................
.............................. CYCLE   25 ..............................
........................................................................

 iter      E             dE          RMSdq      gap      omega  full diag
   1  -3478.2074457 -0.347821E+04  0.166E-03   10.91       0.0  T
   2  -3478.2074464 -0.620696E-06  0.947E-04   10.91       1.9  T
   3  -3478.2074464 -0.196692E-07  0.229E-04   10.91       7.7  T
     SCC iter.                  ...        3 min, 11.284 sec
     gradient                   ...        3 min, 38.686 sec
 * total energy  : -3427.3578020 Eh     change    :  -0.6527766E-03 Eh
   gradient norm :     0.0404880 Eh/a0  converged?    E=F G=F D=F
   time step     :     0.2500000 fs     power     :   0.3283684E-07
   step length   :     0.0160366 a0     speed     :   0.1551630E-02

........................................................................
.............................. CYCLE   26 ..............................
........................................................................

 iter      E             dE          RMSdq      gap      omega  full diag
   1  -3478.2274365 -0.347823E+04  0.200E-03   10.91       0.0  T
   2  -3478.2274372 -0.791345E-06  0.114E-03   10.91       1.5  T
   3  -3478.2274373 -0.290779E-07  0.256E-04   10.91       6.9  T
   4  -3478.2274373 -0.115183E-07  0.619E-05   10.91      28.3  T
     SCC iter.                  ...        4 min,  6.203 sec
     gradient                   ...        3 min, 37.465 sec
 * total energy  : -3427.3585573 Eh     change    :  -0.7553310E-03 Eh
   gradient norm :     0.0383004 Eh/a0  converged?    E=F G=F D=F
   time step     :     0.2750000 fs     power     :   0.3425074E-07
   step length   :     0.0203411 a0     speed     :   0.1789190E-02

........................................................................
.............................. CYCLE   27 ..............................
........................................................................

 iter      E             dE          RMSdq      gap      omega  full diag
   1  -3478.2488051 -0.347825E+04  0.230E-03   10.91       0.0  T
   2  -3478.2488059 -0.865280E-06  0.131E-03   10.91       1.3  T
   3  -3478.2488060 -0.360587E-07  0.264E-04   10.91       6.6  T
   4  -3478.2488060 -0.149739E-07  0.687E-05   10.91      25.5  T
     SCC iter.                  ...        4 min,  7.197 sec
     gradient                   ...        3 min, 38.360 sec
 * total energy  : -3427.3594183 Eh     change    :  -0.8610161E-03 Eh
   gradient norm :     0.0373383 Eh/a0  converged?    E=F G=F D=F
   time step     :     0.3025000 fs     power     :   0.3541668E-07
   step length   :     0.0252741 a0     speed     :   0.2020994E-02

........................................................................
.............................. CYCLE   28 ..............................
........................................................................

 iter      E             dE          RMSdq      gap      omega  full diag
   1  -3478.2695035 -0.347827E+04  0.253E-03   10.91       0.0  T
   2  -3478.2695042 -0.741362E-06  0.145E-03   10.91       1.2  T
   3  -3478.2695043 -0.446512E-07  0.238E-04   10.91       7.4  T
   4  -3478.2695043 -0.177906E-07  0.752E-05   10.91      23.3  T
     SCC iter.                  ...        4 min,  4.724 sec
     gradient                   ...        3 min, 39.620 sec
 * total energy  : -3427.3604115 Eh     change    :  -0.9931413E-03 Eh
   gradient norm :     0.0375424 Eh/a0  converged?    E=F G=F D=F
   time step     :     0.3327500 fs     power     :   0.3741118E-07
   step length   :     0.0309136 a0     speed     :   0.2247227E-02

........................................................................
.............................. CYCLE   29 ..............................
........................................................................

 iter      E             dE          RMSdq      gap      omega  full diag
   1  -3478.2868628 -0.347829E+04  0.270E-03   10.91       0.0  T
   2  -3478.2868633 -0.464910E-06  0.156E-03   10.91       1.1  T
   3  -3478.2868634 -0.505852E-07  0.187E-04   10.91       9.4  T
   4  -3478.2868634 -0.206969E-07  0.787E-05   10.91      22.3  T
     SCC iter.                  ...        4 min,  5.621 sec
     gradient                   ...        3 min, 37.747 sec
 * total energy  : -3427.3615941 Eh     change    :  -0.1182598E-02 Eh
   gradient norm :     0.0379396 Eh/a0  converged?    E=F G=F D=F
   time step     :     0.3660250 fs     power     :   0.4103707E-07
   step length   :     0.0374827 a0     speed     :   0.2477056E-02

........................................................................
.............................. CYCLE   30 ..............................
........................................................................

 iter      E             dE          RMSdq      gap      omega  full diag
   1  -3478.2981538 -0.347830E+04  0.287E-03   10.91       0.0  T
   2  -3478.2981540 -0.268315E-06  0.168E-03   10.91       1.0  T
   3  -3478.2981541 -0.514087E-07  0.151E-04   10.91      11.6  T
   4  -3478.2981541 -0.247892E-07  0.785E-05   10.91      22.3  T
     SCC iter.                  ...        4 min,  1.771 sec
     gradient                   ...        3 min, 40.083 sec
 * total energy  : -3427.3630382 Eh     change    :  -0.1444162E-02 Eh
   gradient norm :     0.0370951 Eh/a0  converged?    E=F G=F D=F
   time step     :     0.4026275 fs     power     :   0.4591394E-07
   step length   :     0.0453965 a0     speed     :   0.2727308E-02

........................................................................
.............................. CYCLE   31 ..............................
........................................................................

 iter      E             dE          RMSdq      gap      omega  full diag
   1  -3478.3014706 -0.347830E+04  0.315E-03   10.91       0.0  T
   2  -3478.3014711 -0.519090E-06  0.186E-03   10.91       1.0  T
   3  -3478.3014712 -0.491596E-07  0.169E-04   10.91      10.4  T
   4  -3478.3014712 -0.296859E-07  0.730E-05   10.91      24.0  T
     SCC iter.                  ...        4 min,  6.893 sec
     gradient                   ...        3 min, 39.409 sec
 * total energy  : -3427.3647815 Eh     change    :  -0.1743219E-02 Eh
   gradient norm :     0.0340239 Eh/a0  converged?    E=F G=F D=F
   time step     :     0.4428903 fs     power     :   0.5004109E-07
   step length   :     0.0551442 a0     speed     :   0.3011751E-02

........................................................................
.............................. CYCLE   32 ..............................
........................................................................

 iter      E             dE          RMSdq      gap      omega  full diag
   1  -3478.2972359 -0.347830E+04  0.361E-03   10.91       0.0  T
   2  -3478.2972373 -0.140078E-05  0.216E-03   10.91       1.0  T
   3  -3478.2972373 -0.558321E-07  0.260E-04   10.91       6.7  T
   4  -3478.2972373 -0.334398E-07  0.741E-05   10.91      23.6  T
     SCC iter.                  ...        4 min,  3.122 sec
     gradient                   ...        3 min, 39.232 sec
 * total energy  : -3427.3667705 Eh     change    :  -0.1989076E-02 Eh
   gradient norm :     0.0294159 Eh/a0  converged?    E=F G=F D=F
   time step     :     0.4871793 fs     power     :   0.5070815E-07
   step length   :     0.0670451 a0     speed     :   0.3328844E-02

........................................................................
.............................. CYCLE   33 ..............................
........................................................................

 iter      E             dE          RMSdq      gap      omega  full diag
   1  -3478.2905019 -0.347829E+04  0.416E-03   10.91       0.0  T
   2  -3478.2905042 -0.227590E-05  0.250E-03   10.91       1.0  T
   3  -3478.2905043 -0.680579E-07  0.333E-04   10.91       5.3  T
   4  -3478.2905043 -0.364239E-07  0.776E-05   10.91      22.6  T
     SCC iter.                  ...        4 min,  2.112 sec
     gradient                   ...        3 min, 40.004 sec
 * total energy  : -3427.3688719 Eh     change    :  -0.2101371E-02 Eh
   gradient norm :     0.0265143 Eh/a0  converged?    E=F G=F D=F
   time step     :     0.5358972 fs     power     :   0.4729922E-07
   step length   :     0.0809887 a0     speed     :   0.3655593E-02

........................................................................
.............................. CYCLE   34 ..............................
........................................................................

 iter      E             dE          RMSdq      gap      omega  full diag
   1  -3478.2929292 -0.347829E+04  0.467E-03   10.91       0.0  T
   2  -3478.2929309 -0.176747E-05  0.281E-03   10.91       1.0  T
   3  -3478.2929310 -0.859463E-07  0.249E-04   10.91       7.0  T
   4  -3478.2929311 -0.357782E-07  0.815E-05   10.91      21.5  T
     SCC iter.                  ...        4 min,  6.742 sec
     gradient                   ...        3 min, 39.803 sec
 * total energy  : -3427.3710199 Eh     change    :  -0.2147991E-02 Eh
   gradient norm :     0.0271932 Eh/a0  converged?    E=F G=F D=F
   time step     :     0.5894869 fs     power     :   0.4369749E-07
   step length   :     0.0961730 a0     speed     :   0.3946336E-02

........................................................................
.............................. CYCLE   35 ..............................
........................................................................

 iter      E             dE          RMSdq      gap      omega  full diag
   1  -3478.3180733 -0.347832E+04  0.533E-03   10.91       0.0  T
   2  -3478.3180737 -0.453738E-06  0.315E-03   10.91       1.0  T
   3  -3478.3180738 -0.122475E-06  0.161E-04   10.91      10.9  T
   4  -3478.3180739 -0.237887E-07  0.900E-05   10.91      19.5  T
     SCC iter.                  ...        4 min,  1.861 sec
     gradient                   ...        3 min, 38.223 sec
 * total energy  : -3427.3733247 Eh     change    :  -0.2304777E-02 Eh
   gradient norm :     0.0267662 Eh/a0  converged?    E=F G=F D=F
   time step     :     0.6484356 fs     power     :   0.4327075E-07
   step length   :     0.1120923 a0     speed     :   0.4181421E-02

........................................................................
.............................. CYCLE   36 ..............................
........................................................................

 iter      E             dE          RMSdq      gap      omega  full diag
   1  -3478.3719696 -0.347837E+04  0.642E-03   10.91       0.0  T
   2  -3478.3719708 -0.123523E-05  0.372E-03   10.91       1.0  T
   3  -3478.3719710 -0.168313E-06  0.237E-04   10.91       7.4  T
   4  -3478.3719710 -0.202117E-07  0.103E-04   10.91      17.0  T
     SCC iter.                  ...        4 min,  5.543 sec
     gradient                   ...        3 min, 38.831 sec
 * total energy  : -3427.3758271 Eh     change    :  -0.2502423E-02 Eh
   gradient norm :     0.0226044 Eh/a0  converged?    E=F G=F D=F
   time step     :     0.7132792 fs     power     :   0.4181911E-07
   step length   :     0.1301188 a0     speed     :   0.4412610E-02

........................................................................
.............................. CYCLE   37 ..............................
........................................................................

 iter      E             dE          RMSdq      gap      omega  full diag
   1  -3478.4430441 -0.347844E+04  0.731E-03   10.91       0.0  T
   2  -3478.4430472 -0.305600E-05  0.419E-03   10.91       1.0  T
   3  -3478.4430474 -0.188575E-06  0.395E-04   10.91       4.4  T
   4  -3478.4430474 -0.307559E-07  0.110E-04   10.91      15.9  T
     SCC iter.                  ...        4 min,  1.995 sec
     gradient                   ...        3 min, 38.535 sec
 * total energy  : -3427.3783116 Eh     change    :  -0.2484466E-02 Eh
   gradient norm :     0.0221513 Eh/a0  converged?    E=F G=F D=F
   time step     :     0.7846071 fs     power     :   0.3604022E-07
   step length   :     0.1510050 a0     speed     :   0.4655370E-02

........................................................................
.............................. CYCLE   38 ..............................
........................................................................

 iter      E             dE          RMSdq      gap      omega  full diag
   1  -3478.4961811 -0.347850E+04  0.697E-03   10.91       0.0  T
   2  -3478.4961820 -0.907410E-06  0.405E-03   10.91       1.0  T
   3  -3478.4961822 -0.170799E-06  0.203E-04   10.91       8.6  T
   4  -3478.4961822 -0.177042E-07  0.941E-05   10.91      18.6  T
     SCC iter.                  ...        4 min, 10.007 sec
     gradient                   ...        3 min, 39.029 sec
 * total energy  : -3427.3808384 Eh     change    :  -0.2526779E-02 Eh
   gradient norm :     0.0243035 Eh/a0  converged?    E=F G=F D=F
   time step     :     0.8630678 fs     power     :   0.3455102E-07
   step length   :     0.1721979 a0     speed     :   0.4826119E-02

........................................................................
.............................. CYCLE   39 ..............................
........................................................................

 iter      E             dE          RMSdq      gap      omega  full diag
   1  -3478.5073947 -0.347851E+04  0.645E-03   10.92       0.0  T
   2  -3478.5073968 -0.216722E-05  0.386E-03   10.92       1.0  T
   3  -3478.5073970 -0.201047E-06  0.238E-04   10.92       7.4  T
   4  -3478.5073970 -0.246609E-07  0.114E-04   10.92      15.4  T
     SCC iter.                  ...        4 min,  4.496 sec
     gradient                   ...        3 min, 38.997 sec
 * total energy  : -3427.3836765 Eh     change    :  -0.2838128E-02 Eh
   gradient norm :     0.0210533 Eh/a0  converged?    E=F G=F D=F
   time step     :     0.9493746 fs     power     :   0.3518993E-07
   step length   :     0.1952822 a0     speed     :   0.4975538E-02

........................................................................
.............................. CYCLE   40 ..............................
........................................................................

 iter      E             dE          RMSdq      gap      omega  full diag
   1  -3478.4957473 -0.347850E+04  0.650E-03   10.92       0.0  T
   2  -3478.4957524 -0.503232E-05  0.392E-03   10.92       1.0  T
   3  -3478.4957526 -0.286455E-06  0.441E-04   10.92       4.0  T
   4  -3478.4957527 -0.506961E-07  0.157E-04   10.92      11.1  T
     SCC iter.                  ...        4 min,  3.258 sec
     gradient                   ...        3 min, 37.638 sec
 * total energy  : -3427.3866530 Eh     change    :  -0.2976567E-02 Eh
   gradient norm :     0.0233248 Eh/a0  converged?    E=F G=F D=F
   time step     :     1.0443120 fs     power     :   0.3274923E-07
   step length   :     0.2230341 a0     speed     :   0.5166021E-02

........................................................................
.............................. CYCLE   41 ..............................
........................................................................

 iter      E             dE          RMSdq      gap      omega  full diag
   1  -3478.5174405 -0.347852E+04  0.735E-03   10.93       0.0  T
   2  -3478.5174414 -0.877171E-06  0.431E-03   10.93       1.0  T
   3  -3478.5174417 -0.287710E-06  0.240E-04   10.93       7.3  T
   4  -3478.5174417 -0.276214E-07  0.143E-04   10.93      12.3  T
     SCC iter.                  ...        4 min,  7.309 sec
     gradient                   ...        3 min, 38.060 sec
 * total energy  : -3427.3901058 Eh     change    :  -0.3452749E-02 Eh
   gradient norm :     0.0212867 Eh/a0  converged?    E=F G=F D=F
   time step     :     1.1487432 fs     power     :   0.3637637E-07
   step length   :     0.2527421 a0     speed     :   0.5321936E-02

........................................................................
.............................. CYCLE   42 ..............................
........................................................................

 iter      E             dE          RMSdq      gap      omega  full diag
   1  -3478.5682278 -0.347857E+04  0.886E-03   10.94       0.0  T
   2  -3478.5682316 -0.378924E-05  0.513E-03   10.94       1.0  T
   3  -3478.5682318 -0.271934E-06  0.401E-04   10.94       4.4  T
   4  -3478.5682319 -0.399527E-07  0.126E-04   10.94      13.9  T
     SCC iter.                  ...        4 min, 14.565 sec
     gradient                   ...        3 min, 40.152 sec
 * total energy  : -3427.3938694 Eh     change    :  -0.3763642E-02 Eh
   gradient norm :     0.0216395 Eh/a0  converged?    E=F G=F D=F
   time step     :     1.2500000 fs     power     :   0.3429759E-07
   step length   :     0.2869982 a0     speed     :   0.5553723E-02
 * RMSD in coord.:     0.0330774 a0     energy gain  -0.3850820E-01 Eh

........................................................................
.............................. CYCLE   43 ..............................
........................................................................

 iter      E             dE          RMSdq      gap      omega  full diag
   1  -3478.5713245 -0.347857E+04  0.144E-03   10.94       0.0  T
   2  -3478.5713245 -0.393757E-07  0.841E-04   10.94       2.1  T
   3  -3478.5713245 -0.109417E-07  0.517E-05   10.94      33.9  T
     SCC iter.                  ...        3 min,  4.839 sec
     gradient                   ...        3 min, 37.782 sec
 * total energy  : -3427.3945902 Eh     change    :  -0.7207334E-03 Eh
   gradient norm :     0.0215217 Eh/a0  converged?    E=F G=F D=F
   time step     :     0.2500000 fs     power     :   0.3758315E-07
   step length   :     0.0556283 a0     speed     :   0.5382339E-02

........................................................................
.............................. CYCLE   44 ..............................
........................................................................

 iter      E             dE          RMSdq      gap      omega  full diag
   1  -3478.5681224 -0.347857E+04  0.137E-03   10.94       0.0  T
   2  -3478.5681225 -0.172727E-06  0.807E-04   10.94       2.2  T
   3  -3478.5681225 -0.115165E-07  0.850E-05   10.94      20.6  T
     SCC iter.                  ...        3 min,  4.503 sec
     gradient                   ...        3 min, 38.049 sec
 * total energy  : -3427.3953579 Eh     change    :  -0.7677662E-03 Eh
   gradient norm :     0.0198884 Eh/a0  converged?    E=F G=F D=F
   time step     :     0.2500000 fs     power     :   0.3987452E-07
   step length   :     0.0543805 a0     speed     :   0.5261608E-02

........................................................................
.............................. CYCLE   45 ..............................
........................................................................

 iter      E             dE          RMSdq      gap      omega  full diag
   1  -3478.5604431 -0.347856E+04  0.149E-03   10.94       0.0  T
   2  -3478.5604435 -0.405615E-06  0.878E-04   10.94       2.0  T
   3  -3478.5604436 -0.137970E-07  0.157E-04   10.94      11.2  T
     SCC iter.                  ...        3 min, 13.369 sec
     gradient                   ...        3 min, 38.390 sec
 * total energy  : -3427.3961393 Eh     change    :  -0.7813893E-03 Eh
   gradient norm :     0.0177966 Eh/a0  converged?    E=F G=F D=F
   time step     :     0.2500000 fs     power     :   0.4007583E-07
   step length   :     0.0537397 a0     speed     :   0.5199602E-02

........................................................................
.............................. CYCLE   46 ..............................
........................................................................

 iter      E             dE          RMSdq      gap      omega  full diag
   1  -3478.5512129 -0.347855E+04  0.162E-03   10.94       0.0  T
   2  -3478.5512134 -0.514932E-06  0.950E-04   10.94       1.8  T
   3  -3478.5512134 -0.154059E-07  0.181E-04   10.94       9.7  T
     SCC iter.                  ...        3 min,  8.069 sec
     gradient                   ...        3 min, 38.897 sec
 * total energy  : -3427.3969013 Eh     change    :  -0.7619273E-03 Eh
   gradient norm :     0.0167026 Eh/a0  converged?    E=F G=F D=F
   time step     :     0.2500000 fs     power     :   0.3874655E-07
   step length   :     0.0535766 a0     speed     :   0.5183820E-02

........................................................................
.............................. CYCLE   47 ..............................
........................................................................

 iter      E             dE          RMSdq      gap      omega  full diag
   1  -3478.5440011 -0.347854E+04  0.164E-03   10.94       0.0  T
   2  -3478.5440015 -0.379867E-06  0.961E-04   10.94       1.8  T
   3  -3478.5440015 -0.143636E-07  0.143E-04   10.94      12.3  T
     SCC iter.                  ...        3 min,  3.719 sec
     gradient                   ...        3 min, 38.067 sec
 * total energy  : -3427.3976363 Eh     change    :  -0.7350604E-03 Eh
   gradient norm :     0.0169126 Eh/a0  converged?    E=F G=F D=F
   time step     :     0.2500000 fs     power     :   0.3753385E-07
   step length   :     0.0535135 a0     speed     :   0.5177718E-02

........................................................................
.............................. CYCLE   48 ..............................
........................................................................

 iter      E             dE          RMSdq      gap      omega  full diag
   1  -3478.5413358 -0.347854E+04  0.177E-03   10.94       0.0  T
   2  -3478.5413360 -0.179357E-06  0.103E-03   10.94       1.7  T
   3  -3478.5413360 -0.145187E-07  0.805E-05   10.94      21.8  T
   4  -3478.5413360 -0.418140E-08  0.289E-05   10.94      60.7  T
     SCC iter.                  ...        4 min,  7.525 sec
     gradient                   ...        3 min, 38.273 sec
 * total energy  : -3427.3984322 Eh     change    :  -0.7958859E-03 Eh
   gradient norm :     0.0172405 Eh/a0  converged?    E=F G=F D=F
   time step     :     0.2750000 fs     power     :   0.3723690E-07
   step length   :     0.0586815 a0     speed     :   0.5161590E-02

........................................................................
.............................. CYCLE   49 ..............................
........................................................................

 iter      E             dE          RMSdq      gap      omega  full diag
   1  -3478.5455981 -0.347855E+04  0.195E-03   10.95       0.0  T
   2  -3478.5455981 -0.660607E-07  0.114E-03   10.95       1.5  T
   3  -3478.5455981 -0.157597E-07  0.594E-05   10.95      29.5  T
   4  -3478.5455981 -0.440241E-08  0.275E-05   10.95      63.7  T
     SCC iter.                  ...        4 min,  9.531 sec
     gradient                   ...        3 min, 39.212 sec
 * total energy  : -3427.3993078 Eh     change    :  -0.8755926E-03 Eh
   gradient norm :     0.0164239 Eh/a0  converged?    E=F G=F D=F
   time step     :     0.3025000 fs     power     :   0.3731544E-07
   step length   :     0.0643635 a0     speed     :   0.5146704E-02

........................................................................
.............................. CYCLE   50 ..............................
........................................................................

 iter      E             dE          RMSdq      gap      omega  full diag
   1  -3478.5573744 -0.347856E+04  0.223E-03   10.95       0.0  T
   2  -3478.5573746 -0.218574E-06  0.130E-03   10.95       1.4  T
   3  -3478.5573747 -0.213413E-07  0.938E-05   10.95      18.7  T
   4  -3478.5573747 -0.448654E-08  0.343E-05   10.95      51.0  T
     SCC iter.                  ...        4 min,  3.372 sec
     gradient                   ...        3 min, 38.449 sec
 * total energy  : -3427.4002561 Eh     change    :  -0.9483249E-03 Eh
   gradient norm :     0.0144855 Eh/a0  converged?    E=F G=F D=F
   time step     :     0.3327500 fs     power     :   0.3631284E-07
   step length   :     0.0710025 a0     speed     :   0.5161434E-02

........................................................................
.............................. CYCLE   51 ..............................
........................................................................

 iter      E             dE          RMSdq      gap      omega  full diag
   1  -3478.5741109 -0.347857E+04  0.249E-03   10.95       0.0  T
   2  -3478.5741114 -0.486038E-06  0.145E-03   10.95       1.2  T
   3  -3478.5741114 -0.277009E-07  0.152E-04   10.95      11.5  T
   4  -3478.5741114 -0.584441E-08  0.424E-05   10.95      41.3  T
     SCC iter.                  ...        3 min, 59.663 sec
     gradient                   ...        3 min, 39.200 sec
 * total energy  : -3427.4012421 Eh     change    :  -0.9859465E-03 Eh
   gradient norm :     0.0134136 Eh/a0  converged?    E=F G=F D=F
   time step     :     0.3660250 fs     power     :   0.3375549E-07
   step length   :     0.0789658 a0     speed     :   0.5218473E-02

........................................................................
.............................. CYCLE   52 ..............................
........................................................................

 iter      E             dE          RMSdq      gap      omega  full diag
   1  -3478.5886709 -0.347859E+04  0.251E-03   10.95       0.0  T
   2  -3478.5886712 -0.365952E-06  0.146E-03   10.95       1.2  T
   3  -3478.5886713 -0.299165E-07  0.123E-04   10.95      14.2  T
   4  -3478.5886713 -0.576892E-08  0.423E-05   10.95      41.4  T
     SCC iter.                  ...        4 min,  6.983 sec
     gradient                   ...        3 min, 38.406 sec
 * total energy  : -3427.4022535 Eh     change    :  -0.1011407E-02 Eh
   gradient norm :     0.0142100 Eh/a0  converged?    E=F G=F D=F
   time step     :     0.4026275 fs     power     :   0.3155886E-07
   step length   :     0.0877850 a0     speed     :   0.5273903E-02

........................................................................
.............................. CYCLE   53 ..............................
........................................................................

 iter      E             dE          RMSdq      gap      omega  full diag
   1  -3478.5935355 -0.347859E+04  0.240E-03   10.95       0.0  T
   2  -3478.5935356 -0.103487E-06  0.141E-03   10.95       1.2  T
   3  -3478.5935357 -0.301570E-07  0.747E-05   10.95      23.5  T
   4  -3478.5935357 -0.482441E-08  0.394E-05   10.95      44.4  T
     SCC iter.                  ...        4 min,  4.408 sec
     gradient                   ...        3 min, 38.713 sec
 * total energy  : -3427.4033295 Eh     change    :  -0.1076031E-02 Eh
   gradient norm :     0.0141575 Eh/a0  converged?    E=F G=F D=F
   time step     :     0.4428903 fs     power     :   0.3089266E-07
   step length   :     0.0967317 a0     speed     :   0.5283088E-02

........................................................................
.............................. CYCLE   54 ..............................
........................................................................

 iter      E             dE          RMSdq      gap      omega  full diag
   1  -3478.5861087 -0.347859E+04  0.248E-03   10.96       0.0  T
   2  -3478.5861091 -0.452580E-06  0.146E-03   10.96       1.2  T
   3  -3478.5861091 -0.377372E-07  0.128E-04   10.96      13.7  T
   4  -3478.5861091 -0.629007E-08  0.479E-05   10.96      36.6  T
     SCC iter.                  ...        4 min,  2.126 sec
     gradient                   ...        3 min, 40.127 sec
 * total energy  : -3427.4044843 Eh     change    :  -0.1154829E-02 Eh
   gradient norm :     0.0125576 Eh/a0  converged?    E=F G=F D=F
   time step     :     0.4871793 fs     power     :   0.2984549E-07
   step length   :     0.1066542 a0     speed     :   0.5295468E-02

........................................................................
.............................. CYCLE   55 ..............................
........................................................................

 iter      E             dE          RMSdq      gap      omega  full diag
   1  -3478.5724646 -0.347857E+04  0.257E-03   10.96       0.0  T
   2  -3478.5724655 -0.900554E-06  0.152E-03   10.96       1.2  T
   3  -3478.5724655 -0.492373E-07  0.214E-04   10.96       8.2  T
   4  -3478.5724655 -0.928594E-08  0.619E-05   10.96      28.3  T
     SCC iter.                  ...        4 min, 12.619 sec
     gradient                   ...        3 min, 38.905 sec
 * total energy  : -3427.4056821 Eh     change    :  -0.1197757E-02 Eh
   gradient norm :     0.0128229 Eh/a0  converged?    E=F G=F D=F
   time step     :     0.5358972 fs     power     :   0.2779941E-07
   step length   :     0.1183839 a0     speed     :   0.5343506E-02

........................................................................
.............................. CYCLE   56 ..............................
........................................................................

 iter      E             dE          RMSdq      gap      omega  full diag
   1  -3478.5676424 -0.347857E+04  0.249E-03   10.96       0.0  T
   2  -3478.5676428 -0.348829E-06  0.147E-03   10.96       1.2  T
   3  -3478.5676428 -0.486284E-07  0.126E-04   10.96      13.9  T
   4  -3478.5676428 -0.879118E-08  0.619E-05   10.96      28.3  T
     SCC iter.                  ...        4 min,  4.439 sec
     gradient                   ...        3 min, 38.674 sec
 * total energy  : -3427.4069546 Eh     change    :  -0.1272521E-02 Eh
   gradient norm :     0.0135319 Eh/a0  converged?    E=F G=F D=F
   time step     :     0.5894869 fs     power     :   0.2737619E-07
   step length   :     0.1306383 a0     speed     :   0.5360575E-02

........................................................................
.............................. CYCLE   57 ..............................
........................................................................

 iter      E             dE          RMSdq      gap      omega  full diag
   1  -3478.5804679 -0.347858E+04  0.287E-03   10.97       0.0  T
   2  -3478.5804683 -0.340945E-06  0.167E-03   10.97       1.0  T
   3  -3478.5804683 -0.405912E-07  0.145E-04   10.97      12.1  T
   4  -3478.5804683 -0.117902E-07  0.573E-05   10.97      30.6  T
     SCC iter.                  ...        4 min,  2.718 sec
     gradient                   ...        3 min, 39.961 sec
 * total energy  : -3427.4083516 Eh     change    :  -0.1396955E-02 Eh
   gradient norm :     0.0120100 Eh/a0  converged?    E=F G=F D=F
   time step     :     0.6484356 fs     power     :   0.2718790E-07
   step length   :     0.1439010 a0     speed     :   0.5367993E-02

........................................................................
.............................. CYCLE   58 ..............................
........................................................................

 iter      E             dE          RMSdq      gap      omega  full diag
   1  -3478.6041364 -0.347860E+04  0.330E-03   10.97       0.0  T
   2  -3478.6041371 -0.688343E-06  0.191E-03   10.97       1.0  T
   3  -3478.6041371 -0.414493E-07  0.200E-04   10.97       8.8  T
   4  -3478.6041371 -0.118634E-07  0.571E-05   10.97      30.7  T
     SCC iter.                  ...        4 min,  9.119 sec
     gradient                   ...        3 min, 39.186 sec
 * total energy  : -3427.4098325 Eh     change    :  -0.1480931E-02 Eh
   gradient norm :     0.0126054 Eh/a0  converged?    E=F G=F D=F
   time step     :     0.7132792 fs     power     :   0.2589743E-07
   step length   :     0.1598993 a0     speed     :   0.5422531E-02

........................................................................
.............................. CYCLE   59 ..............................
........................................................................

 iter      E             dE          RMSdq      gap      omega  full diag
   1  -3478.6176810 -0.347862E+04  0.312E-03   10.98       0.0  T
   2  -3478.6176812 -0.219822E-06  0.185E-03   10.98       1.0  T
   3  -3478.6176813 -0.518908E-07  0.116E-04   10.98      15.1  T
   4  -3478.6176813 -0.861792E-08  0.658E-05   10.98      26.6  T
     SCC iter.                  ...        4 min, 13.418 sec
     gradient                   ...        3 min, 38.595 sec
 * total energy  : -3427.4114478 Eh     change    :  -0.1615323E-02 Eh
   gradient norm :     0.0120621 Eh/a0  converged?    E=F G=F D=F
   time step     :     0.7846071 fs     power     :   0.2615225E-07
   step length   :     0.1768282 a0     speed     :   0.5451478E-02

........................................................................
.............................. CYCLE   60 ..............................
........................................................................

 iter      E             dE          RMSdq      gap      omega  full diag
   1  -3478.6184379 -0.347862E+04  0.334E-03   10.99       0.0  T
   2  -3478.6184392 -0.133305E-05  0.203E-03   10.99       1.0  T
   3  -3478.6184393 -0.668824E-07  0.234E-04   10.99       7.5  T
   4  -3478.6184393 -0.165264E-07  0.795E-05   10.99      22.0  T
     SCC iter.                  ...        4 min,  3.250 sec
     gradient                   ...        3 min, 38.229 sec
 * total energy  : -3427.4131872 Eh     change    :  -0.1739428E-02 Eh
   gradient norm :     0.0111997 Eh/a0  converged?    E=F G=F D=F
   time step     :     0.8630678 fs     power     :   0.2489404E-07
   step length   :     0.1966728 a0     speed     :   0.5512068E-02

........................................................................
.............................. CYCLE   61 ..............................
........................................................................

 iter      E             dE          RMSdq      gap      omega  full diag
   1  -3478.6371994 -0.347864E+04  0.395E-03   10.99       0.0  T
   2  -3478.6371998 -0.320425E-06  0.235E-03   10.99       1.0  T
   3  -3478.6371998 -0.606024E-07  0.124E-04   10.99      14.1  T
   4  -3478.6371998 -0.995669E-08  0.649E-05   10.99      27.0  T
     SCC iter.                  ...        4 min, 14.233 sec
     gradient                   ...        3 min, 42.187 sec
 * total energy  : -3427.4150261 Eh     change    :  -0.1838808E-02 Eh
   gradient norm :     0.0107661 Eh/a0  converged?    E=F G=F D=F
   time step     :     0.9493746 fs     power     :   0.2424220E-07
   step length   :     0.2191185 a0     speed     :   0.5582856E-02

........................................................................
.............................. CYCLE   62 ..............................
........................................................................

 iter      E             dE          RMSdq      gap      omega  full diag
   1  -3478.6816268 -0.347868E+04  0.548E-03   11.00       0.0  T
   2  -3478.6816280 -0.126573E-05  0.317E-03   11.00       1.0  T
   3  -3478.6816281 -0.828445E-07  0.252E-04   11.00       7.0  T
   4  -3478.6816281 -0.147393E-07  0.731E-05   11.00      24.0  T
     SCC iter.                  ...        4 min, 15.390 sec
     gradient                   ...        3 min, 37.689 sec
 * total energy  : -3427.4169308 Eh     change    :  -0.1904760E-02 Eh
   gradient norm :     0.0103458 Eh/a0  converged?    E=F G=F D=F
   time step     :     1.0443120 fs     power     :   0.2190678E-07
   step length   :     0.2445403 a0     speed     :   0.5664158E-02

........................................................................
.............................. CYCLE   63 ..............................
........................................................................

 iter      E             dE          RMSdq      gap      omega  full diag
   1  -3478.6948195 -0.347869E+04  0.508E-03   11.01       0.0  T
   2  -3478.6948204 -0.914996E-06  0.302E-03   11.01       1.0  T
   3  -3478.6948205 -0.694058E-07  0.174E-04   11.01      10.0  T
   4  -3478.6948205 -0.275736E-07  0.722E-05   11.01      24.3  T
     SCC iter.                  ...        4 min, 16.385 sec
     gradient                   ...        3 min, 38.881 sec
 * total energy  : -3427.4188662 Eh     change    :  -0.1935371E-02 Eh
   gradient norm :     0.0088424 Eh/a0  converged?    E=F G=F D=F
   time step     :     1.1487432 fs     power     :   0.2040230E-07
   step length   :     0.2716240 a0     speed     :   0.5719529E-02

........................................................................
.............................. CYCLE   64 ..............................
........................................................................

 iter      E             dE          RMSdq      gap      omega  full diag
   1  -3478.6942093 -0.347869E+04  0.521E-03   11.02       0.0  T
   2  -3478.6942108 -0.147879E-05  0.311E-03   11.03       1.0  T
   3  -3478.6942108 -0.722412E-07  0.202E-04   11.03       8.7  T
   4  -3478.6942109 -0.273280E-07  0.751E-05   11.03      23.3  T
     SCC iter.                  ...        4 min, 14.412 sec
     gradient                   ...        3 min, 38.235 sec
 * total energy  : -3427.4207633 Eh     change    :  -0.1897114E-02 Eh
   gradient norm :     0.0102996 Eh/a0  converged?    E=F G=F D=F
   time step     :     1.2500000 fs     power     :   0.1803359E-07
   step length   :     0.2995488 a0     speed     :   0.5796591E-02

........................................................................
.............................. CYCLE   65 ..............................
........................................................................

 iter      E             dE          RMSdq      gap      omega  full diag
   1  -3478.7345187 -0.347873E+04  0.617E-03   11.04       0.0  T
   2  -3478.7345206 -0.184653E-05  0.357E-03   11.04       1.0  T
   3  -3478.7345207 -0.705231E-07  0.305E-04   11.04       5.7  T
   4  -3478.7345207 -0.306777E-07  0.745E-05   11.04      23.5  T
     SCC iter.                  ...        4 min,  6.542 sec
     gradient                   ...        3 min, 38.030 sec
 * total energy  : -3427.4225110 Eh     change    :  -0.1747680E-02 Eh
   gradient norm :     0.0102762 Eh/a0  converged?    E=F G=F D=F
   time step     :     1.2500000 fs     power     :   0.1618261E-07
   step length   :     0.2984157 a0     speed     :   0.5774664E-02

........................................................................
.............................. CYCLE   66 ..............................
........................................................................

 iter      E             dE          RMSdq      gap      omega  full diag
   1  -3478.7336930 -0.347873E+04  0.454E-03   11.05       0.0  T
   2  -3478.7336944 -0.144119E-05  0.272E-03   11.05       1.0  T
   3  -3478.7336945 -0.745335E-07  0.211E-04   11.05       8.3  T
   4  -3478.7336945 -0.211749E-07  0.821E-05   11.05      21.3  T
     SCC iter.                  ...        4 min,  8.666 sec
     gradient                   ...        3 min, 37.870 sec
 * total energy  : -3427.4241579 Eh     change    :  -0.1646910E-02 Eh
   gradient norm :     0.0086312 Eh/a0  converged?    E=F G=F D=F
   time step     :     1.2500000 fs     power     :   0.1577230E-07
[...]
  3011   6 C     3012   6 C                                       1.5291849
  3012   6 C     3013   6 C                                       1.5300273
  3013   6 C     3014   6 C                                       1.5266826
  3014   6 C     3015   6 C                                       1.5273685
  3015   6 C     3016   6 C                                       1.5234308
  3015   6 C     3017   1 H                                       1.0936062
  3015   6 C     3018   1 H                                       1.0937188
  3014   6 C     3019   1 H                                       1.0915595
  3014   6 C     3020   1 H                                       1.0926080
  3013   6 C     3021   1 H                                       1.0937654
  3013   6 C     3022   1 H                                       1.0933122
  3012   6 C     3023   1 H                                       1.0925422
  3012   6 C     3024   1 H                                       1.0935468
  3011   6 C     3025   1 H                                       1.0932858
  3011   6 C     3026   1 H                                       1.0914369
  3010   6 C     3027   1 H                                       1.0913684
  3010   6 C     3028   1 H                                       1.0939104
  3009   6 C     3029   1 H                                       1.0931127
  3009   6 C     3030   1 H                                       1.0921938
  3008   6 C     3031   1 H                                       1.0933431
  3008   6 C     3032   1 H                                       1.0939017
  3007   6 C     3033   1 H                                       1.0932443
  3007   6 C     3034   1 H                                       1.0915867
  3006   6 C     3035   1 H                                       1.0924377
  3006   6 C     3036   1 H                                       1.0933762
  3005   6 C     3037   1 H                                       1.0934894
  3005   6 C     3038   1 H                                       1.0931997
  3004   6 C     3039   1 H                                       1.0912400
  3004   6 C     3040   1 H                                       1.0909238
  3003   6 C     3041   1 H                                       1.0932500
  3003   6 C     3042   1 H                                       1.0935747
  3002   6 C     3043   1 H                                       1.0940136
  3002   6 C     3044   1 H                                       1.0924970
  3001   6 C     3045   1 H                                       1.0903603
  3001   6 C     3046   1 H                                       1.0925836
  3000   6 C     3047   1 H                                       1.0936591
  3000   6 C     3048   1 H                                       1.0930966
  2999   6 C     3049   1 H                                       1.0923833
  2999   6 C     3050   1 H                                       1.0913702
  2998   6 C     3051   1 H                                       1.0932824
  2998   6 C     3052   1 H                                       1.0927236
  2997   6 C     3053   1 H                                       1.0931289
  2997   6 C     3054   1 H                                       1.0912450
  2996   6 C     3055   1 H                                       1.0932657
  2996   6 C     3056   1 H                                       1.0908809
  2995   6 C     3057   1 H                                       1.0923418
  2995   6 C     3058   1 H                                       1.0925179
  2994   6 C     3059   1 H                                       1.0929510
  2994   6 C     3060   1 H                                       1.0934966
  2993   6 C     3061   1 H                                       1.0912862
  2993   6 C     3062   1 H                                       1.0913183
  2992   6 C     3063   1 H                                       1.0930893
  2992   6 C     3064   1 H                                       1.0935334
  2991   6 C     3065   1 H                                       1.0926541
  2991   6 C     3066   1 H                                       1.0934066
  2990   6 C     3067   1 H                                       1.0903386
  2990   6 C     3068   1 H                                       1.0929277
  2989   6 C     3069   1 H                                       1.0942073
  2989   6 C     3070   1 H                                       1.0919248
  2988   6 C     3071   1 H                                       1.0930174
  2988   6 C     3072   1 H                                       1.0936516
  2987   6 C     3073   1 H                                       1.0912857
  2987   6 C     3074   1 H                                       1.0936720
  2986   6 C     3075   1 H                                       1.0927598
  2986   6 C     3076   1 H                                       1.0912297
  2985   6 C     3077   1 H                                       1.0931581
  2985   6 C     3078   1 H                                       1.0915633
  2984   6 C     3079   1 H                                       1.0929734
  2984   6 C     3080   1 H                                       1.0926449
  2983   6 C     3081   1 H                                       1.0939453
  2983   6 C     3082   1 H                                       1.0923884
  2982   6 C     3083   1 H                                       1.0919963
  2982   6 C     3084   1 H                                       1.0934628
  2981   6 C     3085   1 H                                       1.0921358
  2981   6 C     3086   1 H                                       1.0934185
  2980   6 C     3087   1 H                                       1.0915348
  2980   6 C     3088   1 H                                       1.0934170
  2979   6 C     3089   1 H                                       1.0917720
  2979   6 C     3090   1 H                                       1.0922828
  2978   6 C     3091   1 H                                       1.0913181
  2978   6 C     3092   1 H                                       1.0902604
  2977   6 C     3093   1 H                                       1.0942471
  2977   6 C     3094   1 H                                       1.0937596
  2976   6 C     3095   1 H                                       1.0917637
  2976   6 C     3096   1 H                                       1.0927678
  2975   6 C     3097   1 H                                       1.0932580
  2975   6 C     3098   1 H                                       1.0888720
  2974   6 C     3099   1 H                                       1.0913743
  2974   6 C     3100   1 H                                       1.0940182
  2973   6 C     3101   1 H                                       1.0922906
  2973   6 C     3102   1 H                                       1.0943034
  2972   6 C     3103   1 H                                       1.0936208
  2972   6 C     3104   1 H                                       1.0922088
  2971   6 C     3105   1 H                                       1.0907451
  2971   6 C     3106   1 H                                       1.0932964
  2970   6 C     3107   1 H                                       1.0929674
  2970   6 C     3108   1 H                                       1.0935676
  2969   6 C     3109   1 H                                       1.0913643
  2969   6 C     3110   1 H                                       1.0928564
  2968   6 C     3111   1 H                                       1.0938844
  2968   6 C     3112   1 H                                       1.0928479
  2967   6 C     3113   1 H                                       1.0918927
  2967   6 C     3114   1 H                                       1.0934243
  2966   6 C     3115   1 H                                       1.0935909
  2966   6 C     3116   1 H                                       1.0916928
  2965   6 C     3117   1 H                                       1.0928681
  2965   6 C     3118   1 H                                       1.0927404
  2964   6 C     3119   1 H                                       1.0932498
  2964   6 C     3120   1 H                                       1.0907876
  2963   6 C     3121   1 H                                       1.0922124
  2963   6 C     3122   1 H                                       1.0912470
  2962   6 C     3123   1 H                                       1.0927550
  2962   6 C     3124   1 H                                       1.0923611
  2961   6 C     3125   1 H                                       1.0923550
  2961   6 C     3126   1 H                                       1.0925636
  2960   6 C     3127   1 H                                       1.0907224
  2960   6 C     3128   1 H                                       1.0925701
  2959   6 C     3129   1 H                                       1.0936834
  2959   6 C     3130   1 H                                       1.0908803
  2958   6 C     3131   1 H                                       1.0929198
  2958   6 C     3132   1 H                                       1.0929896
  2957   6 C     3133   1 H                                       1.0931540
  2957   6 C     3134   1 H                                       1.0919124
  2956   6 C     3135   1 H                                       1.0933533
  2956   6 C     3136   1 H                                       1.0913770
  2955   6 C     3137   1 H                                       1.0913341
  2955   6 C     3138   1 H                                       1.0926809
  2954   6 C     3139   1 H                                       1.0913615
  2954   6 C     3140   1 H                                       1.0935481
  2953   6 C     3141   1 H                                       1.0945336
  2953   6 C     3142   1 H                                       1.0923147
  2952   6 C     3143   1 H                                       1.0929637
  2952   6 C     3144   1 H                                       1.0908487
  2951   6 C     3145   1 H                                       1.0916425
  2951   6 C     3146   1 H                                       1.0938934
  2950   6 C     3147   1 H                                       1.0921531
  2950   6 C     3148   1 H                                       1.0916088
  2949   6 C     3149   1 H                                       1.0920760
  2949   6 C     3150   1 H                                       1.0942252
  2948   6 C     3151   1 H                                       1.0928857
  2948   6 C     3152   1 H                                       1.0932637
  2947   6 C     3153   1 H                                       1.0916617
  2947   6 C     3154   1 H                                       1.0925784
  2946   6 C     3155   1 H                                       1.0928832
  2946   6 C     3156   1 H                                       1.0937513
  2945   6 C     3157   1 H                                       1.0910873
  2945   6 C     3158   1 H                                       1.0924882
  2944   6 C     3159   1 H                                       1.0927807
  2944   6 C     3160   1 H                                       1.0935536
  2943   6 C     3161   1 H                                       1.0925542
  2943   6 C     3162   1 H                                       1.0931342
  2942   6 C     3163   1 H                                       1.0930963
  2942   6 C     3164   1 H                                       1.0908752
  2941   6 C     3165   1 H                                       1.0926893
  2941   6 C     3166   1 H                                       1.0929225
  2940   6 C     3167   1 H                                       1.0931104
  2940   6 C     3168   1 H                                       1.0916725
  2939   6 C     3169   1 H                                       1.0918144
  2939   6 C     3170   1 H                                       1.0932166
  2938   6 C     3171   1 H                                       1.0930109
  2938   6 C     3172   1 H                                       1.0931899
  2937   6 C     3173   1 H                                       1.0925775
  2937   6 C     3174   1 H                                       1.0913700
  2936   6 C     3175   1 H                                       1.0920802
  2936   6 C     3176   1 H                                       1.0938498
  2935   6 C     3177   1 H                                       1.0918058
  2935   6 C     3178   1 H                                       1.0930062
  2934   6 C     3179   1 H                                       1.0915814
  2934   6 C     3180   1 H                                       1.0929071
  2933   6 C     3181   1 H                                       1.0937864
  2933   6 C     3182   1 H                                       1.0928608
  2932   6 C     3183   1 H                                       1.0935553
  2932   6 C     3184   1 H                                       1.0929585
  2931   6 C     3185   1 H                                       1.0919936
  2931   6 C     3186   1 H                                       1.0917516
  2930   6 C     3187   1 H                                       1.0939975
  2930   6 C     3188   1 H                                       1.0924416
  2929   6 C     3189   1 H                                       1.0911864
  2929   6 C     3190   1 H                                       1.0931664
  2928   6 C     3191   1 H                                       1.0938391
  2928   6 C     3192   1 H                                       1.0926665
  2927   6 C     3193   1 H                                       1.0915045
  2927   6 C     3194   1 H                                       1.0916117
  2926   6 C     3195   1 H                                       1.0935271
  2926   6 C     3196   1 H                                       1.0928585
  2925   6 C     3197   1 H                                       1.0919014
  2925   6 C     3198   1 H                                       1.0926534
  2924   6 C     3199   1 H                                       1.0937212
  2924   6 C     3200   1 H                                       1.0928828
  2923   6 C     3201   1 H                                       1.0914172
  2923   6 C     3202   1 H                                       1.0926649
  2922   6 C     3203   1 H                                       1.0937488
  2922   6 C     3204   1 H                                       1.0929721
  2921   6 C     3205   1 H                                       1.0912087
  2921   6 C     3206   1 H                                       1.0917554
  2920   6 C     3207   1 H                                       1.0934962
  2920   6 C     3208   1 H                                       1.0924283
  2919   6 C     3209   1 H                                       1.0907906
  2919   6 C     3210   1 H                                       1.0939101
  2918   6 C     3211   1 H                                       1.0936621
  2918   6 C     3212   1 H                                       1.0915882
  2917   6 C     3213   1 H                                       1.0940506
  2917   6 C     3214   1 H                                       1.0939526
  2916   6 C     3215   1 H                                       1.0933760
  2916   6 C     3216   1 H                                       1.0907599
  2915   6 C     3217   1 H                                       1.0929591
  2915   6 C     3218   1 H                                       1.0939209
  2914   6 C     3219   1 H                                       1.0931662
  2914   6 C     3220   1 H                                       1.0926970
  2913   6 C     3221   1 H                                       1.0909821
  2913   6 C     3222   1 H                                       1.0935120
  2912   6 C     3223   1 H                                       1.0931812
  2912   6 C     3224   1 H                                       1.0924928
  2911   6 C     3225   1 H                                       1.0932509
  2911   6 C     3226   1 H                                       1.0943731
  2910   6 C     3227   1 H                                       1.0918242
  2910   6 C     3228   1 H                                       1.0903141
  2909   6 C     3229   1 H                                       1.0931985
  2909   6 C     3230   1 H                                       1.0933414
  2908   6 C     3231   1 H                                       1.0928439
  2908   6 C     3232   1 H                                       1.0917006
  2907   6 C     3233   1 H                                       1.0931068
  2907   6 C     3234   1 H                                       1.0934894
  2906   6 C     3235   1 H                                       1.0940529
  2906   6 C     3236   1 H                                       1.0932590
  2905   6 C     3237   1 H                                       1.0893931
  2905   6 C     3238   1 H                                       1.0926407
  2904   6 C     3239   1 H                                       1.0940004
  2904   6 C     3240   1 H                                       1.0930857
  2903   6 C     3241   1 H                                       1.0927313
  2903   6 C     3242   1 H                                       1.0937632
  2902   6 C     3243   1 H                                       1.0913733
  2902   6 C     3244   1 H                                       1.0915654
  2901   6 C     3245   1 H                                       1.0930379
  2901   6 C     3246   1 H                                       1.0930070
  2900   6 C     3247   1 H                                       1.0933315
  2900   6 C     3248   1 H                                       1.0927634
  2899   6 C     3249   1 H                                       1.0930339
  2899   6 C     3250   1 H                                       1.0929293
  2898   6 C     3251   1 H                                       1.0930249
  2898   6 C     3252   1 H                                       1.0925585
  2897   6 C     3253   1 H                                       1.0881215
  2897   6 C     3254   1 H                                       1.0880964
  2897   6 C     3255   1 H                                       1.0875224
  3016   6 C     3256   1 H                                       1.0877392
  3016   6 C     3257   1 H                                       1.0881214
  3016   6 C     3258   1 H                                       1.0879958

 * 2 distinct bonds (by element types)

   Z      Z             #   av. dist./Å        max./Å        min./Å
   1 H    6 C        2178     1.0925694     1.0947578     1.0865966
   6 C    6 C        1071     1.5272970     1.5352480     1.5224980


optimized geometry written to: xtbopt.xyz


           -------------------------------------------------
          | TOTAL ENERGY            -3427.488671352728 Eh   |
          | GRADIENT NORM               0.000660835845 Eh/α |
          | HOMO-LUMO GAP              11.299558028313 eV   |
           -------------------------------------------------

------------------------------------------------------------------------
 * finished run on 2024/06/20 at 16:01:17.644     
------------------------------------------------------------------------
 total:
 * wall-time:     3 d,  0 h, 43 min, 41.650 sec
 *  cpu-time:    16 d,  5 h, 30 min, 52.204 sec
 * ratio c/w:     5.356 speedup
 SCF:
 * wall-time:     0 d,  0 h,  7 min, 10.161 sec
 *  cpu-time:     0 d,  0 h, 38 min,  6.200 sec
 * ratio c/w:     5.315 speedup
 ANC optimizer:
 * wall-time:     3 d,  0 h, 35 min, 49.693 sec
 *  cpu-time:    16 d,  4 h, 51 min, 49.160 sec
 * ratio c/w:     5.356 speedup

