3864
 energy: -5104.241797218764 gnorm: 0.000812831819 xtb: 6.6.1 (8d0f1dd)
C           56.64235582560901       35.22276885322043       68.83310068371058
C           56.19858708565292       36.23995360377190       67.99699817215203
C           54.90212409103567       36.71140819539531       68.16006255527060
C           54.07643307417331       36.19664956833144       69.14324676245813
C           54.53310170363960       35.19184684846308       69.97777928091310
C           55.81840500327876       34.70306971848841       69.81539273836923
C           57.08167853202756       36.82232225654135       66.92143434837692
C           58.39138321595311       37.34863960812444       67.50909133421520
C           57.32243076722004       35.77602534104839       65.81857037211709
C           57.82542991592525       36.37097011828247       64.49188362062347
C           58.27646780203730       35.26799994093072       63.56703000185796
C           59.62236098877998       35.12104189585833       63.25546486105002
C           60.04713354373705       34.13266979759683       62.38458270929149
C           59.12804312684878       33.27368156471590       61.80662342329416
C           57.78467825518015       33.40322759206315       62.11656985186702
C           57.36670553072774       34.38786244358378       62.99285167167456
C           56.74121494056212       37.23532198268567       63.83642861277396
C           57.09987164375044       37.72290261063174       62.42373445189757
C           58.45811743178540       38.37516817604751       62.40769275266570
C           58.74276348933746       39.45158510984825       63.23992062114920
C           59.98111606328771       40.06534295136841       63.21729962851048
C           60.96591297289094       39.60973644711987       62.35744496452539
C           60.70452372824273       38.52640782429982       61.53704451886239
C           59.46401158635881       37.91391323694432       61.56803288575396
C           55.99242286500410       38.68174896483639       61.94021499489520
C           55.59385093516251       38.50601484476477       60.46765910875870
C           54.26379037603767       39.18852329770690       60.26926906935176
C           54.13733017736197       40.56665860019097       60.40085068857951
C           52.89689853788678       41.17271633729646       60.32710278887154
C           51.75863938353699       40.41261889429686       60.11499252955198
C           51.87248907320193       39.04029412924747       59.97223880157566
C           53.11666144486485       38.43695214960621       60.04938128702407
C           56.67116535288888       39.01227116796554       59.50342694293442
C           56.41645180127572       38.53756475432387       58.06849624924756
C           56.24923174960478       37.04047552999420       57.98593764109243
C           55.16237499263764       36.49674437093883       57.31180861015084
C           55.01090278577583       35.12644033026019       57.19463910654805
C           55.94100236382281       34.27393402862570       57.76442816852364
C           57.02979688277058       34.80198092203891       58.43676316407920
C           57.18710763393466       36.17260201184043       58.53398860990922
C           57.55830392308071       38.94651177842258       57.12289914764406
C           57.49814805547526       40.41070855136647       56.65246524755767
C           58.48531893918090       41.29303773573046       57.37367496837476
C           59.85077994566871       41.04097776667561       57.29321483402805
C           60.76098450713096       41.87269423744427       57.91807268885571
C           60.32484992235104       42.97900238686645       58.62790149171765
C           58.96937571166301       43.24306306130202       58.71474903787800
C           58.06094766134800       42.40222994368197       58.09479443385296
C           57.76341649967717       40.49054778747019       55.13795654823037
C           56.61633931341721       39.90935355516918       54.27890167259046
C           57.15435398807118       38.87501611816648       53.31958389177575
C           56.89987688451232       37.52106143182393       53.50290307986327
C           57.39905639927585       36.57779148572590       52.61968701495372
C           58.14321266446548       36.97475175248550       51.52247309166597
C           58.40821261707207       38.32038077485554       51.33336397273850
C           57.93044736926565       39.25852373336490       52.23043444217306
C           55.88144885266370       41.00606680153627       53.49480426135217
C           55.16423852774740       42.01762832948329       54.40347018044844
C           53.78729890892211       41.53201460790426       54.78037194414129
C           52.80377915389381       41.34376743933959       53.81512269870635
C           51.54949315853915       40.87236278087878       54.15524178232566
C           51.25246871778841       40.57476145024243       55.47502215615404
C           52.21776562401666       40.76457850437330       56.44808286227840
C           53.47037446675684       41.24043582757651       56.10124698554049
C           55.12740942718488       43.39453832892514       53.72887665774055
C           54.64626179013667       44.51802987778363       54.65806352125276
C           54.43709208997212       45.77790807123849       53.85689588801088
C           53.18615316037090       46.37638230930737       53.78711373366077
C           52.99232968353130       47.53387083337350       53.05556352476757
C           54.05368206313243       48.11064481629109       52.38140011144739
C           55.30328421707106       47.51737833796270       52.43070168999868
C           55.49209605857519       46.36351291396870       53.16765810026823
C           55.64258240643061       44.77112584691834       55.79868419065642
C           55.23223824910604       45.95450215627576       56.68604677818573
C           53.83576593026088       45.75545062935154       57.21745000982170
C           52.84771312411955       46.69209355516546       56.94415363458472
C           51.54342057450362       46.48985894222276       57.35478985150845
C           51.19846276138680       45.34342370698812       58.04716067120182
C           52.17778036922754       44.41094879566862       58.34143152828945
C           53.48436717835347       44.61927938053206       57.93777693641152
C           56.25430841045829       46.13317852370042       57.81515732007063
C           56.05637353576167       47.41955659070862       58.63347437583760
C           56.82594946017322       47.30011715679836       59.92371533240918
C           58.21208405219614       47.18768419730976       59.92872031091197
C           58.90281682213259       47.02209765839876       61.11644227139610
C           58.22091071866809       46.96504849558202       62.32028153320881
C           56.84209910432157       47.07970195406367       62.32637829812080
C           56.15368489881043       47.24484387588078       61.13828586816838
C           56.46623413639215       48.66332658863318       57.83384201750367
C           56.26425843307683       49.98184793862997       58.60150864463643
C           54.91036163620790       50.02824896649125       59.25688766610118
C           54.80873075581832       50.19753268516409       60.63110342928106
C           53.57607262148358       50.17577218389101       61.25869027630318
C           52.42113243449251       49.98601596193510       60.51877954198439
C           52.51142009029994       49.82629598502813       59.14712109350442
C           53.74374827860655       49.85554672234925       58.52269197134030
C           56.48009097512595       51.16367457823251       57.63861305771353
C           56.03378203885985       52.52209193321997       58.19314166006978
C           56.52487099321062       52.79278285217612       59.59568993615147
C           57.81175432226956       52.46745958354349       60.00617119415346
C           58.25347778564505       52.78392919898457       61.27813888954370
C           57.41827023661816       53.44083268869526       62.16359033883349
C           56.13623507879970       53.77862047474690       61.76587558545774
C           55.69709398102635       53.45182973928510       60.49607791820783
C           56.50637907722059       53.70157536506299       57.31955300339673
C           55.94186218861161       53.76247231213962       55.88951752836511
C           56.62785887297127       52.79026961943859       54.96233656944278
C           55.89722091601079       51.80344462901285       54.31239867627492
C           56.50695158938796       50.92722224284670       53.43243618249458
C           57.86362521758050       51.03010744064291       53.18079909980484
C           58.60324013085065       52.01124262386850       53.81789692561647
C           57.99094276340529       52.87972666025106       54.70193956926082
C           56.08985088379728       55.19958362027720       55.34970295400954
C           55.72207190729540       55.31794576391949       53.86387787061016
C           54.29654408212519       54.92185952419007       53.58670282409215
C           54.02273925792911       53.92899136310104       52.65527597028226
C           52.71871653311479       53.56305849985236       52.37167971745503
C           51.66669599705651       54.17886223374666       53.02567718223303
C           51.92694675351586       55.17262870365947       53.95309201856026
C           53.23130652733732       55.54452951631445       54.22505247198936
C           56.01269767780894       56.72913981529507       53.31747269312473
C           56.31740351252184       56.69557718527276       51.81053426782235
C           57.41192319631367       55.69722938257572       51.53011528894218
C           58.63934398557469       55.78511738466185       52.17501881619230
C           59.60760846462887       54.81916856748096       51.98498816153255
C           59.37199151306753       53.75631895859890       51.12982485321164
C           58.16896777204050       53.67990782328548       50.45187468796185
C           57.19882985722158       54.64578623172319       50.64940849046110
C           56.73180486562103       58.07715639167929       51.27897747955996
C           55.55150450298274       59.04077009627332       51.06411366532261
C           55.74200088915570       60.35041108924209       51.78839671092186
C           56.90671901067171       61.09340105702426       51.63171081491024
C           57.03937086879871       62.33518958930399       52.22375243463323
C           56.00406060709593       62.86394394266258       52.97646784882267
C           54.84249337680180       62.13018665139465       53.14074769768816
C           54.71761442852714       60.88289104282840       52.55759094196472
C           55.35278125379614       59.40489361762765       49.58288593715768
C           54.95755941358780       58.25733331360033       48.63794498603799
C           55.21352204982314       58.73373625760211       47.22864960086672
C           54.55758949869187       59.85046923933438       46.72317367685000
C           54.82491098468088       60.31057716782388       45.44743650346388
C           55.74520465149119       59.65720139401011       44.64599320194853
C           56.40609047328891       58.54591724515093       45.13881568567279
C           56.14764675830742       58.09664003815163       46.42242890924646
C           53.49606234769485       57.82872016393787       48.83099301579579
C           53.02862613807929       56.81164064503922       47.77879807057036
H           56.54287485799765       37.67118189185672       66.49169263259142
H           58.04992540128254       35.04327649459050       66.17621560860167
H           56.38694025035306       35.24216185398606       65.63233654214510
H           58.69425158620484       37.00326046902827       64.70080728894496
H           55.80889106557314       36.66855442242898       63.78243655646292
H           56.55598658647570       38.10507034263235       64.46770171232097
H           57.13081631038600       36.85056011157039       61.76157048639264
H           55.09751960053356       38.49310271966829       62.53846717771621
H           56.29299134925412       39.71573866480232       62.11284502680508
H           55.45607986212016       37.43316970643637       60.28638560322374
H           57.64469045219553       38.65439873495932       59.83930179600850
H           55.48322478377261       38.99303189413835       57.71525444186231
H           58.51297458365693       38.75549189275579       57.61570146837740
H           57.51693003449050       38.29858601381105       56.24552288327750
H           56.49252388045240       40.79376344300334       56.85018897447572
H           57.94380704903803       41.53024420939809       54.85570085120330
H           58.68457396438023       39.94174028826755       54.93456696472612
H           55.89094817992358       39.41986948742353       54.93674320015597
H           56.60262351084195       41.53953052896914       52.87325294880532
H           55.15986020170256       40.53218236315349       52.82643431872832
H           55.75401298608256       42.11946888330507       55.31486936607457
H           53.68694771882017       44.21706183270692       55.09454612243991
H           55.72330998630179       43.87765919142781       56.41723863232194
H           56.63250932379415       44.96763524949378       55.38106384138460
H           55.23557553401206       46.85435304384534       56.06342468434974
H           56.17749224509815       45.27807274075465       58.49049361981589
H           57.26059823834258       46.12942783877107       57.39393070085460
H           54.99197536324410       47.50080502824041       58.87959841964069
H           57.51598369005688       48.58607301018858       57.54198493679445
H           55.87800615968478       48.69472698531752       56.91568906471981
H           57.01426404577553       50.03032601620055       59.39854830887963
H           57.53563014906990       51.19774640261164       57.35821672271233
H           55.91821288540343       50.97585031316071       56.72348988908415
H           54.93832210247393       52.53623215077774       58.21692489733868
H           56.21805213652674       54.62207817740866       57.83720658432103
H           57.59696592842600       53.67736771442307       57.27098321410291
H           54.87440202255729       53.51837600070095       55.92292063193636
H           55.48015714641195       55.87367553953764       55.95315140994418
H           57.13158004309393       55.50993267691793       55.46331177973380
H           56.37227641597728       54.62023285783729       53.32738308958828
H           55.16597653104538       57.39152481598407       53.50524944100579
H           56.87317474343543       57.14520814919342       53.84519673990379
H           55.41764533361124       56.36666777923789       51.27926345343743
H           57.43871370529503       58.52089447311449       51.98321493686689
H           57.26679053437952       57.94125950272996       50.33592938088951
H           54.63422206958295       58.57561930842409       51.43532725535516
H           54.58862717255610       60.18383534202786       49.52740395968675
H           56.28284492686725       59.84845443928847       49.21602491133475
H           57.64111966365473       34.82777025256161       68.71904684142682
H           56.18034019675754       33.91340663604721       70.45856304364715
H           53.89241257776504       34.78877534171287       70.74901342889105
H           53.07337326127136       36.58161633582132       69.26089953761858
H           54.53445548178181       37.49022764740916       67.50746562527438
H           60.34679715548647       35.79514041448677       63.69208918754529
H           61.09836160072183       34.03684057786179       62.15134165795906
H           59.45765158946189       32.50676758220311       61.11991578753850
H           57.05658286896933       32.73939381613689       61.67166525801717
H           56.31631589638211       34.47206071224760       63.22194601004159
H           57.99042283726840       39.80751422943843       63.92748108543888
H           60.18055038964742       40.90002481936195       63.87465491818340
H           61.93368102086626       40.08993101725139       62.33364137588942
H           61.47270076004045       38.15597085656648       60.87274743188621
H           59.27936365604933       37.05250981273544       60.94026898977190
H           55.01110249101923       41.17488192899697       60.58240838013477
H           52.82527832802629       42.24127742091783       60.45676133380056
H           50.78879987889039       40.88666072066756       60.06231153620597
H           50.99387593036898       38.43237818794375       59.81283403843683
H           53.19893957087980       37.36333459336695       59.95025048985041
H           56.71218919821573       40.10269288631503       59.52030790555192
H           54.42175871287489       37.15351198839065       56.87630230186304
H           54.16331183025775       34.72337147795593       56.65959605660115
H           55.82311156652193       33.20323991783141       57.68356627171494
H           57.76080059096620       34.14351571726575       58.88598582047800
H           58.04982034101882       36.57042283592411       59.04760503446622
H           60.21147585333713       40.18733624529699       56.73814718042486
H           61.81741718666083       41.65397508793843       57.84568685375018
H           61.03821724183324       43.63097146725759       59.11298911256313
H           58.62583093669254       44.10827648522473       59.26473684483668
H           57.00344654044048       42.61374839634485       58.17652861310757
H           56.30661648291760       37.19702531212547       54.34833643328421
H           57.21047464816568       35.52714410237598       52.78497448135084
H           58.52646950317031       36.24235227361675       50.82853237655561
H           58.99570978561364       38.63630296848932       50.48267247093939
H           58.16554649778548       40.30078222593746       52.07642023634751
H           53.01644330469036       41.56497961572994       52.77928373992023
H           50.80221794363138       40.73533553743146       53.38612241875867
H           50.27603320473357       40.19916672824912       55.74459077862703
H           51.99724229187619       40.53915906647901       57.48163390400076
H           54.21003585554471       41.38233848772096       56.87815863401491
H           56.13374091795593       43.63078832458257       53.37510639217645
H           54.47728862318596       43.35551692208232       52.85213284783847
H           52.35465437085936       45.93529767241319       54.31617541843557
H           52.01229350080919       47.98611991215068       53.01088512888568
H           53.90248955246237       49.01808948101420       51.81773841435422
H           56.13243134597910       47.94763990985471       51.88763810323643
H           56.47378702632157       45.91472705633146       53.20764626680734
H           53.09564222877114       47.57864728520344       56.37937753511619
H           50.78882631905142       47.22116303299084       57.10973552914773
H           50.17427795966367       45.17818995373026       58.35010478534720
H           51.91913533644824       43.50637297496393       58.87114475668808
H           54.22992536013437       43.87448316533526       58.17757330715798
H           58.76273068189859       47.22427449882861       58.99890160681181
H           59.98152912121417       46.93447842282639       61.10294194501445
H           58.75781392907020       46.83357467719988       63.24974047738326
H           56.30782677032862       47.03539964943685       63.26351144372757
H           55.07643619585291       47.33233163697935       61.15255584303736
H           55.70864450393481       50.34000507276036       61.21488666327767
H           53.52137907940143       50.28532314449970       62.33230673302931
H           51.45801765858579       49.95146413053704       61.00852835134572
H           51.61603636981058       49.66376202451318       58.56755752031110
H           53.80727069477132       49.72519037497312       57.45329262736901
H           58.48293854046000       51.95475085173307       59.33463629804174
H           59.25636461418654       52.52019364703902       61.58417949036129
H           57.76731740902651       53.68221931958162       63.15832601723611
H           55.47415834513480       54.29464412638911       62.44724094701138
H           54.68900641517294       53.70697863493662       60.20222464074939
H           54.83350071447616       51.72626676753116       54.49267076958915
H           55.91953135858219       50.16273915686119       52.94625066912885
H           58.35100358249082       50.35643575578390       52.49095834436951
H           59.66151469734388       52.10057914556882       53.61382615375878
H           58.58424455569376       53.64420421429570       55.18116001744425
H           54.84877166554285       53.44133682010030       52.15603970924591
H           52.51558834152810       52.79168302702665       51.64204895194236
H           50.64923163032350       53.89007404877582       52.81178532862975
H           51.10577571075527       55.66008402434775       54.45776607880234
H           53.42679584316394       56.32757903874386       54.94287488065955
H           58.83362794380999       56.60743022505034       52.84561298668539
H           60.54828126973838       54.88586520877629       52.51585761987951
H           60.12042830876430       52.99085811638797       50.99908251118161
H           57.98170459810374       52.85647991796426       49.77740109831940
H           56.25712437319584       54.57652076298842       50.12444711483109
H           57.71976734181226       60.71143090470620       51.03140598570138
H           57.95177778019737       62.89576914427433       52.08244330593237
H           56.10454889023881       63.84281027235203       53.42607745249431
H           54.01943057708771       62.51987082931038       53.72128011334095
H           53.80368708793512       60.32500447290709       52.69283360056771
H           56.68581929652463       57.23831691316609       46.80014808228543
H           57.12957275691033       58.02484673032890       44.52760305805535
H           55.95190556109605       60.01620033946251       43.64674957952801
H           54.31014177469052       61.18695707611957       45.08071823634626
H           53.83538182371585       60.37855257792514       47.32832116004862
H           58.97255174130791       37.86358632380239       66.74817951279169
H           58.18049336270358       38.05329301938414       68.31136665981580
H           58.99531907949627       36.53818647366996       67.90952141014672
H           55.60144133852991       57.39220114039951       48.82698266353695
H           53.37665230686242       57.40132782273686       49.82848061266661
H           52.85721146887935       58.71112888171707       48.76459618257648
C           51.51289394786453       56.56142156063793       47.88355123767650
C           53.77682814611136       55.50657178339962       47.87389888480251
C           54.57834716838357       55.08787424409542       46.81770741522199
C           55.25859951004731       53.88414830713904       46.87298910268687
C           55.13814102429918       53.07079940884698       47.98619736708254
C           54.32756642729490       53.46710445967746       49.03600225304451
C           53.65363095639504       54.67570071073205       48.98202011386105
H           54.67178065497553       55.71810501493200       45.94371928108065
H           55.88437765103705       53.57114539811113       46.04824185212877
H           55.67842781529086       52.13621693414573       48.03313965107766
H           54.22798243402839       52.83213767282442       49.90393948832894
H           53.02885081156300       54.96926019711375       49.81391312820103
C           50.68906454329009       57.61863125276260       47.13516931903956
H           51.28616640572156       55.58334743616969       47.45321367038929
H           51.21294927282365       56.54055687127826       48.93312683994337
C           50.99025403081392       57.57867792759940       45.66476183155172
C           50.55378834355141       56.50863197055215       44.89311560328640
C           50.89179560812187       56.41295289422306       43.55585717542900
C           51.67133930616747       57.39448709311122       42.96640127390717
C           52.09566329818583       58.47505926989649       43.71907033295062
C           51.75688880179828       58.56523626782860       45.05850428927953
H           49.94208074447202       55.74277812767559       45.34849611609283
H           50.55549255786045       55.57091247210514       42.96906711501075
H           51.94616733216780       57.31264539322725       41.92422732360740
H           52.70121812099533       59.24755173635160       43.26471094396346
H           52.09597942573266       59.41195821123171       45.63697248195155
H           53.23172263218306       57.23450476223464       46.78905891244516
H           49.62594007146842       57.41721816987218       47.29601752718912
H           50.91364753528105       58.61014937815051       47.52814757642707
C           48.22677300273097       53.38372680362636       66.98512900395467
C           47.96113827014449       53.30290328439700       65.62408758101559
C           46.80601426822148       52.64671904731467       65.21632173406508
C           45.93273154395244       52.10100578748153       66.13968493673147
C           46.20319493360887       52.20076422693040       67.49242328924078
C           47.35422612825373       52.84242064231947       67.91248326214463
C           48.92227108506835       53.90006403794164       64.62696313607367
C           49.55648170808931       52.79677969085105       63.77589849891559
C           48.24770834992804       54.93023166003696       63.71398085993114
C           47.55954542565711       56.08073762663444       64.46477095787176
C           48.56173553191987       56.89118151637832       65.24105150955555
C           49.48028118991088       57.71599739779706       64.60554149551851
C           50.39251801377159       58.45486585682506       65.33746340249094
C           50.41043141576794       58.37281535823975       66.71891093364560
C           49.50344501555516       57.54883888574014       67.36321955903200
C           48.58568485301179       56.82108580208074       66.62883123933639
C           46.76846513359695       56.92415658157577       63.45344862479335
C           46.20157120216742       58.25093783634451       63.99156269210706
C           45.69037367617944       58.11479400642845       65.39939182548190
C           44.70076322294805       57.19535550890501       65.71995825267946
C           44.27355776899547       57.03909979968422       67.02643159584244
C           44.81808346635399       57.81558423260065       68.03479630802322
C           45.79673118693051       58.74443627540388       67.72515674775585
C           46.23325516138426       58.88496325349245       66.42017933675143
C           45.11208323077278       58.73213291352026       63.01744078372357
C           44.42243402565908       60.04329787879847       63.42027892099895
C           45.42392339032799       61.08778116422278       63.84611491236475
C           45.34893503997800       61.66588254962328       65.10681182789058
C           46.26280437017117       62.62710608009712       65.50390685812776
C           47.26760838859529       63.02978457874071       64.64090927305834
C           47.34271049843291       62.47315122338304       63.37511966843858
C           46.42766019113485       61.51326754689500       62.98338028058740
C           43.60376818213676       60.62057619175231       62.25205764924171
C           42.35568675558988       59.82994758074201       61.81983737829784
C           41.94474326661928       60.33467886877002       60.45705982172235
C           41.59668405042137       61.66730323520369       60.26766517039307
C           41.29648253937305       62.15107086292100       59.00774197843938
C           41.31146745749199       61.29892217326559       57.91543339546688
C           41.62331380699437       59.96288271067083       58.09638838183835
C           41.94555631841560       59.48806107503179       59.35622470159122
C           41.19733133387544       59.95658824602151       62.82737485242480
C           41.08060350284710       58.75577081828440       63.78633044733261
C           40.61001145028133       59.21607686388467       65.14189684020819
C           39.44658191174774       59.96474953911215       65.27892224315973
C           39.03953696386409       60.42069345467775       66.51824806223286
C           39.78118244464055       60.12203536873129       67.64882467551584
C           40.93345537438508       59.36666039519255       67.52728795586125
C           41.34520530395368       58.92366851941176       66.28267195698729
C           40.13685293192578       57.67333774623494       63.23507924630034
C           40.32891359285487       56.35131724530253       63.98079844907778
C           41.66869982298525       55.69714670891889       63.73114121964116
C           42.22869214884333       54.91981696938889       64.74030459799029
C           43.40671390868717       54.22404472623032       64.53853480499251
C           44.04242546594884       54.28538752294932       63.30959129576176
C           43.49902138710544       55.05342155590107       62.29612360615974
C           42.32340185985510       55.75386501449950       62.50730651989139
C           39.26751130843907       55.28722526333501       63.64023507110711
C           37.81060422986314       55.66831718180035       63.94126747382899
C           37.64000295837585       56.44870769724802       65.22048375572966
C           38.20393637539581       56.00850264423079       66.41305595290065
C           37.99487391912738       56.69648286677535       67.59350985131361