      -----------------------------------------------------------      
     |                   =====================                   |     
     |                           x T B                           |     
     |                   =====================                   |     
     |                         S. Grimme                         |     
     |          Mulliken Center for Theoretical Chemistry        |     
     |                    University of Bonn                     |     
      -----------------------------------------------------------      

   * xtb version 6.6.1 (8d0f1dd) compiled by 'stahn@M-Bot' on 2023-08-01

   xtb is free software: you can redistribute it and/or modify it under
   the terms of the GNU Lesser General Public License as published by
   the Free Software Foundation, either version 3 of the License, or
   (at your option) any later version.
   
   xtb is distributed in the hope that it will be useful,
   but WITHOUT ANY WARRANTY; without even the implied warranty of
   MERCHANTABILITY or FITNESS FOR A PARTICULAR PURPOSE.  See the
   GNU Lesser General Public License for more details.
   
   Cite this work as:
   * C. Bannwarth, E. Caldeweyher, S. Ehlert, A. Hansen, P. Pracht,
     J. Seibert, S. Spicher, S. Grimme, WIREs Comput. Mol. Sci., 2020, 11,
     e01493. DOI: 10.1002/wcms.1493
   
   for GFN2-xTB:
   * C. Bannwarth, S. Ehlert and S. Grimme., J. Chem. Theory Comput., 2019,
     15, 1652-1671. DOI: 10.1021/acs.jctc.8b01176
   for GFN1-xTB:
   * S. Grimme, C. Bannwarth, P. Shushkov, J. Chem. Theory Comput., 2017,
     13, 1989-2009. DOI: 10.1021/acs.jctc.7b00118
   for GFN0-xTB:
   * P. Pracht, E. Caldeweyher, S. Ehlert, S. Grimme, ChemRxiv, 2019, preprint.
     DOI: 10.26434/chemrxiv.8326202.v1
   for GFN-FF:
   * S. Spicher and S. Grimme, Angew. Chem. Int. Ed., 2020, 59, 15665-15673.
     DOI: 10.1002/anie.202004239
   
   for ALPB and GBSA implicit solvation:
   * S. Ehlert, M. Stahn, S. Spicher, S. Grimme, J. Chem. Theory Comput.,
     2021, 17, 4250-4261. DOI: 10.1021/acs.jctc.1c00471
   
   for DFT-D4:
   * E. Caldeweyher, C. Bannwarth and S. Grimme, J. Chem. Phys., 2017,
     147, 034112. DOI: 10.1063/1.4993215
   * E. Caldeweyher, S. Ehlert, A. Hansen, H. Neugebauer, S. Spicher,
     C. Bannwarth and S. Grimme, J. Chem. Phys., 2019, 150, 154122.
     DOI: 10.1063/1.5090222
   * E. Caldeweyher, J.-M. Mewes, S. Ehlert and S. Grimme, Phys. Chem. Chem. Phys.
     2020, 22, 8499-8512. DOI: 10.1039/D0CP00502A
   
   for sTDA-xTB:
   * S. Grimme and C. Bannwarth, J. Chem. Phys., 2016, 145, 054103.
     DOI: 10.1063/1.4959605
   
   in the mass-spec context:
   * V. Asgeirsson, C. Bauer and S. Grimme, Chem. Sci., 2017, 8, 4879.
     DOI: 10.1039/c7sc00601b
   * J. Koopman and S. Grimme, ACS Omega 2019, 4, 12, 15120-15133.
     DOI: 10.1021/acsomega.9b02011
   
   for metadynamics refer to:
   * S. Grimme, J. Chem. Theory Comput., 2019, 155, 2847-2862
     DOI: 10.1021/acs.jctc.9b00143
   
   for SPH calculations refer to:
   * S. Spicher and S. Grimme, J. Chem. Theory Comput., 2021, 17, 1701-1714
     DOI: 10.1021/acs.jctc.0c01306
   
   with help from (in alphabetical order)
   P. Atkinson, C. Bannwarth, F. Bohle, G. Brandenburg, E. Caldeweyher
   M. Checinski, S. Dohm, S. Ehlert, S. Ehrlich, I. Gerasimov, C. Hölzer
   A. Katbashev, J. Koopman, C. Lavigne, S. Lehtola, F. März, M. Müller,
   F. Musil, H. Neugebauer, J. Pisarek, C. Plett, P. Pracht, F. Pultar,
   J. Seibert, P. Shushkov, S. Spicher, M. Stahn, M. Steiner, T. Strunk,
   J. Stückrath, T. Rose, and J. Unsleber
   
 * started run on 2024/07/11 at 08:34:59.338     

           -------------------------------------------------
          |                Calculation Setup                |
           -------------------------------------------------

          program call               : /home/abt-grimme/AK-bin/xtb input.xyz --input input.inp --opt --gbsa water
          hostname                   : boar095.thch.uni-bonn.de
          coordinate file            : input.xyz
          omp threads                :                     8

   ID    Z sym.   atoms
    1    6 C      1-146, 294-300, 306, 309-314, 323-468, 616-622, 628,
                  631-636, 645-790, 938-944, 950, 953-958, 967-1112,
                  1260-1266, 1272, 1275-1280, 1289-1434, 1582-1588, 1594,
                  1597-1602, 1611-1756, 1904-1910, 1916, 1919-1924,
                  1933-2078, 2226-2232, 2238, 2241-2246, 2255-2400,
                  2548-2554, 2560, 2563-2568, 2577-2722, 2870-2876, 2882,
                  2885-2890, 2899-3044, 3192-3198, 3204, 3207-3212,
                  3221-3366, 3514-3520, 3526, 3529-3534, 3543-3688,
                  3836-3842, 3848, 3851-3856
    2    1 H      147-293, 301-305, 307, 308, 315-322, 469-615, 623-627, 629,
                  630, 637-644, 791-937, 945-949, 951, 952, 959-966,
                  1113-1259, 1267-1271, 1273, 1274, 1281-1288, 1435-1581,
                  1589-1593, 1595, 1596, 1603-1610, 1757-1903, 1911-1915,
                  1917, 1918, 1925-1932, 2079-2225, 2233-2237, 2239, 2240,
                  2247-2254, 2401-2547, 2555-2559, 2561, 2562, 2569-2576,
                  2723-2869, 2877-2881, 2883, 2884, 2891-2898, 3045-3191,
                  3199-3203, 3205, 3206, 3213-3220, 3367-3513, 3521-3525,
                  3527, 3528, 3535-3542, 3689-3835, 3843-3847, 3849, 3850,
                  3857-3864

molecular fragmentation (1/2 indicates fragments):
111111111111111111111111111111111111111111111111111111111111111111111111
111111111111111111111111111111111111111111111111111111111111111111111111
111111111111111111111111111111111111111111111111111111111111111111111111
111111111111111111111111111111111111111111111111111111111111111111111111
111111111111111111111111111111111122222222222222222222222222222222222222
222222222222222222222222222222222222222222222222222222222222222222222222
222222222222222222222222222222222222222222222222222222222222222222222222
222222222222222222222222222222222222222222222222222222222222222222222222
222222222222222222222222222222222222222222222222222222222222222222222222
222222222222222222222222222222222222222222222222222222222222222222222222
222222222222222222222222222222222222222222222222222222222222222222222222
222222222222222222222222222222222222222222222222222222222222222222222222
222222222222222222222222222222222222222222222222222222222222222222222222
222222222222222222222222222222222222222222222222222222222222222222222222
222222222222222222222222222222222222222222222222222222222222222222222222
222222222222222222222222222222222222222222222222222222222222222222222222
222222222222222222222222222222222222222222222222222222222222222222222222
222222222222222222222222222222222222222222222222222222222222222222222222
222222222222222222222222222222222222222222222222222222222222222222222222
222222222222222222222222222222222222222222222222222222222222222222222222
222222222222222222222222222222222222222222222222222222222222222222222222
222222222222222222222222222222222222222222222222222222222222222222222222
222222222222222222222222222222222222222222222222222222222222222222222222
222222222222222222222222222222222222222222222222222222222222222222222222
222222222222222222222222222222222222222222222222222222222222222222222222
222222222222222222222222222222222222222222222222222222222222222222222222
222222222222222222222222222222222222222222222222222222222222222222222222
222222222222222222222222222222222222222222222222222222222222222222222222
222222222222222222222222222222222222222222222222222222222222222222222222
222222222222222222222222222222222222222222222222222222222222222222222222
222222222222222222222222222222222222222222222222222222222222222222222222
222222222222222222222222222222222222222222222222222222222222222222222222
222222222222222222222222222222222222222222222222222222222222222222222222
222222222222222222222222222222222222222222222222222222222222222222222222
222222222222222222222222222222222222222222222222222222222222222222222222
222222222222222222222222222222222222222222222222222222222222222222222222
222222222222222222222222222222222222222222222222222222222222222222222222
222222222222222222222222222222222222222222222222222222222222222222222222
222222222222222222222222222222222222222222222222222222222222222222222222
222222222222222222222222222222222222222222222222222222222222222222222222
222222222222222222222222222222222222222222222222222222222222222222222222
222222222222222222222222222222222222222222222222222222222222222222222222
222222222222222222222222222222222222222222222222222222222222222222222222
222222222222222222222222222222222222222222222222222222222222222222222222
222222222222222222222222222222222222222222222222222222222222222222222222
222222222222222222222222222222222222222222222222222222222222222222222222
222222222222222222222222222222222222222222222222222222222222222222222222
222222222222222222222222222222222222222222222222222222222222222222222222
222222222222222222222222222222222222222222222222222222222222222222222222
222222222222222222222222222222222222222222222222222222222222222222222222
222222222222222222222222222222222222222222222222222222222222222222222222
222222222222222222222222222222222222222222222222222222222222222222222222
222222222222222222222222222222222222222222222222222222222222222222222222
222222222222222222222222222222222222222222222222
# atoms in fragment 1/2:   322  3542
 fragment masses (1/2) :     2085.00    22935.05
CMA distance (Bohr)    :  18.710
constraining FC (au)   :  0.0500

           -------------------------------------------------
          |                 G F N 2 - x T B                 |
           -------------------------------------------------

        Reference                      10.1021/acs.jctc.8b01176
      * Hamiltonian:
        H0-scaling (s, p, d)           1.850000    2.230000    2.230000
        zeta-weighting                 0.500000
      * Dispersion:
        s8                             2.700000
        a1                             0.520000
        a2                             5.000000
        s9                             5.000000
      * Repulsion:
        kExp                           1.500000    1.000000
        rExp                           1.000000
      * Coulomb:
        alpha                          2.000000
        third order                    shell-resolved
        anisotropic                    true
        a3                             3.000000
        a5                             4.000000
        cn-shift                       1.200000
        cn-exp                         4.000000
        max-rad                        5.000000

      * Solvation model:               GBSA
        Solvent                        water
        Parameter file                 internal GFN2-xTB/GBSA
        Dielectric constant                8.0200E+01
        Reference state                gsolv [1 M gas/solution]
        Free energy shift                  1.8574E-03 Eh       1.1656E+00 kcal/mol
        Temperature                        2.9815E+02 K
        Density                            1.0000E+00 kg/L
        Solvent mass                       1.8000E+01 g/mol
        Interaction kernel             Still
        Born radius scaling (c1)           1.5524E+00
        Born radii integrator          GBOBC
        Born offset                        2.4628E-02 a0       4.6540E-02 AA
        H-bond correction              true
        Ion screening                  false
        Surface tension                    1.0000E-05 Eh       1.5569E+01 dyn/cm
        Grid points                               230 per atom
q/qsh data taken from xtbrestart
CAMM data taken from xtbrestart

          ...................................................
          :                      SETUP                      :
          :.................................................:
          :  # basis functions                9624          :
          :  # atomic orbitals                9624          :
          :  # shells                         5784          :
          :  # electrons                      9624          :
          :  max. iterations                   250          :
          :  Hamiltonian                  GFN2-xTB          :
          :  restarted?                       true          :
          :  GBSA solvation                   true          :
          :  PC potential                    false          :
          :  electronic temp.          300.0000000     K    :
          :  accuracy                    1.0000000          :
          :  -> integral cutoff          0.2500000E+02      :
          :  -> integral neglect         0.1000000E-07      :
          :  -> SCF convergence          0.1000000E-05 Eh   :
          :  -> wf. convergence          0.1000000E-03 e    :
          :  Broyden damping             0.4000000          :
          ...................................................

 iter      E             dE          RMSdq      gap      omega  full diag
   1  -5190.3839774 -0.519038E+04  0.932E-05    3.70       0.0  T
   2  -5190.3839775 -0.108766E-07  0.752E-05    3.70      21.4  T
   3  -5190.3839775 -0.763430E-08  0.616E-05    3.70      26.1  T

   *** convergence criteria satisfied after 3 iterations ***

         #    Occupation            Energy/Eh            Energy/eV
      -------------------------------------------------------------
         1        2.0000           -0.6332757             -17.2323
       ...           ...                  ...                  ...
      4806        2.0000           -0.3613181              -9.8320
      4807        2.0000           -0.3603677              -9.8061
      4808        2.0000           -0.3600661              -9.7979
      4809        2.0000           -0.3581244              -9.7451
      4810        2.0000           -0.3576464              -9.7321
      4811        2.0000           -0.3568675              -9.7109
      4812        2.0000           -0.3560419              -9.6884 (HOMO)
      4813                         -0.2199525              -5.9852 (LUMO)
      4814                         -0.2197213              -5.9789
      4815                         -0.2192262              -5.9654
      4816                         -0.2191918              -5.9645
      4817                         -0.2189292              -5.9574
       ...                                ...                  ...
      9624                          0.6719798              18.2855
      -------------------------------------------------------------
                  HL-Gap            0.1360894 Eh            3.7032 eV
             Fermi-level           -0.2879972 Eh           -7.8368 eV

 SCC (total)                   0 d,  0 h, 16 min, 29.958 sec
 SCC setup                      ...        0 min,  2.405 sec (  0.243%)
 Dispersion                     ...        0 min,  6.765 sec (  0.683%)
 classical contributions        ...        0 min,  0.155 sec (  0.016%)
 integral evaluation            ...        0 min, 11.830 sec (  1.195%)
 iterations                     ...       10 min, 36.208 sec ( 64.266%)
 molecular gradient             ...        5 min,  5.871 sec ( 30.897%)
 printout                       ...        0 min, 26.726 sec (  2.700%)

         :::::::::::::::::::::::::::::::::::::::::::::::::::::
         ::                     SUMMARY                     ::
         :::::::::::::::::::::::::::::::::::::::::::::::::::::
         :: total energy           -5103.315747656243 Eh    ::
         :: total w/o Gsasa/hb     -5103.126621727604 Eh    ::
         :: gradient norm              0.743793698317 Eh/a0 ::
         :: HOMO-LUMO gap              3.703180473116 eV    ::
         ::.................................................::
         :: SCC energy             -5190.383977468375 Eh    ::
         :: -> isotropic ES            0.304886164196 Eh    ::
         :: -> anisotropic ES          0.808362374330 Eh    ::
         :: -> anisotropic XC          3.458174201112 Eh    ::
         :: -> dispersion             -6.898565551637 Eh    ::
         :: -> Gsolv                  -0.218878865041 Eh    ::
         ::    -> Gelec               -0.029752936403 Eh    ::
         ::    -> Gsasa               -0.184237633301 Eh    ::
         ::    -> Ghb                 -0.006745738464 Eh    ::
         ::    -> Gshift               0.001857443127 Eh    ::
         :: repulsion energy          85.942539534450 Eh    ::
         :: add. restraining           0.000000000000 Eh    ::
         :: total charge              -0.000000000035 e     ::
         :::::::::::::::::::::::::::::::::::::::::::::::::::::

      ----------------------------------------------------------- 
     |              Fast Inertial Relaxation Engine              |
      ----------------------------------------------------------- 

          ...................................................
          :                      SETUP                      :
          :.................................................:
          :   energy convergence        0.5000000E-05 Eh    :
          :   grad. convergence         0.1000000E-02 Eh/a0 :
          :   optimization log               true           :
          :   writing optlog all                1     steps :
          :   Hessian reset                    20     steps :
          :   time step scaling                 5     steps :
          :   maximium step len.        1.0000000     a0    :
          :   initial time step         0.2500000     fs    :
          :   maximum time step         1.2500000     fs    :
          :   power reset thr           0.0000000     au    :
          :   alpha parameter           0.1000000           :
          :   BFGS update                   false           :
          :   preconditioning               false           :
          ...................................................

........................................................................
.............................. CYCLE    1 ..............................
........................................................................

 iter      E             dE          RMSdq      gap      omega  full diag
   1  -5190.5980199 -0.519060E+04  0.909E-03    3.71       0.0  T
   2  -5190.5980568 -0.369257E-04  0.557E-03    3.71       1.0  T
   3  -5190.5980468  0.100012E-04  0.301E-03    3.71       1.0  T
   4  -5190.5980659 -0.190429E-04  0.813E-04    3.71       2.0  T
   5  -5190.5980677 -0.188033E-05  0.292E-04    3.71       5.5  T
   6  -5190.5980679 -0.133974E-06  0.203E-04    3.71       7.9  T
   7  -5190.5980680 -0.709124E-07  0.151E-04    3.71      10.7  T
     SCC iter.                  ...       24 min, 33.232 sec
     gradient                   ...        5 min,  5.721 sec
 * total energy  : -5103.3777610 Eh     change    :  -0.6201337E-01 Eh
   gradient norm :     0.6830739 Eh/a0  converged?    E=F G=F D=F
   time step     :     0.2500000 fs     power     :   0.3152003E-05
   step length   :     0.0871710 a0     speed     :   0.8434266E-02

........................................................................
.............................. CYCLE    2 ..............................
........................................................................

 iter      E             dE          RMSdq      gap      omega  full diag
   1  -5190.9130315 -0.519091E+04  0.132E-02    3.72       0.0  T
   2  -5190.9131101 -0.785987E-04  0.810E-03    3.72       1.0  T
   3  -5190.9130893  0.207209E-04  0.434E-03    3.72       1.0  T
   4  -5190.9131289 -0.395857E-04  0.119E-03    3.72       1.3  T
   5  -5190.9131330 -0.405130E-05  0.450E-04    3.72       3.6  T
   6  -5190.9131333 -0.318813E-06  0.326E-04    3.72       4.9  T
   7  -5190.9131335 -0.197730E-06  0.246E-04    3.72       6.5  T
     SCC iter.                  ...       24 min, 37.596 sec
     gradient                   ...        5 min,  7.498 sec
 * total energy  : -5103.4590322 Eh     change    :  -0.8127113E-01 Eh
   gradient norm :     0.5995896 Eh/a0  converged?    E=F G=F D=F
   time step     :     0.2500000 fs     power     :   0.4020688E-05
   step length   :     0.1271176 a0     speed     :   0.1229932E-01

........................................................................
.............................. CYCLE    3 ..............................
........................................................................

 iter      E             dE          RMSdq      gap      omega  full diag
   1  -5191.3215021 -0.519132E+04  0.168E-02    3.74       0.0  T
   2  -5191.3216282 -0.126134E-03  0.103E-02    3.74       1.0  T
   3  -5191.3215951  0.330851E-04  0.545E-03    3.74       1.0  T
   4  -5191.3216573 -0.622327E-04  0.152E-03    3.74       1.1  T
   5  -5191.3216639 -0.658022E-05  0.580E-04    3.74       2.8  T
   6  -5191.3216645 -0.525371E-06  0.427E-04    3.74       3.8  T
   7  -5191.3216648 -0.353443E-06  0.325E-04    3.73       4.9  T
     SCC iter.                  ...       24 min, 40.790 sec
     gradient                   ...        5 min,  5.708 sec
 * total energy  : -5103.5472658 Eh     change    :  -0.8823362E-01 Eh
   gradient norm :     0.5009857 Eh/a0  converged?    E=F G=F D=F
   time step     :     0.2500000 fs     power     :   0.4219905E-05
   step length   :     0.1620457 a0     speed     :   0.1567879E-01

........................................................................
.............................. CYCLE    4 ..............................
........................................................................

 iter      E             dE          RMSdq      gap      omega  full diag
   1  -5191.8152451 -0.519182E+04  0.196E-02    3.75       0.0  T
   2  -5191.8154145 -0.169445E-03  0.120E-02    3.75       1.0  T
   3  -5191.8153694  0.450894E-04  0.625E-03    3.75       1.0  T
   4  -5191.8154516 -0.822138E-04  0.176E-03    3.75       1.0  T
   5  -5191.8154606 -0.899009E-05  0.681E-04    3.75       2.4  T
   6  -5191.8154613 -0.708787E-06  0.508E-04    3.75       3.2  T
   7  -5191.8154618 -0.516157E-06  0.387E-04    3.75       4.2  T
     SCC iter.                  ...       24 min, 40.036 sec
     gradient                   ...        5 min,  5.326 sec
 * total energy  : -5103.6302630 Eh     change    :  -0.8299726E-01 Eh
   gradient norm :     0.4016146 Eh/a0  converged?    E=F G=F D=F
   time step     :     0.2500000 fs     power     :   0.3792752E-05
   step length   :     0.1906837 a0     speed     :   0.1844967E-01

........................................................................
.............................. CYCLE    5 ..............................
........................................................................

 iter      E             dE          RMSdq      gap      omega  full diag
   1  -5192.3856666 -0.519239E+04  0.215E-02    3.77       0.0  T
   2  -5192.3858633 -0.196681E-03  0.131E-02    3.77       1.0  T
   3  -5192.3858087  0.546423E-04  0.665E-03    3.77       1.0  T
   4  -5192.3859034 -0.947084E-04  0.190E-03    3.76       1.0  T
   5  -5192.3859141 -0.107148E-04  0.746E-04    3.76       2.2  T
   6  -5192.3859149 -0.822466E-06  0.563E-04    3.76       2.9  T
   7  -5192.3859156 -0.656280E-06  0.427E-04    3.76       3.8  T
     SCC iter.                  ...       24 min, 36.912 sec
     gradient                   ...        5 min,  4.392 sec
 * total energy  : -5103.6987081 Eh     change    :  -0.6844501E-01 Eh
   gradient norm :     0.3242526 Eh/a0  converged?    E=F G=F D=F
   time step     :     0.2500000 fs     power     :   0.2932579E-05
   step length   :     0.2119214 a0     speed     :   0.2050453E-01

........................................................................
.............................. CYCLE    6 ..............................
........................................................................

 iter      E             dE          RMSdq      gap      omega  full diag
   1  -5193.0900667 -0.519309E+04  0.245E-02    3.78       0.0  T
   2  -5193.0903051 -0.238414E-03  0.149E-02    3.78       1.0  T
   3  -5193.0902331  0.720702E-04  0.723E-03    3.78       1.0  T
   4  -5193.0903485 -0.115399E-03  0.211E-03    3.78       1.0  T
   5  -5193.0903620 -0.135334E-04  0.834E-04    3.78       1.9  T
   6  -5193.0903630 -0.973333E-06  0.632E-04    3.78       2.5  T
   7  -5193.0903638 -0.854897E-06  0.474E-04    3.78       3.4  T
     SCC iter.                  ...       24 min, 38.685 sec
     gradient                   ...        5 min,  4.661 sec
 * total energy  : -5103.7528801 Eh     change    :  -0.5417203E-01 Eh
   gradient norm :     0.2945228 Eh/a0  converged?    E=F G=F D=F
   time step     :     0.2750000 fs     power     :   0.1849083E-05
   step length   :     0.2485604 a0     speed     :   0.2186323E-01

........................................................................
.............................. CYCLE    7 ..............................
........................................................................

 iter      E             dE          RMSdq      gap      omega  full diag
   1  -5193.9195779 -0.519392E+04  0.260E-02    3.79       0.0  T
   2  -5193.9198100 -0.232083E-03  0.157E-02    3.79       1.0  T
   3  -5193.9197317  0.782812E-04  0.697E-03    3.79       1.0  T
   4  -5193.9198452 -0.113514E-03  0.212E-03    3.79       1.0  T
   5  -5193.9198593 -0.140899E-04  0.865E-04    3.79       1.9  T
   6  -5193.9198603 -0.100672E-05  0.652E-04    3.79       2.5  T
   7  -5193.9198613 -0.980850E-06  0.482E-04    3.79       3.3  T
   8  -5193.9198624 -0.105511E-05  0.323E-04    3.78       5.0  T
   9  -5193.9198629 -0.479858E-06  0.240E-04    3.78       6.7  T
     SCC iter.                  ...       31 min, 37.971 sec
     gradient                   ...        5 min,  8.017 sec
 * total energy  : -5103.7909790 Eh     change    :  -0.3809887E-01 Eh
   gradient norm :     0.3233264 Eh/a0  converged?    E=F G=F D=F
   time step     :     0.3025000 fs     power     :   0.9845396E-06
   step length   :     0.2773527 a0     speed     :   0.2217799E-01

........................................................................
.............................. CYCLE    8 ..............................
........................................................................

 iter      E             dE          RMSdq      gap      omega  full diag
   1  -5194.8379036 -0.519484E+04  0.259E-02    3.80       0.0  T
   2  -5194.8380770 -0.173363E-03  0.154E-02    3.80       1.0  T
   3  -5194.8380169  0.600216E-04  0.566E-03    3.80       1.0  T
   4  -5194.8380951 -0.781558E-04  0.183E-03    3.79       1.0  T
   5  -5194.8381062 -0.111280E-04  0.726E-04    3.79       2.2  T
   6  -5194.8381068 -0.582501E-06  0.498E-04    3.79       3.2  T
   7  -5194.8381074 -0.575156E-06  0.350E-04    3.79       4.6  T
     SCC iter.                  ...       24 min, 38.002 sec
     gradient                   ...        5 min,  6.603 sec
 * total energy  : -5103.8212066 Eh     change    :  -0.3022770E-01 Eh
   gradient norm :     0.3670056 Eh/a0  converged?    E=F G=F D=F
   time step     :     0.3327500 fs     power     :   0.6923438E-06
   step length   :     0.2974861 a0     speed     :   0.2162538E-01

........................................................................
.............................. CYCLE    9 ..............................
........................................................................

 iter      E             dE          RMSdq      gap      omega  full diag
   1  -5195.8005279 -0.519580E+04  0.254E-02    3.81       0.0  T
   2  -5195.8006321 -0.104170E-03  0.149E-02    3.80       1.0  T
   3  -5195.8006140  0.180507E-04  0.369E-03    3.80       1.0  T
   4  -5195.8006420 -0.279934E-04  0.131E-03    3.80       1.2  T
   5  -5195.8006468 -0.480053E-05  0.685E-04    3.80       2.3  T
   6  -5195.8006475 -0.659635E-06  0.430E-04    3.80       3.7  T
   7  -5195.8006480 -0.519120E-06  0.312E-04    3.80       5.2  T
     SCC iter.                  ...       24 min, 36.516 sec
     gradient                   ...        5 min,  5.714 sec
 * total energy  : -5103.8568740 Eh     change    :  -0.3566734E-01 Eh
   gradient norm :     0.3795201 Eh/a0  converged?    E=F G=F D=F
   time step     :     0.3660250 fs     power     :   0.9161727E-06
   step length   :     0.3173126 a0     speed     :   0.2096967E-01

........................................................................
.............................. CYCLE   10 ..............................
........................................................................

 iter      E             dE          RMSdq      gap      omega  full diag
   1  -5196.7611027 -0.519676E+04  0.261E-02    3.81       0.0  T
   2  -5196.7611803 -0.776126E-04  0.153E-02    3.81       1.0  T
   3  -5196.7611476  0.327683E-04  0.415E-03    3.80       1.0  T
   4  -5196.7611939 -0.463354E-04  0.110E-03    3.80       1.5  T
   5  -5196.7611966 -0.272974E-05  0.554E-04    3.80       2.9  T
   6  -5196.7611970 -0.322810E-06  0.355E-04    3.80       4.5  T
   7  -5196.7611972 -0.263406E-06  0.234E-04    3.80       6.9  T
     SCC iter.                  ...       24 min, 34.549 sec
     gradient                   ...        5 min,  4.066 sec
 * total energy  : -5103.9051022 Eh     change    :  -0.4822823E-01 Eh
   gradient norm :     0.3359750 Eh/a0  converged?    E=F G=F D=F
   time step     :     0.4026275 fs     power     :   0.1203163E-05
   step length   :     0.3463349 a0     speed     :   0.2080693E-01

........................................................................
.............................. CYCLE   11 ..............................
........................................................................

 iter      E             dE          RMSdq      gap      omega  full diag
   1  -5197.6687971 -0.519767E+04  0.291E-02    3.81       0.0  T
   2  -5197.6689295 -0.132433E-03  0.172E-02    3.80       1.0  T
   3  -5197.6688139  0.115670E-03  0.706E-03    3.80       1.0  T
   4  -5197.6689682 -0.154360E-03  0.138E-03    3.80       1.2  T
   5  -5197.6689726 -0.436716E-05  0.578E-04    3.80       2.8  T
   6  -5197.6689733 -0.711355E-06  0.284E-04    3.80       5.7  T
   7  -5197.6689734 -0.480977E-07  0.139E-04    3.80      11.6  T
     SCC iter.                  ...       24 min, 38.422 sec
     gradient                   ...        5 min,  4.201 sec
 * total energy  : -5103.9554555 Eh     change    :  -0.5035326E-01 Eh
   gradient norm :     0.2383425 Eh/a0  converged?    E=F G=F D=F
   time step     :     0.4428903 fs     power     :   0.9361922E-06
   step length   :     0.3868532 a0     speed     :   0.2112833E-01

........................................................................
.............................. CYCLE   12 ..............................
........................................................................

 iter      E             dE          RMSdq      gap      omega  full diag
   1  -5198.4658752 -0.519847E+04  0.328E-02    3.79       0.0  T
   2  -5198.4661217 -0.246412E-03  0.198E-02    3.79       1.0  T
   3  -5198.4659434  0.178214E-03  0.950E-03    3.79       1.0  T
   4  -5198.4662002 -0.256747E-03  0.181E-03    3.79       1.0  T
   5  -5198.4662085 -0.828982E-05  0.683E-04    3.79       2.4  T
   6  -5198.4662095 -0.968137E-06  0.365E-04    3.79       4.4  T
   7  -5198.4662096 -0.115430E-06  0.224E-04    3.79       7.2  T
     SCC iter.                  ...       24 min, 34.352 sec
     gradient                   ...        5 min,  3.976 sec
 * total energy  : -5103.9794935 Eh     change    :  -0.2403800E-01 Eh
   gradient norm :     0.1703936 Eh/a0  converged?    E=F G=F D=F
   time step     :     0.4871793 fs     power     :  -0.1491415E-06
   step length   :     0.4261259 a0     speed     :   0.2115749E-01

........................................................................
.............................. CYCLE   13 ..............................
........................................................................
 * reset velocities

 iter      E             dE          RMSdq      gap      omega  full diag
   1  -5198.4523277 -0.519845E+04  0.921E-04    3.79       0.0  T
   2  -5198.4523282 -0.440535E-06  0.556E-04    3.79       2.9  T
   3  -5198.4523282 -0.596901E-08  0.268E-04    3.79       6.0  T
     SCC iter.                  ...       10 min, 34.708 sec
     gradient                   ...        5 min,  5.787 sec
 * total energy  : -5103.9810852 Eh     change    :  -0.1591716E-02 Eh
   gradient norm :     0.1653960 Eh/a0  converged?    E=F G=F D=F
   time step     :     0.2435896 fs     power     :   0.8539167E-07
   step length   :     0.0094794 a0     speed     :   0.9413190E-03

........................................................................
.............................. CYCLE   14 ..............................
........................................................................

 iter      E             dE          RMSdq      gap      omega  full diag
   1  -5198.4248393 -0.519842E+04  0.181E-03    3.79       0.0  T
   2  -5198.4248409 -0.152314E-05  0.108E-03    3.79       1.5  T
   3  -5198.4248408  0.711771E-07  0.464E-04    3.79       3.5  T
   4  -5198.4248410 -0.242459E-06  0.153E-04    3.79      10.5  T
     SCC iter.                  ...       14 min,  4.655 sec
     gradient                   ...        5 min,  6.661 sec
 * total energy  : -5103.9840832 Eh     change    :  -0.2997991E-02 Eh
   gradient norm :     0.1557606 Eh/a0  converged?    E=F G=F D=F
   time step     :     0.2435896 fs     power     :   0.1582897E-06
   step length   :     0.0186798 a0     speed     :   0.1854938E-02

........................................................................
.............................. CYCLE   15 ..............................
........................................................................

 iter      E             dE          RMSdq      gap      omega  full diag
   1  -5198.3842921 -0.519838E+04  0.259E-03    3.79       0.0  T
   2  -5198.3842954 -0.321253E-05  0.156E-03    3.79       1.0  T
   3  -5198.3842951  0.252126E-06  0.717E-04    3.79       2.2  T
   4  -5198.3842958 -0.659892E-06  0.224E-04    3.79       7.2  T
     SCC iter.                  ...       14 min,  4.854 sec
     gradient                   ...        5 min,  5.836 sec
 * total energy  : -5103.9881484 Eh     change    :  -0.4065211E-02 Eh
   gradient norm :     0.1424109 Eh/a0  converged?    E=F G=F D=F
   time step     :     0.2435896 fs     power     :   0.2109916E-06
   step length   :     0.0273366 a0     speed     :   0.2714569E-02

........................................................................
.............................. CYCLE   16 ..............................
........................................................................

 iter      E             dE          RMSdq      gap      omega  full diag
   1  -5198.3314994 -0.519833E+04  0.332E-03    3.79       0.0  T
   2  -5198.3315046 -0.512344E-05  0.200E-03    3.79       1.0  T
   3  -5198.3315041  0.469216E-06  0.907E-04    3.79       1.8  T
   4  -5198.3315052 -0.109653E-05  0.287E-04    3.79       5.6  T
   5  -5198.3315054 -0.213743E-06  0.117E-04    3.79      13.8  T
     SCC iter.                  ...       17 min, 38.900 sec
     gradient                   ...        5 min,  5.306 sec
 * total energy  : -5103.9928490 Eh     change    :  -0.4700635E-02 Eh
   gradient norm :     0.1267297 Eh/a0  converged?    E=F G=F D=F
   time step     :     0.2435896 fs     power     :   0.2394463E-06
   step length   :     0.0352213 a0     speed     :   0.3497536E-02

........................................................................
.............................. CYCLE   17 ..............................
........................................................................

 iter      E             dE          RMSdq      gap      omega  full diag
   1  -5198.2675505 -0.519827E+04  0.392E-03    3.79       0.0  T
   2  -5198.2675575 -0.705698E-05  0.235E-03    3.79       1.0  T
   3  -5198.2675569  0.614355E-06  0.104E-03    3.80       1.5  T
   4  -5198.2675583 -0.141735E-05  0.332E-04    3.80       4.9  T
   5  -5198.2675586 -0.285275E-06  0.133E-04    3.80      12.1  T
   6  -5198.2675586 -0.265318E-07  0.101E-04    3.80      15.9  T
     SCC iter.                  ...       21 min, 10.428 sec
     gradient                   ...        5 min,  9.542 sec
 * total energy  : -5103.9977380 Eh     change    :  -0.4888956E-02 Eh
   gradient norm :     0.1106032 Eh/a0  converged?    E=F G=F D=F
   time step     :     0.2435896 fs     power     :   0.2440166E-06
   step length   :     0.0421506 a0     speed     :   0.4185619E-02

........................................................................
.............................. CYCLE   18 ..............................
........................................................................

 iter      E             dE          RMSdq      gap      omega  full diag
   1  -5198.1938971 -0.519819E+04  0.440E-03    3.80       0.0  T
   2  -5198.1939055 -0.843696E-05  0.264E-03    3.80       1.0  T
   3  -5198.1939045  0.100484E-05  0.115E-03    3.80       1.4  T
   4  -5198.1939064 -0.191629E-05  0.377E-04    3.80       4.3  T
   5  -5198.1939068 -0.392225E-06  0.141E-04    3.80      11.4  T
   6  -5198.1939069 -0.279624E-07  0.104E-04    3.80      15.4  T
     SCC iter.                  ...       21 min,  8.757 sec
     gradient                   ...        5 min, 15.402 sec
 * total energy  : -5104.0024359 Eh     change    :  -0.4697867E-02 Eh
   gradient norm :     0.0963539 Eh/a0  converged?    E=F G=F D=F
   time step     :     0.2435896 fs     power     :   0.2295550E-06
   step length   :     0.0479838 a0     speed     :   0.4764866E-02

........................................................................
.............................. CYCLE   19 ..............................
........................................................................

 iter      E             dE          RMSdq      gap      omega  full diag
   1  -5198.1035146 -0.519810E+04  0.526E-03    3.80       0.0  T
   2  -5198.1035257 -0.110473E-04  0.316E-03    3.80       1.0  T
   3  -5198.1035239  0.178353E-05  0.132E-03    3.80       1.2  T
   4  -5198.1035268 -0.294758E-05  0.445E-04    3.80       3.6  T
   5  -5198.1035274 -0.570673E-06  0.158E-04    3.80      10.2  T
   6  -5198.1035274 -0.316686E-07  0.114E-04    3.80      14.2  T
     SCC iter.                  ...       21 min,  5.199 sec
     gradient                   ...        5 min,  5.792 sec
 * total energy  : -5104.0071185 Eh     change    :  -0.4682607E-02 Eh
   gradient norm :     0.0853762 Eh/a0  converged?    E=F G=F D=F
   time step     :     0.2679486 fs     power     :   0.2008540E-06
   step length   :     0.0584272 a0     speed     :   0.5274467E-02

........................................................................
.............................. CYCLE   20 ..............................
........................................................................

 iter      E             dE          RMSdq      gap      omega  full diag
   1  -5197.9969812 -0.519800E+04  0.609E-03    3.80       0.0  T
   2  -5197.9969940 -0.127938E-04  0.366E-03    3.80       1.0  T
   3  -5197.9969909  0.311630E-05  0.147E-03    3.80       1.1  T
   4  -5197.9969954 -0.452975E-05  0.495E-04    3.80       3.2  T
   5  -5197.9969961 -0.742250E-06  0.170E-04    3.80       9.4  T
   6  -5197.9969962 -0.322498E-07  0.118E-04    3.80      13.6  T
     SCC iter.                  ...       21 min,  7.574 sec
     gradient                   ...        5 min,  5.928 sec
 * total energy  : -5104.0115559 Eh     change    :  -0.4437435E-02 Eh
   gradient norm :     0.0803043 Eh/a0  converged?    E=F G=F D=F
   time step     :     0.2947435 fs     power     :   0.1671832E-06
   step length   :     0.0691704 a0     speed     :   0.5676636E-02
 * RMSD in coord.:     0.0410641 a0     energy gain  -0.6958082E+00 Eh

........................................................................
.............................. CYCLE   21 ..............................
........................................................................

 iter      E             dE          RMSdq      gap      omega  full diag
   1  -5197.9064858 -0.519791E+04  0.521E-03    3.80       0.0  T
   2  -5197.9064933 -0.753972E-05  0.313E-03    3.80       1.0  T
   3  -5197.9064904  0.296050E-05  0.120E-03    3.80       1.3  T
   4  -5197.9064943 -0.396945E-05  0.390E-04    3.80       4.1  T
   5  -5197.9064948 -0.470447E-06  0.139E-04    3.80      11.6  T
   6  -5197.9064948 -0.205318E-07  0.938E-05    3.80      17.2  T
     SCC iter.                  ...       21 min, 10.157 sec
     gradient                   ...        5 min, 10.659 sec
 * total energy  : -5104.0148065 Eh     change    :  -0.3250626E-02 Eh
   gradient norm :     0.0799576 Eh/a0  converged?    E=F G=F D=F
   time step     :     0.2500000 fs     power     :   0.1493467E-06
   step length   :     0.0603853 a0     speed     :   0.5842603E-02

........................................................................
.............................. CYCLE   22 ..............................
........................................................................

 iter      E             dE          RMSdq      gap      omega  full diag
   1  -5197.8199288 -0.519782E+04  0.522E-03    3.80       0.0  T
   2  -5197.8199344 -0.557300E-05  0.314E-03    3.80       1.0  T
   3  -5197.8199307  0.371481E-05  0.116E-03    3.80       1.4  T
   4  -5197.8199354 -0.473466E-05  0.328E-04    3.80       4.9  T
   5  -5197.8199357 -0.330476E-06  0.119E-04    3.80      13.5  T
   6  -5197.8199357 -0.997625E-08  0.745E-05    3.80      21.6  T
     SCC iter.                  ...       21 min,  8.415 sec
     gradient                   ...        5 min, 19.589 sec
 * total energy  : -5104.0178484 Eh     change    :  -0.3041837E-02 Eh
   gradient norm :     0.0801032 Eh/a0  converged?    E=F G=F D=F
   time step     :     0.2500000 fs     power     :   0.1428551E-06
   step length   :     0.0612197 a0     speed     :   0.5923338E-02

........................................................................
.............................. CYCLE   23 ..............................
........................................................................

 iter      E             dE          RMSdq      gap      omega  full diag
   1  -5197.7406651 -0.519774E+04  0.524E-03    3.80       0.0  T
   2  -5197.7406689 -0.386794E-05  0.314E-03    3.80       1.0  T
   3  -5197.7406646  0.429826E-05  0.113E-03    3.80       1.4  T
   4  -5197.7406700 -0.533835E-05  0.260E-04    3.80       6.2  T
   5  -5197.7406702 -0.194252E-06  0.102E-04    3.80      15.8  T
   6  -5197.7406702 -0.343243E-08  0.585E-05    3.80      27.5  T
     SCC iter.                  ...       21 min,  4.430 sec
     gradient                   ...        5 min,  5.602 sec
 * total energy  : -5104.0208514 Eh     change    :  -0.3003046E-02 Eh
   gradient norm :     0.0789791 Eh/a0  converged?    E=F G=F D=F
   time step     :     0.2500000 fs     power     :   0.1441680E-06
   step length   :     0.0616999 a0     speed     :   0.5969801E-02

........................................................................
.............................. CYCLE   24 ..............................
........................................................................

 iter      E             dE          RMSdq      gap      omega  full diag
   1  -5197.6711567 -0.519767E+04  0.527E-03    3.80       0.0  T
   2  -5197.6711594 -0.266350E-05  0.316E-03    3.80       1.0  T
   3  -5197.6711549  0.449660E-05  0.111E-03    3.80       1.5  T
   4  -5197.6711604 -0.551005E-05  0.208E-04    3.80       7.7  T
   5  -5197.6711605 -0.112276E-06  0.929E-05    3.80      17.3  T
   6  -5197.6711605 -0.316231E-08  0.511E-05    3.80      31.5  T
     SCC iter.                  ...       21 min,  4.262 sec
     gradient                   ...        5 min,  5.555 sec
 * total energy  : -5104.0238968 Eh     change    :  -0.3045385E-02 Eh
   gradient norm :     0.0762020 Eh/a0  converged?    E=F G=F D=F
   time step     :     0.2500000 fs     power     :   0.1482594E-06
   step length   :     0.0621982 a0     speed     :   0.6018006E-02

........................................................................
.............................. CYCLE   25 ..............................
........................................................................

 iter      E             dE          RMSdq      gap      omega  full diag
   1  -5197.6130485 -0.519761E+04  0.532E-03    3.80       0.0  T
   2  -5197.6130505 -0.194320E-05  0.318E-03    3.80       1.0  T
   3  -5197.6130463  0.419004E-05  0.105E-03    3.80       1.5  T
   4  -5197.6130514 -0.511322E-05  0.184E-04    3.80       8.7  T
   5  -5197.6130515 -0.787950E-07  0.981E-05    3.80      16.4  T
   6  -5197.6130515 -0.967339E-08  0.586E-05    3.80      27.5  T
     SCC iter.                  ...       21 min,  8.943 sec
     gradient                   ...        5 min,  5.226 sec
 * total energy  : -5104.0269855 Eh     change    :  -0.3088731E-02 Eh
   gradient norm :     0.0722676 Eh/a0  converged?    E=F G=F D=F
   time step     :     0.2500000 fs     power     :   0.1512545E-06
   step length   :     0.0628710 a0     speed     :   0.6083103E-02

........................................................................
.............................. CYCLE   26 ..............................
........................................................................

 iter      E             dE          RMSdq      gap      omega  full diag
   1  -5197.5629852 -0.519756E+04  0.590E-03    3.80       0.0  T
   2  -5197.5629871 -0.189495E-05  0.351E-03    3.80       1.0  T
   3  -5197.5629830  0.411056E-05  0.105E-03    3.80       1.5  T
   4  -5197.5629880 -0.505700E-05  0.200E-04    3.80       8.0  T
   5  -5197.5629881 -0.854179E-07  0.125E-04    3.80      12.8  T
   6  -5197.5629881 -0.272003E-07  0.851E-05    3.80      18.9  T
     SCC iter.                  ...       21 min,  5.044 sec
     gradient                   ...        5 min,  3.812 sec
 * total energy  : -5104.0303879 Eh     change    :  -0.3402412E-02 Eh
   gradient norm :     0.0675566 Eh/a0  converged?    E=F G=F D=F
   time step     :     0.2750000 fs     power     :   0.1502858E-06
   step length   :     0.0704207 a0     speed     :   0.6194167E-02

........................................................................
.............................. CYCLE   27 ..............................
........................................................................

 iter      E             dE          RMSdq      gap      omega  full diag
   1  -5197.5240000 -0.519752E+04  0.649E-03    3.80       0.0  T
   2  -5197.5240020 -0.198942E-05  0.385E-03    3.80       1.0  T
   3  -5197.5239987  0.322308E-05  0.969E-04    3.80       1.7  T
   4  -5197.5240029 -0.411664E-05  0.232E-04    3.80       6.9  T
   5  -5197.5240030 -0.111327E-06  0.160E-04    3.80      10.1  T
   6  -5197.5240030 -0.527698E-07  0.118E-04    3.80      13.6  T
     SCC iter.                  ...       21 min, 10.278 sec
     gradient                   ...        5 min,  4.614 sec
 * total energy  : -5104.0340361 Eh     change    :  -0.3648199E-02 Eh
   gradient norm :     0.0630218 Eh/a0  converged?    E=F G=F D=F
   time step     :     0.3025000 fs     power     :   0.1448254E-06
   step length   :     0.0792653 a0     speed     :   0.6338299E-02

........................................................................
.............................. CYCLE   28 ..............................
........................................................................

 iter      E             dE          RMSdq      gap      omega  full diag
   1  -5197.4989680 -0.519750E+04  0.702E-03    3.79       0.0  T
   2  -5197.4989701 -0.210990E-05  0.414E-03    3.79       1.0  T
   3  -5197.4989683  0.181452E-05  0.822E-04    3.79       2.0  T
   4  -5197.4989709 -0.264152E-05  0.267E-04    3.79       6.0  T
   5  -5197.4989710 -0.142885E-06  0.192E-04    3.79       8.4  T
   6  -5197.4989711 -0.895161E-07  0.144E-04    3.79      11.2  T
     SCC iter.                  ...       21 min,  5.884 sec
     gradient                   ...        5 min,  4.514 sec
 * total energy  : -5104.0378563 Eh     change    :  -0.3820191E-02 Eh
   gradient norm :     0.0592781 Eh/a0  converged?    E=F G=F D=F
   time step     :     0.3327500 fs     power     :   0.1361653E-06
   step length   :     0.0893384 a0     speed     :   0.6494346E-02

........................................................................
.............................. CYCLE   29 ..............................
........................................................................

 iter      E             dE          RMSdq      gap      omega  full diag
   1  -5197.4901404 -0.519749E+04  0.742E-03    3.79       0.0  T
   2  -5197.4901426 -0.222580E-05  0.437E-03    3.79       1.0  T
   3  -5197.4901414  0.123515E-05  0.793E-04    3.79       2.0  T
   4  -5197.4901436 -0.214990E-05  0.287E-04    3.79       5.6  T
   5  -5197.4901437 -0.141597E-06  0.216E-04    3.79       7.4  T
   6  -5197.4901438 -0.136045E-06  0.156E-04    3.78      10.3  T
     SCC iter.                  ...       21 min,  3.531 sec
     gradient                   ...        5 min,  5.401 sec
 * total energy  : -5104.0417973 Eh     change    :  -0.3940978E-02 Eh
   gradient norm :     0.0565191 Eh/a0  converged?    E=F G=F D=F
   time step     :     0.3660250 fs     power     :   0.1262553E-06
   step length   :     0.1005274 a0     speed     :   0.6643374E-02

........................................................................
.............................. CYCLE   30 ..............................
........................................................................

 iter      E             dE          RMSdq      gap      omega  full diag
   1  -5197.4987897 -0.519750E+04  0.763E-03    3.78       0.0  T
   2  -5197.4987921 -0.242004E-05  0.451E-03    3.78       1.0  T
   3  -5197.4987896  0.254550E-05  0.101E-03    3.78       1.6  T
   4  -5197.4987933 -0.374513E-05  0.289E-04    3.78       5.6  T
   5  -5197.4987934 -0.131541E-06  0.224E-04    3.78       7.2  T
   6  -5197.4987936 -0.151278E-06  0.161E-04    3.78      10.0  T
     SCC iter.                  ...       21 min,  4.160 sec
     gradient                   ...        5 min,  5.781 sec
 * total energy  : -5104.0458525 Eh     change    :  -0.4055152E-02 Eh
   gradient norm :     0.0552534 Eh/a0  converged?    E=F G=F D=F
   time step     :     0.4026275 fs     power     :   0.1172585E-06
   step length   :     0.1127607 a0     speed     :   0.6774380E-02

........................................................................
.............................. CYCLE   31 ..............................
........................................................................

 iter      E             dE          RMSdq      gap      omega  full diag
   1  -5197.5251681 -0.519753E+04  0.765E-03    3.78       0.0  T
   2  -5197.5251708 -0.265795E-05  0.455E-03    3.78       1.0  T
   3  -5197.5251667  0.413868E-05  0.118E-03    3.78       1.4  T
   4  -5197.5251722 -0.555697E-05  0.276E-04    3.77       5.8  T
   5  -5197.5251723 -0.121961E-06  0.211E-04    3.77       7.6  T
   6  -5197.5251725 -0.119898E-06  0.153E-04    3.77      10.5  T
     SCC iter.                  ...       21 min,  9.692 sec
     gradient                   ...        5 min,  9.870 sec
 * total energy  : -5104.0501105 Eh     change    :  -0.4258084E-02 Eh
   gradient norm :     0.0559019 Eh/a0  converged?    E=F G=F D=F
   time step     :     0.4428903 fs     power     :   0.1125488E-06
   step length   :     0.1260750 a0     speed     :   0.6885698E-02

........................................................................
.............................. CYCLE   32 ..............................
........................................................................

 iter      E             dE          RMSdq      gap      omega  full diag
   1  -5197.5691157 -0.519757E+04  0.763E-03    3.77       0.0  T
   2  -5197.5691183 -0.263266E-05  0.455E-03    3.77       1.0  T
   3  -5197.5691149  0.344669E-05  0.105E-03    3.77       1.5  T
   4  -5197.5691194 -0.455344E-05  0.247E-04    3.77       6.5  T
   5  -5197.5691195 -0.104106E-06  0.173E-04    3.77       9.3  T
   6  -5197.5691196 -0.637065E-07  0.127E-04    3.77      12.7  T
     SCC iter.                  ...       21 min,  5.215 sec
     gradient                   ...        5 min,  9.178 sec
 * total energy  : -5104.0548077 Eh     change    :  -0.4697188E-02 Eh
   gradient norm :     0.0562280 Eh/a0  converged?    E=F G=F D=F
   time step     :     0.4871793 fs     power     :   0.1149471E-06
   step length   :     0.1408770 a0     speed     :   0.6994656E-02

........................................................................
.............................. CYCLE   33 ..............................
........................................................................

 iter      E             dE          RMSdq      gap      omega  full diag
   1  -5197.6316099 -0.519763E+04  0.788E-03    3.77       0.0  T
   2  -5197.6316127 -0.276799E-05  0.470E-03    3.77       1.0  T
   3  -5197.6316111  0.162595E-05  0.767E-04    3.77       2.1  T
   4  -5197.6316133 -0.224567E-05  0.236E-04    3.77       6.8  T
   5  -5197.6316134 -0.117726E-06  0.128E-04    3.77      12.6  T
   6  -5197.6316134 -0.239961E-07  0.808E-05    3.77      19.9  T
     SCC iter.                  ...       21 min,  2.918 sec
     gradient                   ...        5 min, 11.247 sec
 * total energy  : -5104.0601600 Eh     change    :  -0.5352297E-02 Eh
   gradient norm :     0.0519956 Eh/a0  converged?    E=F G=F D=F
   time step     :     0.5358972 fs     power     :   0.1195167E-06
   step length   :     0.1582748 a0     speed     :   0.7144066E-02

........................................................................
.............................. CYCLE   34 ..............................
........................................................................

 iter      E             dE          RMSdq      gap      omega  full diag
   1  -5197.7165635 -0.519772E+04  0.861E-03    3.77       0.0  T
   2  -5197.7165676 -0.417499E-05  0.516E-03    3.77       1.0  T
   3  -5197.7165603  0.735039E-05  0.137E-03    3.77       1.2  T
   4  -5197.7165690 -0.875295E-05  0.263E-04    3.77       6.1  T
   5  -5197.7165692 -0.192283E-06  0.120E-04    3.77      13.4  T
   6  -5197.7165692 -0.871569E-08  0.587E-05    3.77      27.4  T
     SCC iter.                  ...       21 min,  7.855 sec
     gradient                   ...        5 min,  8.038 sec
 * total energy  : -5104.0659360 Eh     change    :  -0.5775981E-02 Eh
   gradient norm :     0.0437411 Eh/a0  converged?    E=F G=F D=F
   time step     :     0.5894869 fs     power     :   0.1128450E-06
   step length   :     0.1793982 a0     speed     :   0.7361377E-02

........................................................................
.............................. CYCLE   35 ..............................
........................................................................

 iter      E             dE          RMSdq      gap      omega  full diag
   1  -5197.8311358 -0.519783E+04  0.942E-03    3.77       0.0  T
   2  -5197.8311420 -0.620753E-05  0.572E-03    3.78       1.0  T
   3  -5197.8311232  0.188679E-04  0.214E-03    3.77       1.0  T
   4  -5197.8311460 -0.227684E-04  0.296E-04    3.77       5.4  T
   5  -5197.8311462 -0.215011E-06  0.140E-04    3.77      11.5  T
   6  -5197.8311462 -0.101109E-07  0.672E-05    3.77      23.9  T
     SCC iter.                  ...       21 min,  4.935 sec
     gradient                   ...        5 min, 10.636 sec
 * total energy  : -5104.0714768 Eh     change    :  -0.5540750E-02 Eh
   gradient norm :     0.0413305 Eh/a0  converged?    E=F G=F D=F
   time step     :     0.6484356 fs     power     :   0.9263908E-07
   step length   :     0.2036593 a0     speed     :   0.7597181E-02

........................................................................
.............................. CYCLE   36 ..............................
........................................................................

 iter      E             dE          RMSdq      gap      omega  full diag
   1  -5197.9778510 -0.519798E+04  0.976E-03    3.78       0.0  T
   2  -5197.9778578 -0.681428E-05  0.596E-03    3.78       1.0  T
   3  -5197.9778337  0.240717E-04  0.239E-03    3.78       1.0  T
   4  -5197.9778628 -0.291021E-04  0.293E-04    3.78       5.5  T
   5  -5197.9778630 -0.178558E-06  0.143E-04    3.78      11.2  T
   6  -5197.9778630 -0.105520E-07  0.710E-05    3.78      22.6  T
     SCC iter.                  ...       21 min, 10.633 sec
     gradient                   ...        5 min,  8.997 sec
 * total energy  : -5104.0766847 Eh     change    :  -0.5207942E-02 Eh
   gradient norm :     0.0427728 Eh/a0  converged?    E=F G=F D=F
   time step     :     0.7132792 fs     power     :   0.7878787E-07
   step length   :     0.2277713 a0     speed     :   0.7724219E-02

........................................................................
.............................. CYCLE   37 ..............................
........................................................................

 iter      E             dE          RMSdq      gap      omega  full diag
   1  -5198.1431450 -0.519814E+04  0.102E-02    3.78       0.0  T
   2  -5198.1431538 -0.882597E-05  0.610E-03    3.78       1.0  T
   3  -5198.1431375  0.163713E-04  0.224E-03    3.78       1.0  T
   4  -5198.1431574 -0.199410E-04  0.356E-04    3.78       4.5  T
   5  -5198.1431577 -0.336006E-06  0.147E-04    3.78      11.0  T
   6  -5198.1431577 -0.800628E-08  0.811E-05    3.78      19.8  T
     SCC iter.                  ...       21 min, 10.050 sec
     gradient                   ...        5 min,  8.867 sec
 * total energy  : -5104.0818881 Eh     change    :  -0.5203449E-02 Eh
   gradient norm :     0.0398345 Eh/a0  converged?    E=F G=F D=F
   time step     :     0.7846071 fs     power     :   0.7017481E-07
   step length   :     0.2521952 a0     speed     :   0.7774988E-02

........................................................................
.............................. CYCLE   38 ..............................
........................................................................

 iter      E             dE          RMSdq      gap      omega  full diag
   1  -5198.2905322 -0.519829E+04  0.105E-02    3.78       0.0  T
   2  -5198.2905415 -0.924116E-05  0.617E-03    3.78       1.0  T
   3  -5198.2905338  0.772561E-05  0.181E-03    3.78       1.0  T
   4  -5198.2905434 -0.967782E-05  0.353E-04    3.78       4.6  T
   5  -5198.2905437 -0.291624E-06  0.150E-04    3.78      10.8  T
   6  -5198.2905437 -0.917407E-08  0.833E-05    3.78      19.3  T
     SCC iter.                  ...       21 min,  5.540 sec
     gradient                   ...        5 min,  4.090 sec
 * total energy  : -5104.0870009 Eh     change    :  -0.5112760E-02 Eh
   gradient norm :     0.0424217 Eh/a0  converged?    E=F G=F D=F
   time step     :     0.8630678 fs     power     :   0.6111492E-07
   step length   :     0.2785912 a0     speed     :   0.7807959E-02

........................................................................
.............................. CYCLE   39 ..............................
........................................................................

 iter      E             dE          RMSdq      gap      omega  full diag
   1  -5198.3691017 -0.519837E+04  0.104E-02    3.78       0.0  T
   2  -5198.3691063 -0.459825E-05  0.618E-03    3.78       1.0  T
   3  -5198.3691004  0.593017E-05  0.137E-03    3.78       1.2  T
   4  -5198.3691077 -0.734626E-05  0.264E-04    3.78       6.1  T
   5  -5198.3691078 -0.128068E-06  0.134E-04    3.78      12.0  T
   6  -5198.3691079 -0.861564E-08  0.587E-05    3.78      27.4  T
     SCC iter.                  ...       21 min,  8.431 sec
     gradient                   ...        5 min,  6.037 sec
 * total energy  : -5104.0926633 Eh     change    :  -0.5662405E-02 Eh
   gradient norm :     0.0420409 Eh/a0  converged?    E=F G=F D=F
   time step     :     0.9493746 fs     power     :   0.6529745E-07
   step length   :     0.3064115 a0     speed     :   0.7806971E-02

........................................................................
.............................. CYCLE   40 ..............................
........................................................................

 iter      E             dE          RMSdq      gap      omega  full diag
   1  -5198.3450687 -0.519835E+04  0.108E-02    3.78       0.0  T
   2  -5198.3450774 -0.871862E-05  0.655E-03    3.78       1.0  T
   3  -5198.3450624  0.150189E-04  0.202E-03    3.78       1.0  T
   4  -5198.3450808 -0.184931E-04  0.366E-04    3.78       4.4  T
   5  -5198.3450811 -0.278875E-06  0.226E-04    3.78       7.1  T
   6  -5198.3450812 -0.582795E-07  0.150E-04    3.78      10.7  T
     SCC iter.                  ...       21 min, 11.899 sec
     gradient                   ...        5 min,  6.081 sec
 * total energy  : -5104.0991282 Eh     change    :  -0.6464914E-02 Eh
   gradient norm :     0.0389220 Eh/a0  converged?    E=F G=F D=F
   time step     :     1.0443120 fs     power     :   0.6602311E-07
   step length   :     0.3407034 a0     speed     :   0.7891532E-02

........................................................................
.............................. CYCLE   41 ..............................
........................................................................

 iter      E             dE          RMSdq      gap      omega  full diag
   1  -5198.2393574 -0.519824E+04  0.122E-02    3.78       0.0  T
   2  -5198.2393739 -0.164732E-04  0.734E-03    3.78       1.0  T
   3  -5198.2393594  0.145017E-04  0.218E-03    3.78       1.0  T
   4  -5198.2393775 -0.180991E-04  0.536E-04    3.78       3.0  T
   5  -5198.2393784 -0.837858E-06  0.269E-04    3.78       6.0  T
   6  -5198.2393784 -0.725868E-07  0.179E-04    3.78       9.0  T
     SCC iter.                  ...       21 min,  7.037 sec
     gradient                   ...        5 min,  3.579 sec
 * total energy  : -5104.1058355 Eh     change    :  -0.6707277E-02 Eh
   gradient norm :     0.0357840 Eh/a0  converged?    E=F G=F D=F
   time step     :     1.1487432 fs     power     :   0.5835596E-07
   step length   :     0.3812821 a0     speed     :   0.8028576E-02

........................................................................
.............................. CYCLE   42 ..............................
........................................................................

 iter      E             dE          RMSdq      gap      omega  full diag
   1  -5198.1303478 -0.519813E+04  0.135E-02    3.77       0.0  T
   2  -5198.1303569 -0.910475E-05  0.807E-03    3.77       1.0  T
   3  -5198.1303403  0.166540E-04  0.244E-03    3.77       1.0  T
   4  -5198.1303607 -0.204302E-04  0.375E-04    3.77       4.3  T
   5  -5198.1303609 -0.204852E-06  0.195E-04    3.77       8.3  T
   6  -5198.1303609 -0.168629E-07  0.892E-05    3.77      18.0  T
     SCC iter.                  ...       21 min,  4.084 sec
     gradient                   ...        5 min,  5.364 sec
 * total energy  : -5104.1123033 Eh     change    :  -0.6467828E-02 Eh
   gradient norm :     0.0369039 Eh/a0  converged?    E=F G=F D=F
   time step     :     1.2500000 fs     power     :   0.5054341E-07
   step length   :     0.4200399 a0     speed     :   0.8128223E-02
 * RMSD in coord.:     0.0542986 a0     energy gain  -0.1007474E+00 Eh

........................................................................
.............................. CYCLE   43 ..............................
........................................................................

 iter      E             dE          RMSdq      gap      omega  full diag
   1  -5198.1169127 -0.519812E+04  0.231E-03    3.77       0.0  T
   2  -5198.1169130 -0.307170E-06  0.140E-03    3.78       1.1  T
   3  -5198.1169118  0.115911E-05  0.542E-04    3.78       3.0  T
   4  -5198.1169132 -0.138965E-05  0.667E-05    3.78      24.1  T
   5  -5198.1169132 -0.894033E-08  0.360E-05    3.78      44.7  T
   6  -5198.1169132 -0.115324E-08  0.182E-05    3.78      88.3  T
     SCC iter.                  ...       21 min,  5.920 sec
     gradient                   ...        5 min,  6.836 sec
 * total energy  : -5104.1135060 Eh     change    :  -0.1202685E-02 Eh
   gradient norm :     0.0361909 Eh/a0  converged?    E=F G=F D=F
   time step     :     0.2500000 fs     power     :   0.6147917E-07
   step length   :     0.0794900 a0     speed     :   0.7691082E-02

........................................................................
.............................. CYCLE   44 ..............................
........................................................................

 iter      E             dE          RMSdq      gap      omega  full diag
   1  -5198.1119428 -0.519811E+04  0.228E-03    3.78       0.0  T
   2  -5198.1119434 -0.563060E-06  0.142E-03    3.78       1.1  T
   3  -5198.1119419  0.146607E-05  0.636E-04    3.78       2.5  T
   4  -5198.1119438 -0.190293E-05  0.795E-05    3.78      20.2  T
   5  -5198.1119438 -0.177997E-07  0.348E-05    3.78      46.3  T
   6  -5198.1119438 -0.817636E-09  0.182E-05    3.78      88.2  T
     SCC iter.                  ...       21 min,  4.922 sec
     gradient                   ...        5 min,  5.504 sec
 * total energy  : -5104.1148546 Eh     change    :  -0.1348598E-02 Eh
   gradient norm :     0.0326190 Eh/a0  converged?    E=F G=F D=F
   time step     :     0.2500000 fs     power     :   0.6846684E-07
   step length   :     0.0761552 a0     speed     :   0.7368424E-02

........................................................................
.............................. CYCLE   45 ..............................
........................................................................

 iter      E             dE          RMSdq      gap      omega  full diag
   1  -5198.1155027 -0.519812E+04  0.247E-03    3.78       0.0  T
   2  -5198.1155036 -0.874449E-06  0.156E-03    3.78       1.0  T
   3  -5198.1155019  0.166253E-05  0.723E-04    3.78       2.2  T
   4  -5198.1155042 -0.231844E-05  0.969E-05    3.78      16.6  T
   5  -5198.1155042 -0.269902E-07  0.421E-05    3.78      38.2  T
   6  -5198.1155042 -0.139244E-08  0.236E-05    3.78      68.1  T
     SCC iter.                  ...       21 min,  9.870 sec
     gradient                   ...        5 min,  7.756 sec
 * total energy  : -5104.1162405 Eh     change    :  -0.1385932E-02 Eh
   gradient norm :     0.0283631 Eh/a0  converged?    E=F G=F D=F
   time step     :     0.2500000 fs     power     :   0.6898652E-07
   step length   :     0.0739364 a0     speed     :   0.7153745E-02

........................................................................
.............................. CYCLE   46 ..............................
........................................................................

 iter      E             dE          RMSdq      gap      omega  full diag
   1  -5198.1277107 -0.519813E+04  0.265E-03    3.78       0.0  T
   2  -5198.1277116 -0.954604E-06  0.167E-03    3.78       1.0  T
   3  -5198.1277097  0.197691E-05  0.766E-04    3.78       2.1  T
   4  -5198.1277123 -0.267837E-05  0.102E-04    3.78      15.8  T
   5  -5198.1277124 -0.272848E-07  0.477E-05    3.78      33.7  T
   6  -5198.1277124 -0.186446E-08  0.269E-05    3.78      59.8  T
     SCC iter.                  ...       21 min,  9.771 sec
     gradient                   ...        5 min,  8.209 sec
 * total energy  : -5104.1175665 Eh     change    :  -0.1326004E-02 Eh
   gradient norm :     0.0259421 Eh/a0  converged?    E=F G=F D=F
   time step     :     0.2500000 fs     power     :   0.6502873E-07
   step length   :     0.0725044 a0     speed     :   0.7015193E-02

........................................................................
.............................. CYCLE   47 ..............................
........................................................................

 iter      E             dE          RMSdq      gap      omega  full diag
   1  -5198.1480549 -0.519815E+04  0.271E-03    3.78       0.0  T
   2  -5198.1480556 -0.731218E-06  0.167E-03    3.78       1.0  T
   3  -5198.1480536  0.198124E-05  0.714E-04    3.78       2.3  T
   4  -5198.1480561 -0.249066E-05  0.938E-05    3.78      17.1  T
   5  -5198.1480562 -0.204100E-07  0.477E-05    3.78      33.8  T
   6  -5198.1480562 -0.167893E-08  0.265E-05    3.78      60.6  T
     SCC iter.                  ...       21 min,  6.929 sec
     gradient                   ...        5 min,  7.323 sec
 * total energy  : -5104.1188060 Eh     change    :  -0.1239498E-02 Eh
   gradient norm :     0.0258969 Eh/a0  converged?    E=F G=F D=F
   time step     :     0.2500000 fs     power     :   0.6097866E-07
   step length   :     0.0712782 a0     speed     :   0.6896544E-02

........................................................................
.............................. CYCLE   48 ..............................
........................................................................

 iter      E             dE          RMSdq      gap      omega  full diag
   1  -5198.1778114 -0.519818E+04  0.292E-03    3.78       0.0  T
   2  -5198.1778120 -0.516320E-06  0.175E-03    3.78       1.0  T
   3  -5198.1778105  0.147200E-05  0.604E-04    3.78       2.7  T
   4  -5198.1778122 -0.176587E-05  0.889E-05    3.78      18.1  T
   5  -5198.1778123 -0.169412E-07  0.468E-05    3.78      34.4  T
   6  -5198.1778123 -0.114596E-08  0.243E-05    3.78      66.3  T
     SCC iter.                  ...       21 min,  4.480 sec
     gradient                   ...        5 min,  6.846 sec
 * total energy  : -5104.1201104 Eh     change    :  -0.1304365E-02 Eh
   gradient norm :     0.0265925 Eh/a0  converged?    E=F G=F D=F
   time step     :     0.2750000 fs     power     :   0.5890014E-07
   step length   :     0.0769617 a0     speed     :   0.6769506E-02

........................................................................
.............................. CYCLE   49 ..............................
........................................................................

 iter      E             dE          RMSdq      gap      omega  full diag
   1  -5198.2160909 -0.519822E+04  0.307E-03    3.78       0.0  T
   2  -5198.2160913 -0.371466E-06  0.181E-03    3.78       1.0  T
   3  -5198.2160907  0.580294E-06  0.443E-04    3.78       3.6  T
   4  -5198.2160914 -0.724786E-06  0.796E-05    3.78      20.2  T
     SCC iter.                  ...       14 min,  7.841 sec
     gradient                   ...        5 min, 14.618 sec
 * total energy  : -5104.1215260 Eh     change    :  -0.1415568E-02 Eh
   gradient norm :     0.0264606 Eh/a0  converged?    E=F G=F D=F
   time step     :     0.3025000 fs     power     :   0.5865262E-07
   step length   :     0.0830783 a0     speed     :   0.6643196E-02

........................................................................
.............................. CYCLE   50 ..............................
........................................................................

 iter      E             dE          RMSdq      gap      omega  full diag
   1  -5198.2611421 -0.519826E+04  0.322E-03    3.78       0.0  T
   2  -5198.2611425 -0.395316E-06  0.191E-03    3.78       1.0  T
   3  -5198.2611417  0.762280E-06  0.485E-04    3.78       3.3  T
   4  -5198.2611427 -0.942915E-06  0.763E-05    3.78      21.1  T
     SCC iter.                  ...       14 min,  7.036 sec
     gradient                   ...        5 min, 15.731 sec
 * total energy  : -5104.1230758 Eh     change    :  -0.1549777E-02 Eh
   gradient norm :     0.0250288 Eh/a0  converged?    E=F G=F D=F
   time step     :     0.3327500 fs     power     :   0.5833649E-07
   step length   :     0.0900285 a0     speed     :   0.6544508E-02

........................................................................
.............................. CYCLE   51 ..............................
........................................................................

 iter      E             dE          RMSdq      gap      omega  full diag
   1  -5198.3099349 -0.519831E+04  0.342E-03    3.78       0.0  T
   2  -5198.3099355 -0.547167E-06  0.205E-03    3.78       1.0  T
   3  -5198.3099338  0.165023E-05  0.622E-04    3.78       2.6  T
   4  -5198.3099358 -0.196957E-05  0.895E-05    3.78      18.0  T
   5  -5198.3099358 -0.134469E-07  0.496E-05    3.78      32.5  T
   6  -5198.3099358 -0.160071E-08  0.229E-05    3.78      70.3  T
     SCC iter.                  ...       21 min, 12.906 sec
     gradient                   ...        5 min,  9.693 sec
 * total energy  : -5104.1247374 Eh     change    :  -0.1661600E-02 Eh
   gradient norm :     0.0228226 Eh/a0  converged?    E=F G=F D=F
   time step     :     0.3660250 fs     power     :   0.5620697E-07
   step length   :     0.0981820 a0     speed     :   0.6488377E-02

........................................................................
.............................. CYCLE   52 ..............................
........................................................................

 iter      E             dE          RMSdq      gap      omega  full diag
   1  -5198.3574601 -0.519836E+04  0.364E-03    3.78       0.0  T
   2  -5198.3574608 -0.666192E-06  0.218E-03    3.78       1.0  T
   3  -5198.3574593  0.145631E-05  0.601E-04    3.78       2.7  T
   4  -5198.3574611 -0.175766E-05  0.105E-04    3.78      15.3  T
   5  -5198.3574611 -0.227064E-07  0.542E-05    3.78      29.7  T
   6  -5198.3574611 -0.992259E-09  0.237E-05    3.78      67.8  T
     SCC iter.                  ...       21 min,  6.113 sec
     gradient                   ...        5 min,  9.881 sec
 * total energy  : -5104.1264543 Eh     change    :  -0.1716957E-02 Eh
   gradient norm :     0.0211871 Eh/a0  converged?    E=F G=F D=F
   time step     :     0.4026275 fs     power     :   0.5194901E-07
   step length   :     0.1076689 a0     speed     :   0.6468475E-02

........................................................................
.............................. CYCLE   53 ..............................
........................................................................

 iter      E             dE          RMSdq      gap      omega  full diag
   1  -5198.3966803 -0.519840E+04  0.382E-03    3.78       0.0  T
   2  -5198.3966811 -0.753094E-06  0.227E-03    3.78       1.0  T
   3  -5198.3966802  0.931123E-06  0.568E-04    3.78       2.8  T
   4  -5198.3966814 -0.119540E-05  0.104E-04    3.78      15.5  T
   5  -5198.3966814 -0.162891E-07  0.589E-05    3.78      27.3  T
     SCC iter.                  ...       17 min, 35.474 sec
     gradient                   ...        5 min, 14.983 sec
 * total energy  : -5104.1281945 Eh     change    :  -0.1740138E-02 Eh
   gradient norm :     0.0217507 Eh/a0  converged?    E=F G=F D=F
   time step     :     0.4428903 fs     power     :   0.4762933E-07
   step length   :     0.1181569 a0     speed     :   0.6453244E-02

........................................................................
.............................. CYCLE   54 ..............................
........................................................................

 iter      E             dE          RMSdq      gap      omega  full diag
   1  -5198.4211656 -0.519842E+04  0.394E-03    3.78       0.0  T
   2  -5198.4211665 -0.866233E-06  0.235E-03    3.78       1.0  T
   3  -5198.4211641  0.244356E-05  0.801E-04    3.78       2.0  T
   4  -5198.4211670 -0.295936E-05  0.114E-04    3.78      14.1  T
   5  -5198.4211671 -0.251275E-07  0.681E-05    3.78      23.6  T
   6  -5198.4211671 -0.375167E-08  0.355E-05    3.78      45.4  T
     SCC iter.                  ...       21 min,  6.348 sec
     gradient                   ...        5 min,  5.068 sec
 * total energy  : -5104.1300246 Eh     change    :  -0.1830142E-02 Eh
   gradient norm :     0.0230830 Eh/a0  converged?    E=F G=F D=F
   time step     :     0.4871793 fs     power     :   0.4641441E-07
   step length   :     0.1289987 a0     speed     :   0.6404891E-02

........................................................................
.............................. CYCLE   55 ..............................
........................................................................

 iter      E             dE          RMSdq      gap      omega  full diag
   1  -5198.4277115 -0.519843E+04  0.417E-03    3.78       0.0  T
   2  -5198.4277125 -0.105098E-05  0.249E-03    3.78       1.0  T
   3  -5198.4277084  0.417932E-05  0.101E-03    3.78       1.6  T
   4  -5198.4277134 -0.502896E-05  0.110E-04    3.78      14.6  T
   5  -5198.4277134 -0.180180E-07  0.672E-05    3.78      23.9  T
   6  -5198.4277134 -0.315140E-08  0.358E-05    3.78      45.0  T
     SCC iter.                  ...       21 min,  7.817 sec
     gradient                   ...        5 min, 10.469 sec
 * total energy  : -5104.1320525 Eh     change    :  -0.2027955E-02 Eh
   gradient norm :     0.0218151 Eh/a0  converged?    E=F G=F D=F
   time step     :     0.5358972 fs     power     :   0.4721368E-07
   step length   :     0.1407047 a0     speed     :   0.6351002E-02

........................................................................
.............................. CYCLE   56 ..............................
........................................................................

 iter      E             dE          RMSdq      gap      omega  full diag
   1  -5198.4159375 -0.519842E+04  0.453E-03    3.78       0.0  T
   2  -5198.4159387 -0.123808E-05  0.270E-03    3.78       1.0  T
   3  -5198.4159351  0.358298E-05  0.100E-03    3.78       1.6  T
   4  -5198.4159394 -0.430242E-05  0.125E-04    3.78      12.9  T
   5  -5198.4159395 -0.310911E-07  0.650E-05    3.78      24.8  T
   6  -5198.4159395 -0.176624E-08  0.296E-05    3.78      54.4  T
     SCC iter.                  ...       21 min,  8.646 sec
     gradient                   ...        5 min,  8.786 sec
 * total energy  : -5104.1342440 Eh     change    :  -0.2191490E-02 Eh
   gradient norm :     0.0189895 Eh/a0  converged?    E=F G=F D=F
   time step     :     0.5894869 fs     power     :   0.4529037E-07
   step length   :     0.1546911 a0     speed     :   0.6347552E-02

........................................................................
.............................. CYCLE   57 ..............................
........................................................................

 iter      E             dE          RMSdq      gap      omega  full diag
   1  -5198.3891095 -0.519839E+04  0.487E-03    3.78       0.0  T
   2  -5198.3891106 -0.107766E-05  0.289E-03    3.78       1.0  T
   3  -5198.3891087  0.186042E-05  0.800E-04    3.78       2.0  T
   4  -5198.3891110 -0.228760E-05  0.123E-04    3.78      13.0  T
   5  -5198.3891111 -0.208229E-07  0.690E-05    3.78      23.3  T
   6  -5198.3891111 -0.296950E-08  0.335E-05    3.78      48.0  T
     SCC iter.                  ...       21 min, 12.989 sec
     gradient                   ...        5 min,  9.207 sec
 * total energy  : -5104.1364700 Eh     change    :  -0.2225969E-02 Eh
   gradient norm :     0.0188459 Eh/a0  converged?    E=F G=F D=F
[...]
  3617   6 C     3618   6 C                                       1.3882310
  3618   6 C     3619   6 C                                       1.3851017
  3619   6 C     3620   6 C                                       1.3821672
  3620   6 C     3621   6 C                                       1.3834894
  3617   6 C     3622   6 C                                       1.3925137
  3621   6 C     3622   6 C                                       1.3820456
  3616   6 C     3623   6 C                                       1.5403371
  3625   6 C     3626   6 C                                       1.3900550
  3626   6 C     3627   6 C                                       1.3829032
  3627   6 C     3628   6 C                                       1.3842328
  3628   6 C     3629   6 C                                       1.3838171
  3625   6 C     3630   6 C                                       1.3898799
  3629   6 C     3630   6 C                                       1.3835067
  3624   6 C     3631   6 C                                       1.5366587
  3631   6 C     3632   6 C                                       1.5322679
  3633   6 C     3634   6 C                                       1.3881549
  3634   6 C     3635   6 C                                       1.3847921
  3635   6 C     3636   6 C                                       1.3837234
  3636   6 C     3637   6 C                                       1.3844690
  3633   6 C     3638   6 C                                       1.3909270
  3637   6 C     3638   6 C                                       1.3827924
  3632   6 C     3639   6 C                                       1.5404768
  3639   6 C     3640   6 C                                       1.5370838
  3641   6 C     3642   6 C                                       1.3905558
  3642   6 C     3643   6 C                                       1.3828717
  3643   6 C     3644   6 C                                       1.3842475
  3644   6 C     3645   6 C                                       1.3836534
  3641   6 C     3646   6 C                                       1.3898825
  3645   6 C     3646   6 C                                       1.3842144
  3640   6 C     3647   6 C                                       1.5332404
  3647   6 C     3648   6 C                                       1.5360369
  3649   6 C     3650   6 C                                       1.3905313
  3650   6 C     3651   6 C                                       1.3833656
  3651   6 C     3652   6 C                                       1.3846084
  3652   6 C     3653   6 C                                       1.3843756
  3649   6 C     3654   6 C                                       1.3899346
  3653   6 C     3654   6 C                                       1.3839382
  3648   6 C     3655   6 C                                       1.5362960
  3655   6 C     3656   6 C                                       1.5323158
  3657   6 C     3658   6 C                                       1.3890691
  3658   6 C     3659   6 C                                       1.3840671
  3659   6 C     3660   6 C                                       1.3841100
  3660   6 C     3661   6 C                                       1.3845551
  3657   6 C     3662   6 C                                       1.3904809
  3661   6 C     3662   6 C                                       1.3825036
  3656   6 C     3663   6 C                                       1.5405220
  3663   6 C     3664   6 C                                       1.5377714
  3665   6 C     3666   6 C                                       1.3900737
  3666   6 C     3667   6 C                                       1.3837212
  3667   6 C     3668   6 C                                       1.3842525
  3668   6 C     3669   6 C                                       1.3838765
  3665   6 C     3670   6 C                                       1.3894479
  3669   6 C     3670   6 C                                       1.3831744
  3664   6 C     3671   6 C                                       1.5333390
  3671   6 C     3672   6 C                                       1.5363790
  3673   6 C     3674   6 C                                       1.3909721
  3674   6 C     3675   6 C                                       1.3841726
  3675   6 C     3676   6 C                                       1.3850431
  3676   6 C     3677   6 C                                       1.3844016
  3673   6 C     3678   6 C                                       1.3902315
  3677   6 C     3678   6 C                                       1.3841070
  3672   6 C     3679   6 C                                       1.5364039
  3679   6 C     3680   6 C                                       1.5347102
  3681   6 C     3682   6 C                                       1.3897381
  3682   6 C     3683   6 C                                       1.3839448
  3683   6 C     3684   6 C                                       1.3842284
  3684   6 C     3685   6 C                                       1.3831631
  3681   6 C     3686   6 C                                       1.3898513
  3685   6 C     3686   6 C                                       1.3829668
  3680   6 C     3687   6 C                                       1.5394090
  3687   6 C     3688   6 C                                       1.5383463
  3549   6 C     3689   1 H                                       1.0962109
  3551   6 C     3690   1 H                                       1.0917320
  3551   6 C     3691   1 H                                       1.0907095
  3552   6 C     3692   1 H                                       1.0944689
  3559   6 C     3693   1 H                                       1.0928351
  3559   6 C     3694   1 H                                       1.0932071
  3560   6 C     3695   1 H                                       1.0946041
  3567   6 C     3696   1 H                                       1.0901276
  3567   6 C     3697   1 H                                       1.0895959
  3568   6 C     3698   1 H                                       1.0926235
  3575   6 C     3699   1 H                                       1.0917102
  3576   6 C     3700   1 H                                       1.0958017
  3583   6 C     3701   1 H                                       1.0888577
  3583   6 C     3702   1 H                                       1.0903745
  3584   6 C     3703   1 H                                       1.0940221
  3591   6 C     3704   1 H                                       1.0899326
  3591   6 C     3705   1 H                                       1.0911238
  3592   6 C     3706   1 H                                       1.0966649
  3599   6 C     3707   1 H                                       1.0930606
  3599   6 C     3708   1 H                                       1.0923829
  3600   6 C     3709   1 H                                       1.0922252
  3608   6 C     3710   1 H                                       1.0970037
  3615   6 C     3711   1 H                                       1.0897415
  3615   6 C     3712   1 H                                       1.0874730
  3616   6 C     3713   1 H                                       1.0960746
  3623   6 C     3714   1 H                                       1.0935305
  3623   6 C     3715   1 H                                       1.0916169
  3624   6 C     3716   1 H                                       1.0933927
  3631   6 C     3717   1 H                                       1.0916754
  3631   6 C     3718   1 H                                       1.0919343
  3632   6 C     3719   1 H                                       1.0949201
  3639   6 C     3720   1 H                                       1.0920916
  3639   6 C     3721   1 H                                       1.0922804
  3640   6 C     3722   1 H                                       1.0945371
  3647   6 C     3723   1 H                                       1.0920968
  3647   6 C     3724   1 H                                       1.0912800
  3648   6 C     3725   1 H                                       1.0957601
  3655   6 C     3726   1 H                                       1.0912504
  3655   6 C     3727   1 H                                       1.0906423
  3656   6 C     3728   1 H                                       1.0954952
  3663   6 C     3729   1 H                                       1.0930523
  3663   6 C     3730   1 H                                       1.0931706
  3664   6 C     3731   1 H                                       1.0926129
  3671   6 C     3732   1 H                                       1.0912593
  3671   6 C     3733   1 H                                       1.0924390
  3672   6 C     3734   1 H                                       1.0970876
  3679   6 C     3735   1 H                                       1.0916175
  3679   6 C     3736   1 H                                       1.0918046
  3543   6 C     3737   1 H                                       1.0804747
  3548   6 C     3738   1 H                                       1.0802212
  3547   6 C     3739   1 H                                       1.0800852
  3546   6 C     3740   1 H                                       1.0811165
  3545   6 C     3741   1 H                                       1.0819934
  3554   6 C     3742   1 H                                       1.0805050
  3555   6 C     3743   1 H                                       1.0809230
  3556   6 C     3744   1 H                                       1.0804798
  3557   6 C     3745   1 H                                       1.0801345
  3558   6 C     3746   1 H                                       1.0800281
  3562   6 C     3747   1 H                                       1.0809647
  3563   6 C     3748   1 H                                       1.0798112
  3564   6 C     3749   1 H                                       1.0805571
  3565   6 C     3750   1 H                                       1.0810369
  3566   6 C     3751   1 H                                       1.0818276
  3570   6 C     3752   1 H                                       1.0817866
  3571   6 C     3753   1 H                                       1.0814587
  3572   6 C     3754   1 H                                       1.0810503
  3573   6 C     3755   1 H                                       1.0810261
  3574   6 C     3756   1 H                                       1.0802644
  3575   6 C     3757   1 H                                       1.0938203
  3578   6 C     3758   1 H                                       1.0799069
  3579   6 C     3759   1 H                                       1.0802557
  3580   6 C     3760   1 H                                       1.0807353
  3581   6 C     3761   1 H                                       1.0824468
  3582   6 C     3762   1 H                                       1.0813527
  3586   6 C     3763   1 H                                       1.0802028
  3587   6 C     3764   1 H                                       1.0799880
  3588   6 C     3765   1 H                                       1.0807276
  3589   6 C     3766   1 H                                       1.0826388
  3590   6 C     3767   1 H                                       1.0819623
  3594   6 C     3768   1 H                                       1.0818040
  3595   6 C     3769   1 H                                       1.0793974
  3596   6 C     3770   1 H                                       1.0813765
  3597   6 C     3771   1 H                                       1.0815361
  3598   6 C     3772   1 H                                       1.0791201
  3602   6 C     3773   1 H                                       1.0809004
  3603   6 C     3774   1 H                                       1.0804924
  3604   6 C     3775   1 H                                       1.0803412
  3605   6 C     3776   1 H                                       1.0815053
  3606   6 C     3777   1 H                                       1.0815573
  3607   6 C     3778   1 H                                       1.0912326
  3607   6 C     3779   1 H                                       1.0920569
  3610   6 C     3780   1 H                                       1.0815527
  3611   6 C     3781   1 H                                       1.0810207
  3612   6 C     3782   1 H                                       1.0817835
  3613   6 C     3783   1 H                                       1.0807701
  3614   6 C     3784   1 H                                       1.0788275
  3618   6 C     3785   1 H                                       1.0819441
  3619   6 C     3786   1 H                                       1.0788105
  3620   6 C     3787   1 H                                       1.0799649
  3621   6 C     3788   1 H                                       1.0816348
  3622   6 C     3789   1 H                                       1.0812680
  3626   6 C     3790   1 H                                       1.0808747
  3627   6 C     3791   1 H                                       1.0821375
  3628   6 C     3792   1 H                                       1.0803443
  3629   6 C     3793   1 H                                       1.0803910
  3630   6 C     3794   1 H                                       1.0810701
  3634   6 C     3795   1 H                                       1.0817295
  3635   6 C     3796   1 H                                       1.0804107
  3636   6 C     3797   1 H                                       1.0786517
  3637   6 C     3798   1 H                                       1.0811797
  3638   6 C     3799   1 H                                       1.0798956
  3642   6 C     3800   1 H                                       1.0801605
  3643   6 C     3801   1 H                                       1.0805650
  3644   6 C     3802   1 H                                       1.0807673
  3645   6 C     3803   1 H                                       1.0823287
  3646   6 C     3804   1 H                                       1.0805894
  3650   6 C     3805   1 H                                       1.0797242
  3651   6 C     3806   1 H                                       1.0801158
  3652   6 C     3807   1 H                                       1.0813856
  3653   6 C     3808   1 H                                       1.0815730
  3654   6 C     3809   1 H                                       1.0815231
  3658   6 C     3810   1 H                                       1.0817880
  3659   6 C     3811   1 H                                       1.0812356
  3660   6 C     3812   1 H                                       1.0807804
  3661   6 C     3813   1 H                                       1.0809661
  3662   6 C     3814   1 H                                       1.0793804
  3666   6 C     3815   1 H                                       1.0809735
  3667   6 C     3816   1 H                                       1.0814645
  3668   6 C     3817   1 H                                       1.0795032
  3669   6 C     3818   1 H                                       1.0809510
  3670   6 C     3819   1 H                                       1.0805849
  3674   6 C     3820   1 H                                       1.0810680
  3675   6 C     3821   1 H                                       1.0819522
  3676   6 C     3822   1 H                                       1.0794028
  3677   6 C     3823   1 H                                       1.0808947
  3678   6 C     3824   1 H                                       1.0814200
  3686   6 C     3825   1 H                                       1.0810847
  3685   6 C     3826   1 H                                       1.0797445
  3684   6 C     3827   1 H                                       1.0800153
  3683   6 C     3828   1 H                                       1.0816686
  3682   6 C     3829   1 H                                       1.0809294
  3550   6 C     3830   1 H                                       1.0879024
  3550   6 C     3831   1 H                                       1.0881756
  3550   6 C     3832   1 H                                       1.0874984
  3680   6 C     3833   1 H                                       1.0915632
  3687   6 C     3834   1 H                                       1.0931759
  3687   6 C     3835   1 H                                       1.0921427
  3688   6 C     3836   6 C                                       1.5376154
  3837   6 C     3838   6 C                                       1.3903424
  3838   6 C     3839   6 C                                       1.3826179
  3839   6 C     3840   6 C                                       1.3845023
  3840   6 C     3841   6 C                                       1.3830688
  3837   6 C     3842   6 C                                       1.3881018
  3841   6 C     3842   6 C                                       1.3833476
  3838   6 C     3843   1 H                                       1.0805611
  3839   6 C     3844   1 H                                       1.0814164
  3840   6 C     3845   1 H                                       1.0806348
  3841   6 C     3846   1 H                                       1.0808791
  3842   6 C     3847   1 H                                       1.0805401
  3836   6 C     3848   6 C                                       1.5305961
  3836   6 C     3849   1 H                                       1.0939653
  3836   6 C     3850   1 H                                       1.0916560
  3851   6 C     3852   6 C                                       1.3892549
  3852   6 C     3853   6 C                                       1.3848209
  3853   6 C     3854   6 C                                       1.3836719
  3854   6 C     3855   6 C                                       1.3844687
  3851   6 C     3856   6 C                                       1.3902193
  3855   6 C     3856   6 C                                       1.3837203
  3852   6 C     3857   1 H                                       1.0815192
  3853   6 C     3858   1 H                                       1.0808946
  3854   6 C     3859   1 H                                       1.0804386
  3855   6 C     3860   1 H                                       1.0810849
  3856   6 C     3861   1 H                                       1.0807910
  3688   6 C     3862   1 H                                       1.0954753
  3848   6 C     3863   1 H                                       1.0940516
  3848   6 C     3864   1 H                                       1.0933599

 * 2 distinct bonds (by element types)

   Z      Z             #   av. dist./Å        max./Å        min./Å
   1 H    6 C        1944     1.0852761     1.0974906     1.0773865
   6 C    6 C        1853     1.4191950     1.5406429     1.3808350


optimized geometry written to: xtbopt.xyz


           -------------------------------------------------
          | TOTAL ENERGY            -5104.241797218764 Eh   |
          | GRADIENT NORM               0.000812831819 Eh/α |
          | HOMO-LUMO GAP               3.714757819694 eV   |
           -------------------------------------------------

------------------------------------------------------------------------
 * finished run on 2024/07/26 at 00:29:00.443     
------------------------------------------------------------------------
 total:
 * wall-time:    14 d, 15 h, 54 min,  1.103 sec
 *  cpu-time:    93 d, 13 h, 54 min, 37.260 sec
 * ratio c/w:     6.382 speedup
 SCF:
 * wall-time:     0 d,  0 h, 16 min, 30.258 sec
 *  cpu-time:     0 d,  1 h, 44 min,  1.176 sec
 * ratio c/w:     6.303 speedup
 ANC optimizer:
 * wall-time:    14 d, 15 h, 36 min, 20.303 sec
 *  cpu-time:    93 d, 12 h,  9 min,  4.016 sec
 * ratio c/w:     6.383 speedup

