3258
 energy: -3427.515713384846 gnorm: 0.000987024104 xtb: 6.6.1 (8d0f1dd)
C          128.33302047442518      111.53063231504100      121.62126990503766
C          128.05097880482305      110.03915926899369      121.75468851910388
C          126.64848431791721      109.77071382153844      122.29509910005012
C          126.34183441904688      108.27763252752776      122.38660774055019
C          124.90404808246794      108.01730554768790      122.82693727807666
C          124.53749869750682      106.53517352869598      122.78871659433449
C          123.05718530234958      106.31501181371974      123.09330062668410
C          122.61703785702173      104.86601391900165      122.89275571189194
C          121.09947583822685      104.72787207021553      123.00497758440849
C          120.57659772232547      103.30761892255587      122.77750493497551
C          120.98449826611109      102.67810818616084      121.44351328414938
C          120.61599741625660      103.51702895987039      120.22215491112995
C          121.06588510499597      102.84601578965506      118.92710758979868
C          120.92240770138423      103.76225987173611      117.71425325343938
C          121.52463594643645      103.13098318802339      116.46404514853710
C          121.44844182311357      104.02504362505047      115.22906965825777
C          122.23718036584988      103.40149809269700      114.08165251512564
C          122.08794850364475      104.14943454283697      112.75983782146561
C          123.08185449946392      103.67172897363476      111.69763951428378
C          123.03114906843612      102.16133119109944      111.49075512780163
C          123.91992403916872      101.66475025853124      110.35521375719142
C          123.89283787289155      100.13901634394658      110.28227992199430
C          124.72897924461623       99.58227190779756      109.13469587178362
C          124.70774410784166       98.05520707812224      109.11239393283874
C          125.44544673443363       97.45160097227939      107.91488064179801
C          124.76074899657067       97.68628063686674      106.56691989040293
C          123.44575037149909       96.92591786781497      106.41422992660775
C          122.71126418514831       97.30612979741605      105.13082595578403
C          121.36206926219872       96.59884568570513      105.02803129165328
C          120.51871684196074       97.05253561201542      103.83620701249941
C          120.08131407919277       98.51365673264468      103.93911269103445
C          118.91317735087843       98.83331640590220      103.01028954843007
C          118.43746328265978      100.27450984462901      103.17823784804349
C          117.12362887401498      100.55814752360607      102.45391699425980
C          116.64314034182389      102.00337835944691      102.61263581701139
C          116.50564754979324      102.47930738548395      104.06093502459389
C          115.50231800125725      101.67121392731087      104.87912440524619
C          115.54905273153366      102.01052675435616      106.36703940321358
C          114.54589878759009      101.17450838168685      107.15837814144723
C          114.70141691437411      101.32358705723041      108.67027855746517
C          113.75218580812576      100.38631052318206      109.41490164964434
C          114.03405412394916      100.26997747049991      110.91277693176886
C          113.68554097899782      101.52347466665356      111.71174391067912
C          113.79845533455087      101.27457201441752      113.21444822861388
C          113.39937233215198      102.49392481679114      114.04051855364405
C          113.40128348013722      102.20318347805264      115.53978784936402
C          113.05441881675677      103.44227995442220      116.36021540399885
C          113.02986154077439      103.18328640190890      117.86446350933063
C          112.77681248029974      104.47465920268704      118.63658952167614
C          112.78297602606196      104.29629775344972      120.15234996162241
C          112.53361618631911      105.63230166683250      120.84688612051120
C          112.61660392753056      105.55793969940322      122.36920569528529
C          112.32954804100454      106.92211567003866      122.98942469421365
C          112.33407682222023      106.91929418916177      124.51546857164708
C          111.98532886106696      108.30480731834291      125.05358157615737
C          111.96847334479754      108.37167366950938      126.57788088431423
C          111.47493395755026      109.72088905453799      127.10502259713782
C          112.41917781903587      110.87764706683110      126.78283636411231
C          111.91459148952627      112.19959522951979      127.35579141210214
C          112.84400993045516      113.37907168237969      127.06505893226232
C          112.92651488660378      113.72355908747187      125.57943656959401
C          113.63260984350654      115.05513861478870      125.33136644321964
C          113.71092343356457      115.38782898269072      123.84254315023095
C          114.26333801859246      116.78739080802875      123.58001446902136
C          114.21810245525511      117.14376510392485      122.09657134735127
C          114.68409707899079      118.57148619650438      121.81995910950056
C          114.73471582211184      118.85594844246839      120.32105410163912
C          115.07038579515900      120.31240599948684      120.00347497708607
C          115.50442318920113      120.51007937887182      118.55103725202618
C          114.43106438615411      120.14964351674519      117.52889991373806
C          114.91329011710255      120.36304624936129      116.09448198935551
C          113.91930459362339      119.80608576904329      115.07941315055946
C          114.41509697180609      119.91167443523787      113.63885431441024
C          113.29197951388318      119.74304699704624      112.61257315137665
C          112.44993423111138      118.48490420321878      112.81903487245647
C          111.45345180152157      118.27166779915134      111.68269655375943
C          110.54019118133337      117.07134291699001      111.92445111645790
C          109.58665698098359      116.85584984517702      110.75186705578872
C          108.79848852815890      115.54907275050297      110.82380236640147
C          107.67750793928518      115.52239251152653      111.85965440089628
C          106.87805929496851      114.22554469653589      111.73980228555533
C          105.75243233135497      114.11641705444309      112.76478550949939
C          104.79894636328504      112.95044917228111      112.49359920140706
C          105.49613285659420      111.59474676073653      112.40856505788567
C          104.50136067631117      110.44090903053109      112.30745948575999
C          105.20638104267923      109.10554872493218      112.08416564990888
C          104.23195975922248      107.94007608452731      111.93897016476244
C          104.94296668870986      106.65422823789517      111.52367689991463
C          103.96976005917753      105.48797499793446      111.36504181275542
C          104.57884468041728      104.27236888962358      110.66537075164095
C          105.66576433246458      103.59538315593682      111.49683670556963
C          106.18524506523758      102.29009470724461      110.89142855921060
C          106.87622378376173      102.49293379139422      109.54611900398099
C          107.66432056602493      101.26935086768219      109.08107075390375
C          108.38167326868469      101.56859358688996      107.76823348003055
C          109.25746232617671      100.43575640792562      107.24279173481483
C          109.96239649551119      100.87650937062877      105.96191654071647
C          110.92964044717921       99.84040812323271      105.39770797063542
C          111.53955782737761      100.33110931453832      104.08659758125884
C          112.43002813838126       99.28398916202001      103.42500379957332
C          113.16839212028407       99.80967932773622      102.19441338040714
C          112.24379274991421      100.20438439628991      101.04564397807182
C          113.03473923330769      100.68866094394448       99.83383875059613
C          112.16011359021081      100.96977397935031       98.61316946479270
C          111.23976660469192      102.17655651391408       98.78018303096718
C          110.49459502774634      102.48132621869017       97.48323316532851
C          109.51174039019199      103.63969868589602       97.63493950466572
C          108.86851302698541      104.05926177771832       96.31209949636280
C          107.93028604675305      102.99822754611323       95.74343296545661
C          107.32430789526714      103.37939424952258       94.39167939906319
C          106.33413696478611      104.54091118946204       94.45933403211004
C          105.60539770772509      104.73043606650302       93.12960867017277
C          104.54383975219794      105.83162021542617       93.17433590599758
C          105.12616092363332      107.23929955379811       93.07831220314233
C          104.03799316515607      108.30834551380428       93.14685955583431
C          104.60556207963157      109.72433929644565       93.08565615687002
C          103.50269845108791      110.77630547277869       92.98691678358412
C          104.06400642054793      112.19562987397543       92.97894305830526
C          102.99050105100287      113.24966505441796       92.72320347752373
C          103.56894824440378      114.65853809189034       92.77067792243950
H          102.53584314048162      113.07554239862915       91.74538019242216
H          102.20161122216740      113.15213812194193       93.47325226972202
H          104.53930121730546      112.39849314556716       93.94040587714125
H          104.83185113334881      112.27554671955012       92.20518822344192
H          102.93003234614534      110.60840586322497       92.07145747733705
H          102.81645441352154      110.66287445987581       93.82985620293617
H          105.21028477938968      109.91225216536954       93.97624772130339
H          105.26251919421999      109.81275232526659       92.21683289990648
H          103.34231494484304      108.16317313618363       92.31680687089728
H          103.46991226209936      108.19178393520032       94.07309238092186
H          105.83963376336547      107.39822016245401       93.88820531997301
H          105.67179661066987      107.34037044954876       92.13710838219116
H          103.84533918125872      105.68839611527879       92.34620558327450
H          103.97622205339287      105.74081704362479       94.10391276583324
H          106.33061090017164      104.95714421869216       92.34464058826691
H          105.12294137590486      103.78639273659047       92.86233944451700
H          105.59761445736424      104.33866836626831       95.24142840690814
H          106.85842707829259      105.45900200605479       94.72536998275170
H          108.12747583937860      103.62837932912437       93.69377885473637
H          106.80357900133788      102.50546702134982       93.98953312089195
H          108.48114121357453      102.06487876525425       95.61453827901656
H          107.12816858647294      102.81267977037461       96.46178300297829
H          108.30413432074762      104.97863158049201       96.47647107870260
H          109.65336861414629      104.27800392796284       95.58447878677505
H          108.72921503822532      103.36104054664398       98.34485719772775
H          110.04456451162544      104.49749367613586       98.05513989610114
H          111.21884605657183      102.72530940580633       96.70252822048954
H          109.95997391570927      101.58279031036905       97.17019347286629
H          110.51534633685705      101.98591036129609       99.57399142068658
H          111.82849762750514      103.04831405005439       99.07640182634418
H          112.80697936422509      101.14414317572128       97.75009421808572
H          111.55770750424344      100.08542678354887       98.39588345257597
H          113.59077542631150      101.59116764947746      100.10266753771251
H          113.76739633202845       99.92195259892671       99.56727908965250
H          111.63524689615168       99.34429155728957      100.75750272852265
H          111.57309182625697      100.99838530955535      101.37397840429007
H          113.77024654677696      100.67413274754968      102.48217378531930
H          113.85681601176559       99.03668422454123      101.84251555037750
H          113.17028455528160       98.94271774323552      104.15285489154954
H          111.81871233978370       98.42398129355458      103.14056116370179
H          110.72978467802467      100.60489932658216      103.40843803504781
H          112.12685534200489      101.23201016061724      104.28092069024919
H          111.72375988457374       99.64532573597894      106.12243980587537
H          110.40311166521039       98.89892099149316      105.22506906132448
H          109.20681819329960      101.10573738840819      105.20585357939160
H          110.51440474509961      101.79882438946284      106.16134313318244
H          109.99946828479808      100.16489658732810      107.99659206307616
H          108.64464109538002       99.55395535240011      107.04256324781386
H          107.64250507620353      101.82778356930316      107.00620848673954
H          109.01899315691639      102.44220333211119      107.91884014096756
H          108.40140904875946      101.00490872356367      109.84295710927474
H          106.99242771731474      100.41659961219327      108.95677491273014
H          106.13312903620984      102.74554352082345      108.78779282109345
H          107.56386328231372      103.33806548143014      109.62918170519397
H          106.89520550360891      101.84215266531719      111.59259961569033
H          105.35953772171564      101.58562996696359      110.77197523386944
H          106.50501660356218      104.28205390571898      111.62490574365235
H          105.25881679640563      103.38443107743070      112.48790845547147
H          103.78310505822601      103.55028122431956      110.46784397393579
H          104.98811559824149      104.58618500734144      109.70291518417616
H          103.59506704440591      105.19008891965157      112.34727597230130
H          103.11450647469501      105.83009216698112      110.77977076195427
H          105.45051690945502      106.82707012761681      110.57179004106415
H          105.70015369788571      106.40769278151863      112.26985340293416
H          103.70862371031377      107.77954473019551      112.88421179689749
H          103.47969160234362      108.19117467596658      111.18783430582039
H          105.81292270084526      109.17286760727870      111.17913143847150
H          105.88259680283447      108.91081596766222      112.91814550678289
H          103.90244178227114      110.39165384351888      113.21914623462413
H          103.81376810816587      110.63199333900432      111.47870840877603
H          106.14122076411913      111.57434470606076      111.52821845741983
H          106.12956471185917      111.45160894959035      113.28572737968426
H          104.05312335705386      112.91853672692952      113.29228015934079
H          104.26293266170852      113.13257379377013      111.55850731320517
H          106.18577458792167      114.00663691104243      113.76172441309973
H          105.17209711593972      115.04332282074253      112.75268797322069
H          106.45015082901091      114.16879493377483      110.73557469840046
H          107.56074022716078      113.38220547467412      111.86172055114420
H          108.09004924324890      115.60729201453725      112.86666771552274
H          107.01329622587153      116.37374406913594      111.69480528692849
H          108.35423270915518      115.36648132037458      109.84280442521255
H          109.48897021190240      114.72794154802584      111.03293448108359
H          108.89270221686330      117.69677831424532      110.69208780359813
H          110.17315105247565      116.84786322980081      109.82887989766775
H          111.15344558485039      116.17752125384625      112.06082602484733
H          109.97129699548148      117.22567177454748      112.84363784763138
H          110.84123771931810      119.16939979217700      111.56599993220080
H          111.99706152084676      118.12447487999442      110.74523597186121
H          113.10508478615604      117.61476411258650      112.88761943387610
H          111.90174727305410      118.56141276108232      113.75994071192876
H          112.63445951434124      120.61615528366831      112.65354523218789
H          113.73549975535686      119.71585229217220      111.61458246881620
H          114.87491441930263      120.89227338618704      113.48951310889480
H          115.18938772758823      119.16087187870100      113.46292473837215
H          113.72023074497088      118.75990445473528      115.32030082936360
H          112.98102835126672      120.35160221772216      115.16757130787967
H          115.06496707927658      121.42969868876547      115.91184456495212
H          115.87936648364557      119.86766556977686      115.96402226324368
H          114.15223334853074      119.10184930476308      117.65033246356354
H          113.53864727718928      120.75332417476751      117.71074762389142
H          115.79780331260937      121.55191452269455      118.40128702822017
H          116.38550813533182      119.89228254041426      118.36754967882001
H          114.20852707779808      120.94637525352933      120.22362613860733
H          115.88861699565341      120.63471029581054      120.65268083502943
H          115.49382308809561      118.21165041278297      119.87106876644357
H          113.77017381581967      118.59583902983196      119.87986120640382
H          114.00601065083042      119.27764822314099      122.30499249820650
H          115.67768670913948      118.71920281493752      122.25014654220996
H          114.84764551333477      116.44612947766304      121.53979661834228
H          113.19476736689748      117.02436486414481      121.73017010498987
H          113.67960386166841      117.51948469866116      124.14329103269768
H          115.29324882726584      116.84891239690828      123.93805157176320
H          114.33767451825686      114.64981656907304      123.33506935107773
H          112.70967453627570      115.31588845253032      123.40857522747896
H          113.08848108779709      115.84961236511653      125.84787971129538
H          114.64011593595841      115.02128864084756      125.75327004922515
H          113.45361104371079      112.93270694825507      125.04308261509759
H          111.91381114052872      113.77804849129460      125.17488338251106
H          112.47272061447414      114.25363580909722      127.60573103927283
H          113.84387393189738      113.15721245479661      127.44501557835653
H          110.92628692552417      112.41372160854885      126.94179956645738
H          111.80311265536386      112.09721998292657      128.43834470976552
H          113.40790006985148      110.66142977099324      127.19438163512623
H          112.51731071245474      110.97510736728972      125.70209401672972
H          110.49009638338761      109.93190762868861      126.68036342324999
H          111.35746339540185      109.65376038502436      128.18961932750639
H          111.31046220121596      107.58539661961242      126.95654143888022
H          112.97190309672624      108.17533258528780      126.96295621241553
H          112.71310228514449      109.01871361831100      124.66378417878077
H          110.99971402158776      108.59234227481890      124.67805677942356
H          111.60808175236001      106.19030362914337      124.88144468398434
H          113.31893975608767      106.62002525002046      124.88142373896008
H          113.07026649486112      107.64241487444143      122.63205110050198
H          111.35206623113321      107.26571264326449      122.64172879983690
H          111.89212708437977      104.83107997438108      122.74326019556501
H          113.60998354673504      105.21747427380086      122.66863938630117
H          113.26867824699403      106.35684693700955      120.48847054458257
H          111.54669343511539      106.00351126601549      120.56012553373751
H          112.01128743444053      103.57906007118318      120.44177979676095
H          113.74722531953641      103.89380517729369      120.47306345910125
H          113.54459373172828      105.20219511788906      118.36716022421274
H          111.81260458915270      104.88941246744905      118.33529202143126
H          112.25106759250750      102.45480284129823      118.09566382359507
H          113.98639594776729      102.75707495840975      118.17737947966924
H          113.78217591338573      104.22785039554128      116.14692915192715
H          112.07490064709812      103.81581952297272      116.05285186816033
H          112.68006702359671      101.41225937781029      115.75336931290454
H          114.38840357157230      101.83842833049536      115.83293131352805
H          114.08905909599271      103.31477340055940      113.82826427358469
H          112.40202078359675      102.82493278173702      113.73970961155452
H          113.15556940106650      100.43373961507228      113.48569810998337
H          114.82598409829566      100.99577932379148      113.45785753467500
H          114.34629837330142      102.34375680968647      111.42636142429656
H          112.66152708178717      101.82496873646525      111.47692161045130
H          113.44850162334011       99.43594774754752      111.30823391092528
H          115.08928147982054      100.02692046701935      111.06099072026336
H          112.72193116751934      100.71980047144898      109.26434938346337
H          113.84096379999760       99.38890281959935      108.97437661014567
H          115.73085383880989      101.08439119711690      108.94695084125804
H          114.51081293101113      102.35863652793273      108.95964902456149
H          113.53116926203870      101.45354715092301      106.86587531666089
H          114.68227632512958      100.12217167458678      106.89656214301364
H          116.55596063171538      101.81357367046384      106.74599465858303
H          115.34305965029139      103.07328109988896      106.51153420166366
H          114.49604622224379      101.85165683292458      104.49657703407510
H          115.71086144994969      100.60657134555589      104.76585022284095
H          117.48150778476716      102.43952768109656      104.54841356246892
H          116.19649513715423      103.52696281956247      104.05226902764420
H          117.34587609806267      102.66295882139501      102.09794213739487
H          115.67731083151756      102.10420025690303      102.11095486192293
H          117.24754195373526      100.35842705440635      101.38681845147944
H          116.35348621226754       99.87697803257197      102.82109602718258
H          118.30828644408061      100.45985267781316      104.24554204971099
H          119.20340708260137      100.95977144626910      102.81081225163929
H          119.20807872928506       98.65131098802763      101.97438867285655
H          118.09015051284980       98.15624654297453      103.24819097171881
H          119.77730806312483       98.72415284185699      104.96800865937283
H          120.91939577350590       99.16975747514763      103.69879187310107
H          121.07581168541289       96.89988807283071      102.90952802507209
H          119.62639916566589       96.42226705141695      103.78937556883260
H          121.53173981205659       95.52170325909545      104.95556996617680
H          120.79624062671343       96.77855076596175      105.94649909713327
H          122.55811839909589       98.38641694627961      105.12596439666916
H          123.32448909131220       97.05469826841242      104.26261402236855
H          123.64160270286897       95.85107923021499      106.42319035567304
H          122.79372492880042       97.14884407186064      107.26071987821467
H          124.57176289441411       98.75224715240523      106.43481822415642
H          125.44215453058860       97.37869946629225      105.77005031866879
H          126.45271944936120       97.87457286722776      107.87641157235267
H          125.54743207786728       96.37495566040546      108.07186222456984
H          125.17541961389243       97.68713576301515      110.02922280671535
H          123.67230279762288       97.71037508177800      109.11965229396144
H          124.33663678373796       99.97385236405636      108.19462068035929
H          125.76134723697140       99.92615830218699      109.23536154995290
H          124.25843944667983       99.73014199551416      111.22768898380433
H          122.85863500454936       99.80501490907979      110.16146153055726
H          123.58362341498461      102.08785803495751      109.40546123586014
H          124.94489210665265      102.00220643680385      110.52249299443631
H          123.34992129162208      101.66248792186325      112.40697517636040
H          121.99753318153931      101.86942255753667      111.29058253274903
H          122.86195940107778      104.17386746590816      110.75233387108499
H          124.09373534565495      103.95756039499665      111.99464708220940
H          121.06870081369362      104.01886991418731      112.39004593422504
H          122.24216041916092      105.21674407517153      112.93267364437139
H          123.29398854281065      103.36906949961430      114.35663022715001
H          121.89016740912560      102.37506118102007      113.95540764171304
H          120.40622754215777      104.15505671127920      114.93173932735348
H          121.85140761079869      105.01326281903778      115.46225193280328
H          122.57436166181834      102.89713715709578      116.65908285544317
H          121.01778372534591      102.18614374730028      116.25350567275588
H          119.86744310946546      103.98398913747516      117.54082265338054
H          121.43026878824027      104.70748396132609      117.91965605872349
H          122.11580629597040      102.56111175415320      119.02798663282036
H          120.49239020184055      101.93063448104191      118.76546723227533
H          119.53610266565468      103.68071236206509      120.20088321076605
H          121.10078868181236      104.49163048034626      120.28902200468488
H          122.06215054278788      102.50160921452475      121.44132318062285
H          120.50008902555876      101.70150708286674      121.36292976647140
H          120.93486883955524      102.66256426507660      123.58362910007327
H          119.48531243123708      103.33326933185897      122.83831190475394
H          120.78731644139769      105.05214215441286      124.00145747210352
H          120.63000847227489      105.40064005110288      122.28491694774490
H          122.94069068917014      104.53996323709971      121.90306556528877
H          123.10267154422034      104.22278563962215      123.62979796499322
H          122.84413135490254      106.62656361853115      124.11860867575176
H          122.46862766832531      106.95035603416483      122.42871271521277
H          124.75997587628112      106.14152943371182      121.79370937241579
H          125.15103811528198      105.98371209790410      123.50443419030934
H          124.75242628802273      108.40711288598875      123.83611600784124
H          124.23159885172680      108.56385808333448      122.16122237823349
H          126.50142317803034      107.82092795059876      121.40669611560565
H          127.03381650291043      107.80320874735324      123.08611613857722
H          126.54763756688170      110.22460526071848      123.28387341737574
H          125.91568087647696      110.24733923388148      121.63868654536198
H          128.15729171091965      109.56322822828754      120.77642908892889
H          128.78847436387585      109.58737313837608      122.42193221471247
H          127.62408806144035      111.99310494237889      120.93746575563084
H          128.24683267764735      112.02374831811660      122.58714448930135
H          129.33695842570111      111.69876997426877      121.23835986676953
H          104.00519771492174      114.85733443213077       93.74737022559192
H          104.34834823526263      114.77629226045934       92.02066917645674
H          102.79471089386348      115.39866057845509       92.57987873669606
C          110.86692980212064      126.54107901612183      117.72460986306162
C          111.56560400602696      125.39858714346310      118.45190649021693
C          110.56973678386454      124.40926471012197      119.05162312299120
C          111.26862068459279      123.26094019680293      119.77495076274468
C          110.27862384756813      122.28380968694239      120.40467148902975
C          110.98237596577681      121.22382164001344      121.24765307176176
C          110.00461111701956      120.24891144481063      121.90130910437011
C          110.70109745549058      119.37372345231981      122.94028100853220
C          109.75960266514680      118.36465798689260      123.59350163381772
C          110.43789050896414      117.64587406657647      124.75695377469161
C          109.55386639172841      116.60490258814635      125.44354207201448
C          109.32768002334639      115.35033601825160      124.60232251191216
C          108.60470437604614      114.26537550359950      125.39686819759353
C          108.50693699918882      112.94320103652674      124.63823936311904
C          107.73131861729942      111.89843562494802      125.43670518397266
C          107.62065370933912      110.55370261032884      124.72041893813852
C          106.78423083319552      109.57137847536450      125.53879162516604
C          106.56139044897392      108.21874088496953      124.86258254904962
C          107.82023941861549      107.35788274540127      124.77589548726760
C          107.49486331682020      105.93616082465640      124.32190509248304
C          108.74375757605591      105.07084172692159      124.17599258411649