      -----------------------------------------------------------      
     |                   =====================                   |     
     |                           x T B                           |     
     |                   =====================                   |     
     |                         S. Grimme                         |     
     |          Mulliken Center for Theoretical Chemistry        |     
     |                    University of Bonn                     |     
      -----------------------------------------------------------      

   * xtb version 6.6.1 (8d0f1dd) compiled by 'stahn@M-Bot' on 2023-08-01

   xtb is free software: you can redistribute it and/or modify it under
   the terms of the GNU Lesser General Public License as published by
   the Free Software Foundation, either version 3 of the License, or
   (at your option) any later version.
   
   xtb is distributed in the hope that it will be useful,
   but WITHOUT ANY WARRANTY; without even the implied warranty of
   MERCHANTABILITY or FITNESS FOR A PARTICULAR PURPOSE.  See the
   GNU Lesser General Public License for more details.
   
   Cite this work as:
   * C. Bannwarth, E. Caldeweyher, S. Ehlert, A. Hansen, P. Pracht,
     J. Seibert, S. Spicher, S. Grimme, WIREs Comput. Mol. Sci., 2020, 11,
     e01493. DOI: 10.1002/wcms.1493
   
   for GFN2-xTB:
   * C. Bannwarth, S. Ehlert and S. Grimme., J. Chem. Theory Comput., 2019,
     15, 1652-1671. DOI: 10.1021/acs.jctc.8b01176
   for GFN1-xTB:
   * S. Grimme, C. Bannwarth, P. Shushkov, J. Chem. Theory Comput., 2017,
     13, 1989-2009. DOI: 10.1021/acs.jctc.7b00118
   for GFN0-xTB:
   * P. Pracht, E. Caldeweyher, S. Ehlert, S. Grimme, ChemRxiv, 2019, preprint.
     DOI: 10.26434/chemrxiv.8326202.v1
   for GFN-FF:
   * S. Spicher and S. Grimme, Angew. Chem. Int. Ed., 2020, 59, 15665-15673.
     DOI: 10.1002/anie.202004239
   
   for ALPB and GBSA implicit solvation:
   * S. Ehlert, M. Stahn, S. Spicher, S. Grimme, J. Chem. Theory Comput.,
     2021, 17, 4250-4261. DOI: 10.1021/acs.jctc.1c00471
   
   for DFT-D4:
   * E. Caldeweyher, C. Bannwarth and S. Grimme, J. Chem. Phys., 2017,
     147, 034112. DOI: 10.1063/1.4993215
   * E. Caldeweyher, S. Ehlert, A. Hansen, H. Neugebauer, S. Spicher,
     C. Bannwarth and S. Grimme, J. Chem. Phys., 2019, 150, 154122.
     DOI: 10.1063/1.5090222
   * E. Caldeweyher, J.-M. Mewes, S. Ehlert and S. Grimme, Phys. Chem. Chem. Phys.
     2020, 22, 8499-8512. DOI: 10.1039/D0CP00502A
   
   for sTDA-xTB:
   * S. Grimme and C. Bannwarth, J. Chem. Phys., 2016, 145, 054103.
     DOI: 10.1063/1.4959605
   
   in the mass-spec context:
   * V. Asgeirsson, C. Bauer and S. Grimme, Chem. Sci., 2017, 8, 4879.
     DOI: 10.1039/c7sc00601b
   * J. Koopman and S. Grimme, ACS Omega 2019, 4, 12, 15120-15133.
     DOI: 10.1021/acsomega.9b02011
   
   for metadynamics refer to:
   * S. Grimme, J. Chem. Theory Comput., 2019, 155, 2847-2862
     DOI: 10.1021/acs.jctc.9b00143
   
   for SPH calculations refer to:
   * S. Spicher and S. Grimme, J. Chem. Theory Comput., 2021, 17, 1701-1714
     DOI: 10.1021/acs.jctc.0c01306
   
   with help from (in alphabetical order)
   P. Atkinson, C. Bannwarth, F. Bohle, G. Brandenburg, E. Caldeweyher
   M. Checinski, S. Dohm, S. Ehlert, S. Ehrlich, I. Gerasimov, C. Hölzer
   A. Katbashev, J. Koopman, C. Lavigne, S. Lehtola, F. März, M. Müller,
   F. Musil, H. Neugebauer, J. Pisarek, C. Plett, P. Pracht, F. Pultar,
   J. Seibert, P. Shushkov, S. Spicher, M. Stahn, M. Steiner, T. Strunk,
   J. Stückrath, T. Rose, and J. Unsleber
   
 * started run on 2024/10/04 at 03:04:10.123     

           -------------------------------------------------
          |                Calculation Setup                |
           -------------------------------------------------

          program call               : /home/abt-grimme/AK-bin/xtb input.xyz --input input.inp --opt
          hostname                   : boar013.thch.uni-bonn.de
          coordinate file            : input.xyz
          omp threads                :                     8

   ID    Z sym.   atoms
    1    6 C      1-120, 363-482, 725-844, 1087-1206, 1449-1568, 1811-1930,
                  2173-2292, 2535-2654, 2897-3016
    2    1 H      121-362, 483-724, 845-1086, 1207-1448, 1569-1810,
                  1931-2172, 2293-2534, 2655-2896, 3017-3258

molecular fragmentation (1/2 indicates fragments):
111111111111111111111111111111111111111111111111111111111111111111111111
111111111111111111111111111111111111111111111111111111111111111111111111
111111111111111111111111111111111111111111111111111111111111111111111111
111111111111111111111111111111111111111111111111111111111111111111111111
111111111111111111111111111111111111111111111111111111111111111111111111
112222222222222222222222222222222222222222222222222222222222222222222222
222222222222222222222222222222222222222222222222222222222222222222222222
222222222222222222222222222222222222222222222222222222222222222222222222
222222222222222222222222222222222222222222222222222222222222222222222222
222222222222222222222222222222222222222222222222222222222222222222222222
222222222222222222222222222222222222222222222222222222222222222222222222
222222222222222222222222222222222222222222222222222222222222222222222222
222222222222222222222222222222222222222222222222222222222222222222222222
222222222222222222222222222222222222222222222222222222222222222222222222
222222222222222222222222222222222222222222222222222222222222222222222222
222222222222222222222222222222222222222222222222222222222222222222222222
222222222222222222222222222222222222222222222222222222222222222222222222
222222222222222222222222222222222222222222222222222222222222222222222222
222222222222222222222222222222222222222222222222222222222222222222222222
222222222222222222222222222222222222222222222222222222222222222222222222
222222222222222222222222222222222222222222222222222222222222222222222222
222222222222222222222222222222222222222222222222222222222222222222222222
222222222222222222222222222222222222222222222222222222222222222222222222
222222222222222222222222222222222222222222222222222222222222222222222222
222222222222222222222222222222222222222222222222222222222222222222222222
222222222222222222222222222222222222222222222222222222222222222222222222
222222222222222222222222222222222222222222222222222222222222222222222222
222222222222222222222222222222222222222222222222222222222222222222222222
222222222222222222222222222222222222222222222222222222222222222222222222
222222222222222222222222222222222222222222222222222222222222222222222222
222222222222222222222222222222222222222222222222222222222222222222222222
222222222222222222222222222222222222222222222222222222222222222222222222
222222222222222222222222222222222222222222222222222222222222222222222222
222222222222222222222222222222222222222222222222222222222222222222222222
222222222222222222222222222222222222222222222222222222222222222222222222
222222222222222222222222222222222222222222222222222222222222222222222222
222222222222222222222222222222222222222222222222222222222222222222222222
222222222222222222222222222222222222222222222222222222222222222222222222
222222222222222222222222222222222222222222222222222222222222222222222222
222222222222222222222222222222222222222222222222222222222222222222222222
222222222222222222222222222222222222222222222222222222222222222222222222
222222222222222222222222222222222222222222222222222222222222222222222222
222222222222222222222222222222222222222222222222222222222222222222222222
222222222222222222222222222222222222222222222222222222222222222222222222
222222222222222222222222222222222222222222222222222222222222222222222222
222222222222222222
# atoms in fragment 1/2:   362  2896
 fragment masses (1/2) :     1685.21    13481.68
CMA distance (Bohr)    :  12.182
constraining FC (au)   :  0.0500

           -------------------------------------------------
          |                 G F N 2 - x T B                 |
           -------------------------------------------------

        Reference                      10.1021/acs.jctc.8b01176
      * Hamiltonian:
        H0-scaling (s, p, d)           1.850000    2.230000    2.230000
        zeta-weighting                 0.500000
      * Dispersion:
        s8                             2.700000
        a1                             0.520000
        a2                             5.000000
        s9                             5.000000
      * Repulsion:
        kExp                           1.500000    1.000000
        rExp                           1.000000
      * Coulomb:
        alpha                          2.000000
        third order                    shell-resolved
        anisotropic                    true
        a3                             3.000000
        a5                             4.000000
        cn-shift                       1.200000
        cn-exp                         4.000000
        max-rad                        5.000000


          ...................................................
          :                      SETUP                      :
          :.................................................:
          :  # basis functions                6498          :
          :  # atomic orbitals                6498          :
          :  # shells                         4338          :
          :  # electrons                      6498          :
          :  max. iterations                   250          :
          :  Hamiltonian                  GFN2-xTB          :
          :  restarted?                      false          :
          :  GBSA solvation                  false          :
          :  PC potential                    false          :
          :  electronic temp.          300.0000000     K    :
          :  accuracy                    1.0000000          :
          :  -> integral cutoff          0.2500000E+02      :
          :  -> integral neglect         0.1000000E-07      :
          :  -> SCF convergence          0.1000000E-05 Eh   :
          :  -> wf. convergence          0.1000000E-03 e    :
          :  Broyden damping             0.4000000          :
          ...................................................

 iter      E             dE          RMSdq      gap      omega  full diag
   1  -3473.4547474 -0.347345E+04  0.244E+00   11.47       0.0  T
   2  -3478.5427566 -0.508801E+01  0.135E+00   11.57       1.0  T
   3  -3478.7464973 -0.203741E+00  0.597E-01   11.53       1.0  T
   4  -3478.7669624 -0.204651E-01  0.755E-02   11.56       1.0  T
   5  -3478.7679352 -0.972816E-03  0.391E-02   11.56       1.0  T
   6  -3478.7681441 -0.208899E-03  0.651E-03   11.56       1.0  T
   7  -3478.7681605 -0.164434E-04  0.125E-03   11.56       1.4  T
   8  -3478.7681616 -0.107576E-05  0.388E-04   11.56       4.5  T
   9  -3478.7681616 -0.637065E-07  0.143E-04   11.56      12.3  T
  10  -3478.7681617 -0.381533E-08  0.417E-05   11.56      42.0  T

   *** convergence criteria satisfied after 10 iterations ***

         #    Occupation            Energy/Eh            Energy/eV
      -------------------------------------------------------------
         1        2.0000           -0.6251345             -17.0108
       ...           ...                  ...                  ...
      3243        2.0000           -0.4022862             -10.9468
      3244        2.0000           -0.4020927             -10.9415
      3245        2.0000           -0.4020726             -10.9410
      3246        2.0000           -0.4019731             -10.9382
      3247        2.0000           -0.4019317             -10.9371
      3248        2.0000           -0.4016778             -10.9302
      3249        2.0000           -0.4016062             -10.9283 (HOMO)
      3250                          0.0232156               0.6317 (LUMO)
      3251                          0.0241161               0.6562
      3252                          0.0243233               0.6619
      3253                          0.0244717               0.6659
      3254                          0.0257987               0.7020
       ...                                ...                  ...
      6498                          0.3840667              10.4510
      -------------------------------------------------------------
                  HL-Gap            0.4248218 Eh           11.5600 eV
             Fermi-level           -0.1891953 Eh           -5.1483 eV

 SCC (total)                   0 d,  0 h, 13 min, 42.667 sec
 SCC setup                      ...        0 min,  0.432 sec (  0.053%)
 Dispersion                     ...        0 min,  3.586 sec (  0.436%)
 classical contributions        ...        0 min,  0.142 sec (  0.017%)
 integral evaluation            ...        0 min,  6.370 sec (  0.774%)
 iterations                     ...        9 min, 57.522 sec ( 72.632%)
 molecular gradient             ...        3 min, 25.762 sec ( 25.012%)
 printout                       ...        0 min,  8.853 sec (  1.076%)

         :::::::::::::::::::::::::::::::::::::::::::::::::::::
         ::                     SUMMARY                     ::
         :::::::::::::::::::::::::::::::::::::::::::::::::::::
         :: total energy           -3427.515312808611 Eh    ::
         :: gradient norm              0.018754113262 Eh/a0 ::
         :: HOMO-LUMO gap             11.559990190236 eV    ::
         ::.................................................::
         :: SCC energy             -3478.768161653384 Eh    ::
         :: -> isotropic ES            0.419636270823 Eh    ::
         :: -> anisotropic ES          1.111226927405 Eh    ::
         :: -> anisotropic XC          1.946667887034 Eh    ::
         :: -> dispersion             -4.044643350132 Eh    ::
         :: repulsion energy          50.605637046863 Eh    ::
         :: add. restraining           0.000000000000 Eh    ::
         :: total charge              -0.000000000016 e     ::
         :::::::::::::::::::::::::::::::::::::::::::::::::::::

      ----------------------------------------------------------- 
     |              Fast Inertial Relaxation Engine              |
      ----------------------------------------------------------- 

          ...................................................
          :                      SETUP                      :
          :.................................................:
          :   energy convergence        0.5000000E-05 Eh    :
          :   grad. convergence         0.1000000E-02 Eh/a0 :
          :   optimization log               true           :
          :   writing optlog all                1     steps :
          :   Hessian reset                    20     steps :
          :   time step scaling                 5     steps :
          :   maximium step len.        1.0000000     a0    :
          :   initial time step         0.2500000     fs    :
          :   maximum time step         1.2500000     fs    :
          :   power reset thr           0.0000000     au    :
          :   alpha parameter           0.1000000           :
          :   BFGS update                   false           :
          :   preconditioning               false           :
          ...................................................

........................................................................
.............................. CYCLE    1 ..............................
........................................................................

 iter      E             dE          RMSdq      gap      omega  full diag
   1  -3478.7717885 -0.347877E+04  0.271E-04   11.56       0.0  T
   2  -3478.7717885 -0.292557E-07  0.154E-04   11.56      11.4  T
   3  -3478.7717885 -0.605269E-09  0.496E-05   11.56      35.3  T
     SCC iter.                  ...        2 min, 55.692 sec
     gradient                   ...        3 min, 26.168 sec
 * total energy  : -3427.5153524 Eh     change    :  -0.3958619E-04 Eh
   gradient norm :     0.0172530 Eh/a0  converged?    E=F G=F D=F
   time step     :     0.2500000 fs     power     :   0.2012282E-08
   step length   :     0.0021979 a0     speed     :   0.2126627E-03

........................................................................
.............................. CYCLE    2 ..............................
........................................................................

 iter      E             dE          RMSdq      gap      omega  full diag
   1  -3478.7770673 -0.347878E+04  0.392E-04   11.56       0.0  T
   2  -3478.7770674 -0.613927E-07  0.223E-04   11.56       7.8  T
   3  -3478.7770674 -0.131331E-08  0.718E-05   11.56      24.4  T
     SCC iter.                  ...        3 min,  0.978 sec
     gradient                   ...        3 min, 29.963 sec
 * total energy  : -3427.5154043 Eh     change    :  -0.5188557E-04 Eh
   gradient norm :     0.0150934 Eh/a0  converged?    E=F G=F D=F
   time step     :     0.2500000 fs     power     :   0.2566991E-08
   step length   :     0.0032088 a0     speed     :   0.3104651E-03

........................................................................
.............................. CYCLE    3 ..............................
........................................................................

 iter      E             dE          RMSdq      gap      omega  full diag
   1  -3478.7837663 -0.347878E+04  0.499E-04   11.56       0.0  T
   2  -3478.7837664 -0.986279E-07  0.284E-04   11.56       6.2  T
   3  -3478.7837664 -0.217233E-08  0.909E-05   11.56      19.3  T
     SCC iter.                  ...        3 min,  0.805 sec
     gradient                   ...        3 min, 26.831 sec
 * total energy  : -3427.5154604 Eh     change    :  -0.5607898E-04 Eh
   gradient norm :     0.0123969 Eh/a0  converged?    E=F G=F D=F
   time step     :     0.2500000 fs     power     :   0.2677513E-08
   step length   :     0.0040920 a0     speed     :   0.3959245E-03

........................................................................
.............................. CYCLE    4 ..............................
........................................................................

 iter      E             dE          RMSdq      gap      omega  full diag
   1  -3478.7915860 -0.347879E+04  0.585E-04   11.56       0.0  T
   2  -3478.7915862 -0.133840E-06  0.333E-04   11.56       5.3  T
   3  -3478.7915862 -0.294040E-08  0.106E-04   11.56      16.6  T
     SCC iter.                  ...        2 min, 55.258 sec
     gradient                   ...        3 min, 26.742 sec
 * total energy  : -3427.5155122 Eh     change    :  -0.5180965E-04 Eh
   gradient norm :     0.0093578 Eh/a0  converged?    E=F G=F D=F
   time step     :     0.2500000 fs     power     :   0.2340310E-08
   step length   :     0.0048136 a0     speed     :   0.4657424E-03

........................................................................
.............................. CYCLE    5 ..............................
........................................................................

 iter      E             dE          RMSdq      gap      omega  full diag
   1  -3478.8001565 -0.347880E+04  0.647E-04   11.56       0.0  T
   2  -3478.8001567 -0.159613E-06  0.369E-04   11.56       4.8  T
   3  -3478.8001567 -0.364798E-08  0.115E-04   11.56      15.3  T
     SCC iter.                  ...        2 min, 57.070 sec
     gradient                   ...        3 min, 27.014 sec
 * total energy  : -3427.5155522 Eh     change    :  -0.4006913E-04 Eh
   gradient norm :     0.0063342 Eh/a0  converged?    E=F G=F D=F
   time step     :     0.2500000 fs     power     :   0.1634348E-08
   step length   :     0.0053443 a0     speed     :   0.5170933E-03

........................................................................
.............................. CYCLE    6 ..............................
........................................................................

 iter      E             dE          RMSdq      gap      omega  full diag
   1  -3478.8099248 -0.347881E+04  0.750E-04   11.56       0.0  T
   2  -3478.8099250 -0.204806E-06  0.429E-04   11.56       4.1  T
   3  -3478.8099250 -0.472164E-08  0.129E-04   11.56      13.6  T
     SCC iter.                  ...        2 min, 54.147 sec
     gradient                   ...        3 min, 28.129 sec
 * total energy  : -3427.5155773 Eh     change    :  -0.2501931E-04 Eh
   gradient norm :     0.0041591 Eh/a0  converged?    E=F G=F D=F
   time step     :     0.2750000 fs     power     :   0.6204621E-09
   step length   :     0.0062490 a0     speed     :   0.5496593E-03

........................................................................
.............................. CYCLE    7 ..............................
........................................................................

 iter      E             dE          RMSdq      gap      omega  full diag
   1  -3478.8198597 -0.347882E+04  0.801E-04   11.56       0.0  T
   2  -3478.8198599 -0.205746E-06  0.460E-04   11.56       3.8  T
   3  -3478.8198599 -0.491764E-08  0.126E-04   11.56      13.9  T
     SCC iter.                  ...        2 min, 54.279 sec
     gradient                   ...        3 min, 26.896 sec
 * total energy  : -3427.5155816 Eh     change    :  -0.4369264E-05 Eh
   gradient norm :     0.0051527 Eh/a0  converged?    E=T G=F D=F
   time step     :     0.3025000 fs     power     :  -0.3689735E-09
   step length   :     0.0067669 a0     speed     :   0.5411051E-03

........................................................................
.............................. CYCLE    8 ..............................
........................................................................
 * reset velocities

 iter      E             dE          RMSdq      gap      omega  full diag
   1  -3478.8197386 -0.347882E+04  0.136E-05   11.56       0.0  T
   2  -3478.8197386 -0.197815E-09  0.732E-06   11.56     239.3  T
   3  -3478.8197386  0.181899E-11  0.326E-06   11.56     537.3  T
     SCC iter.                  ...        2 min, 58.289 sec
     gradient                   ...        3 min, 27.134 sec
 * total energy  : -3427.5155822 Eh     change    :  -0.5676020E-06 Eh
   gradient norm :     0.0050915 Eh/a0  converged?    E=T G=F D=T
   time step     :     0.1512500 fs     power     :   0.4936598E-10
   step length   :     0.0001105 a0     speed     :   0.1767488E-04

........................................................................
.............................. CYCLE    9 ..............................
........................................................................

 iter      E             dE          RMSdq      gap      omega  full diag
   1  -3478.8194983 -0.347882E+04  0.275E-05   11.56       0.0  T
   2  -3478.8194983 -0.233740E-09  0.160E-05   11.56     109.3  T
   3  -3478.8194983  0.281943E-10  0.397E-06   11.56     440.9  T
     SCC iter.                  ...        3 min,  0.593 sec
     gradient                   ...        3 min, 27.639 sec
 * total energy  : -3427.5155833 Eh     change    :  -0.1102603E-05 Eh
   gradient norm :     0.0049771 Eh/a0  converged?    E=T G=F D=T
   time step     :     0.1512500 fs     power     :   0.9592792E-10
   step length   :     0.0002197 a0     speed     :   0.3513945E-04

........................................................................
.............................. CYCLE   10 ..............................
........................................................................

 iter      E             dE          RMSdq      gap      omega  full diag
   1  -3478.8191441 -0.347882E+04  0.403E-05   11.56       0.0  T
   2  -3478.8191441 -0.375621E-09  0.235E-05   11.56      74.6  T
   3  -3478.8191441  0.500222E-11  0.585E-06   11.56     299.3  T
     SCC iter.                  ...        3 min,  0.520 sec
     gradient                   ...        3 min, 28.226 sec
 * total energy  : -3427.5155849 Eh     change    :  -0.1597432E-05 Eh
   gradient norm :     0.0048105 Eh/a0  converged?    E=T G=F D=T
   time step     :     0.1512500 fs     power     :   0.1377047E-09
   step length   :     0.0003265 a0     speed     :   0.5221005E-04

........................................................................
.............................. CYCLE   11 ..............................
........................................................................

 iter      E             dE          RMSdq      gap      omega  full diag
   1  -3478.8186840 -0.347882E+04  0.529E-05   11.56       0.0  T
   2  -3478.8186840 -0.746695E-09  0.308E-05   11.56      56.8  T
   3  -3478.8186840  0.391083E-10  0.764E-06   11.56     229.4  T
     SCC iter.                  ...        2 min, 57.351 sec
     gradient                   ...        3 min, 29.346 sec
 * total energy  : -3427.5155869 Eh     change    :  -0.2013734E-05 Eh
   gradient norm :     0.0045966 Eh/a0  converged?    E=T G=F D=T
   time step     :     0.1512500 fs     power     :   0.1729920E-09
   step length   :     0.0004296 a0     speed     :   0.6870300E-04

........................................................................
.............................. CYCLE   12 ..............................
........................................................................

 iter      E             dE          RMSdq      gap      omega  full diag
   1  -3478.8181288 -0.347882E+04  0.647E-05   11.56       0.0  T
   2  -3478.8181288 -0.104501E-08  0.378E-05   11.56      46.4  T
   3  -3478.8181288 -0.563887E-10  0.925E-06   11.56     189.5  T
     SCC iter.                  ...        2 min, 57.562 sec
     gradient                   ...        3 min, 28.316 sec
 * total energy  : -3427.5155893 Eh     change    :  -0.2354933E-05 Eh
   gradient norm :     0.0043428 Eh/a0  converged?    E=T G=F D=T
   time step     :     0.1512500 fs     power     :   0.2005206E-09
   step length   :     0.0005280 a0     speed     :   0.8444640E-04

........................................................................
.............................. CYCLE   13 ..............................
........................................................................

 iter      E             dE          RMSdq      gap      omega  full diag
   1  -3478.8174924 -0.347882E+04  0.757E-05   11.56       0.0  T
   2  -3478.8174924 -0.131922E-08  0.442E-05   11.56      39.6  T
   3  -3478.8174924 -0.959517E-10  0.107E-05   11.56     164.3  T
     SCC iter.                  ...        3 min,  1.760 sec
     gradient                   ...        3 min, 28.687 sec
 * total energy  : -3427.5155919 Eh     change    :  -0.2608126E-05 Eh
   gradient norm :     0.0040587 Eh/a0  converged?    E=T G=F D=T
   time step     :     0.1512500 fs     power     :   0.2195589E-09
   step length   :     0.0006208 a0     speed     :   0.9928429E-04

........................................................................
.............................. CYCLE   14 ..............................
........................................................................

 iter      E             dE          RMSdq      gap      omega  full diag
   1  -3478.8167137 -0.347882E+04  0.954E-05   11.56       0.0  T
   2  -3478.8167137 -0.218233E-08  0.558E-05   11.56      31.4  T
   3  -3478.8167137 -0.159162E-10  0.132E-05   11.56     132.8  T
     SCC iter.                  ...        3 min,  2.830 sec
     gradient                   ...        3 min, 29.267 sec
 * total energy  : -3427.5155949 Eh     change    :  -0.3031437E-05 Eh
   gradient norm :     0.0037237 Eh/a0  converged?    E=T G=F D=T
   time step     :     0.1663750 fs     power     :   0.2304810E-09
   step length   :     0.0007873 a0     speed     :   0.1144650E-03

........................................................................
.............................. CYCLE   15 ..............................
........................................................................

 iter      E             dE          RMSdq      gap      omega  full diag
   1  -3478.8157927 -0.347882E+04  0.118E-04   11.56       0.0  T
   2  -3478.8157927 -0.318778E-08  0.689E-05   11.56      25.4  T
   3  -3478.8157927 -0.118234E-10  0.158E-05   11.56     110.8  T
     SCC iter.                  ...        3 min,  0.427 sec
     gradient                   ...        3 min, 28.062 sec
 * total energy  : -3427.5155983 Eh     change    :  -0.3409409E-05 Eh
   gradient norm :     0.0033521 Eh/a0  converged?    E=T G=F D=T
   time step     :     0.1830125 fs     power     :   0.2310795E-09
   step length   :     0.0009807 a0     speed     :   0.1296162E-03

........................................................................
.............................. CYCLE   16 ..............................
........................................................................

 iter      E             dE          RMSdq      gap      omega  full diag
   1  -3478.8147493 -0.347881E+04  0.142E-04   11.56       0.0  T
   2  -3478.8147493 -0.432055E-08  0.833E-05   11.56      21.0  T
   3  -3478.8147493 -0.932232E-10  0.183E-05   11.56      95.7  T
     SCC iter.                  ...        2 min, 58.479 sec
     gradient                   ...        3 min, 27.758 sec
 * total energy  : -3427.5156020 Eh     change    :  -0.3640145E-05 Eh
   gradient norm :     0.0029789 Eh/a0  converged?    E=T G=F D=F
   time step     :     0.2013138 fs     power     :   0.2202781E-09
   step length   :     0.0012004 a0     speed     :   0.1442296E-03

........................................................................
.............................. CYCLE   17 ..............................
........................................................................

 iter      E             dE          RMSdq      gap      omega  full diag
   1  -3478.8136375 -0.347881E+04  0.167E-04   11.56       0.0  T
   2  -3478.8136375 -0.533919E-08  0.984E-05   11.56      17.8  T
   3  -3478.8136375 -0.818545E-10  0.202E-05   11.56      86.7  T
     SCC iter.                  ...        3 min,  4.635 sec
     gradient                   ...        3 min, 27.211 sec
 * total energy  : -3427.5156057 Eh     change    :  -0.3714039E-05 Eh
   gradient norm :     0.0026671 Eh/a0  converged?    E=T G=F D=F
   time step     :     0.2214451 fs     power     :   0.1994307E-09
   step length   :     0.0014431 a0     speed     :   0.1576331E-03

........................................................................
.............................. CYCLE   18 ..............................
........................................................................

 iter      E             dE          RMSdq      gap      omega  full diag
   1  -3478.8125631 -0.347881E+04  0.192E-04   11.56       0.0  T
   2  -3478.8125631 -0.592445E-08  0.113E-04   11.56      15.5  T
   3  -3478.8125631 -0.119144E-09  0.209E-05   11.56      84.0  T
     SCC iter.                  ...        3 min,  0.910 sec
     gradient                   ...        3 min, 27.460 sec
 * total energy  : -3427.5156093 Eh     change    :  -0.3663044E-05 Eh
   gradient norm :     0.0024949 Eh/a0  converged?    E=T G=F D=F
   time step     :     0.2435896 fs     power     :   0.1736459E-09
   step length   :     0.0017018 a0     speed     :   0.1689925E-03

........................................................................
.............................. CYCLE   19 ..............................
........................................................................

 iter      E             dE          RMSdq      gap      omega  full diag
   1  -3478.8116915 -0.347881E+04  0.214E-04   11.56       0.0  T
   2  -3478.8116915 -0.566888E-08  0.126E-04   11.56      13.9  T
   3  -3478.8116915 -0.141426E-09  0.198E-05   11.56      88.7  T
     SCC iter.                  ...        3 min,  0.913 sec
     gradient                   ...        3 min, 27.564 sec
 * total energy  : -3427.5156129 Eh     change    :  -0.3543116E-05 Eh
   gradient norm :     0.0024930 Eh/a0  converged?    E=T G=F D=F
   time step     :     0.2679486 fs     power     :   0.1515959E-09
   step length   :     0.0019670 a0     speed     :   0.1775721E-03

........................................................................
.............................. CYCLE   20 ..............................
........................................................................

 iter      E             dE          RMSdq      gap      omega  full diag
   1  -3478.8112282 -0.347881E+04  0.232E-04   11.56       0.0  T
   2  -3478.8112282 -0.455657E-08  0.137E-04   11.56      12.8  T
   3  -3478.8112282 -0.609361E-10  0.173E-05   11.56     101.3  T
     SCC iter.                  ...        3 min,  1.210 sec
     gradient                   ...        3 min, 27.662 sec
 * total energy  : -3427.5156165 Eh     change    :  -0.3606133E-05 Eh
   gradient norm :     0.0025854 Eh/a0  converged?    E=T G=F D=F
   time step     :     0.2947435 fs     power     :   0.1417563E-09
   step length   :     0.0022366 a0     speed     :   0.1835548E-03
 * RMSD in coord.:     0.0005697 a0     energy gain  -0.3036699E-03 Eh

........................................................................
.............................. CYCLE   21 ..............................
........................................................................

 iter      E             dE          RMSdq      gap      omega  full diag
   1  -3478.8113081 -0.347881E+04  0.190E-04   11.56       0.0  T
   2  -3478.8113081 -0.187310E-08  0.112E-04   11.56      15.6  T
   3  -3478.8113081 -0.518412E-10  0.116E-05   11.56     150.4  T
     SCC iter.                  ...        2 min, 56.482 sec
     gradient                   ...        3 min, 29.256 sec
 * total energy  : -3427.5156195 Eh     change    :  -0.3029646E-05 Eh
   gradient norm :     0.0026172 Eh/a0  converged?    E=T G=F D=F
   time step     :     0.2500000 fs     power     :   0.1482229E-09
   step length   :     0.0019147 a0     speed     :   0.1852572E-03

........................................................................
.............................. CYCLE   22 ..............................
........................................................................

 iter      E             dE          RMSdq      gap      omega  full diag
   1  -3478.8118542 -0.347881E+04  0.186E-04   11.56       0.0  T
   2  -3478.8118542 -0.150931E-08  0.109E-04   11.56      16.0  T
   3  -3478.8118542 -0.115506E-09  0.113E-05   11.56     154.7  T
     SCC iter.                  ...        3 min,  4.846 sec
     gradient                   ...        3 min, 28.781 sec
 * total energy  : -3427.5156227 Eh     change    :  -0.3203630E-05 Eh
   gradient norm :     0.0025363 Eh/a0  converged?    E=T G=F D=F
   time step     :     0.2500000 fs     power     :   0.1595166E-09
   step length   :     0.0019367 a0     speed     :   0.1873837E-03

........................................................................
.............................. CYCLE   23 ..............................
........................................................................

 iter      E             dE          RMSdq      gap      omega  full diag
   1  -3478.8128248 -0.347881E+04  0.186E-04   11.56       0.0  T
   2  -3478.8128248 -0.193131E-08  0.109E-04   11.56      16.1  T
   3  -3478.8128248  0.204636E-10  0.123E-05   11.56     142.6  T
     SCC iter.                  ...        3 min,  8.420 sec
     gradient                   ...        3 min, 27.413 sec
 * total energy  : -3427.5156261 Eh     change    :  -0.3347980E-05 Eh
   gradient norm :     0.0023272 Eh/a0  converged?    E=T G=F D=F
   time step     :     0.2500000 fs     power     :   0.1669310E-09
   step length   :     0.0019711 a0     speed     :   0.1907160E-03

........................................................................
.............................. CYCLE   24 ..............................
........................................................................

 iter      E             dE          RMSdq      gap      omega  full diag
   1  -3478.8141512 -0.347881E+04  0.189E-04   11.56       0.0  T
   2  -3478.8141512 -0.268665E-08  0.110E-04   11.56      16.0  T
   3  -3478.8141512 -0.148702E-09  0.141E-05   11.56     124.5  T
     SCC iter.                  ...        2 min, 57.959 sec
     gradient                   ...        3 min, 27.843 sec
 * total energy  : -3427.5156294 Eh     change    :  -0.3342630E-05 Eh
   gradient norm :     0.0020115 Eh/a0  converged?    E=T G=F D=F
   time step     :     0.2500000 fs     power     :   0.1640097E-09
   step length   :     0.0020173 a0     speed     :   0.1951852E-03

........................................................................
.............................. CYCLE   25 ..............................
........................................................................

 iter      E             dE          RMSdq      gap      omega  full diag
   1  -3478.8157385 -0.347882E+04  0.193E-04   11.56       0.0  T
   2  -3478.8157385 -0.377440E-08  0.111E-04   11.56      15.8  T
   3  -3478.8157385 -0.118689E-09  0.161E-05   11.56     108.8  T
     SCC iter.                  ...        3 min,  0.030 sec
     gradient                   ...        3 min, 28.191 sec
 * total energy  : -3427.5156325 Eh     change    :  -0.3102701E-05 Eh
   gradient norm :     0.0016499 Eh/a0  converged?    E=T G=F D=F
   time step     :     0.2500000 fs     power     :   0.1482396E-09
   step length   :     0.0020693 a0     speed     :   0.2002200E-03

........................................................................
.............................. CYCLE   26 ..............................
........................................................................

 iter      E             dE          RMSdq      gap      omega  full diag
   1  -3478.8176377 -0.347882E+04  0.214E-04   11.56       0.0  T
   2  -3478.8176377 -0.548062E-08  0.123E-04   11.56      14.3  T
   3  -3478.8176377 -0.156888E-09  0.195E-05   11.56      89.9  T
     SCC iter.                  ...        2 min, 59.609 sec
     gradient                   ...        3 min, 28.391 sec
 * total energy  : -3427.5156354 Eh     change    :  -0.2898164E-05 Eh
   gradient norm :     0.0013371 Eh/a0  converged?    E=T G=F D=F
   time step     :     0.2750000 fs     power     :   0.1189044E-09
   step length   :     0.0023390 a0     speed     :   0.2057333E-03

........................................................................
.............................. CYCLE   27 ..............................
........................................................................

 iter      E             dE          RMSdq      gap      omega  full diag
   1  -3478.8196374 -0.347882E+04  0.228E-04   11.56       0.0  T
   2  -3478.8196374 -0.632599E-08  0.131E-04   11.56      13.4  T
   3  -3478.8196374 -0.201908E-09  0.206E-05   11.56      85.1  T
     SCC iter.                  ...        3 min,  8.538 sec
     gradient                   ...        3 min, 27.213 sec
 * total energy  : -3427.5156378 Eh     change    :  -0.2442458E-05 Eh
   gradient norm :     0.0012988 Eh/a0  converged?    E=T G=F D=F
   time step     :     0.3025000 fs     power     :   0.8463842E-10
   step length   :     0.0026191 a0     speed     :   0.2094336E-03

........................................................................
.............................. CYCLE   28 ..............................
........................................................................

 iter      E             dE          RMSdq      gap      omega  full diag
   1  -3478.8213643 -0.347882E+04  0.227E-04   11.56       0.0  T
   2  -3478.8213643 -0.483806E-08  0.130E-04   11.56      13.4  T
   3  -3478.8213643 -0.187811E-09  0.175E-05   11.56      99.9  T
     SCC iter.                  ...        3 min,  4.915 sec
     gradient                   ...        3 min, 28.004 sec
 * total energy  : -3427.5156399 Eh     change    :  -0.2035730E-05 Eh
   gradient norm :     0.0015271 Eh/a0  converged?    E=T G=F D=F
   time step     :     0.3327500 fs     power     :   0.6266336E-10
   step length   :     0.0028561 a0     speed     :   0.2076170E-03

........................................................................
.............................. CYCLE   29 ..............................
........................................................................

 iter      E             dE          RMSdq      gap      omega  full diag
   1  -3478.8224857 -0.347882E+04  0.214E-04   11.56       0.0  T
   2  -3478.8224857 -0.235832E-08  0.124E-04   11.56      14.2  T
   3  -3478.8224857 -0.140062E-09  0.121E-05   11.56     144.5  T
     SCC iter.                  ...        3 min,  2.363 sec
     gradient                   ...        3 min, 26.892 sec
 * total energy  : -3427.5156419 Eh     change    :  -0.2012020E-05 Eh
   gradient norm :     0.0017358 Eh/a0  converged?    E=T G=F D=F
   time step     :     0.3660250 fs     power     :   0.6147273E-10
   step length   :     0.0030511 a0     speed     :   0.2016352E-03

........................................................................
.............................. CYCLE   30 ..............................
........................................................................

 iter      E             dE          RMSdq      gap      omega  full diag
   1  -3478.8227902 -0.347882E+04  0.202E-04   11.56       0.0  T
   2  -3478.8227902 -0.111959E-08  0.118E-04   11.56      14.9  T
   3  -3478.8227902 -0.145519E-09  0.934E-06   11.56     187.6  T
     SCC iter.                  ...        2 min, 57.995 sec
     gradient                   ...        3 min, 28.700 sec
 * total energy  : -3427.5156444 Eh     change    :  -0.2463219E-05 Eh
   gradient norm :     0.0017373 Eh/a0  converged?    E=T G=F D=F
   time step     :     0.4026275 fs     power     :   0.7317873E-10
   step length   :     0.0032691 a0     speed     :   0.1963969E-03

........................................................................
.............................. CYCLE   31 ..............................
........................................................................

 iter      E             dE          RMSdq      gap      omega  full diag
   1  -3478.8221942 -0.347882E+04  0.200E-04   11.56       0.0  T
   2  -3478.8221942 -0.268710E-08  0.118E-04   11.56      14.9  T
   3  -3478.8221942 -0.136879E-09  0.120E-05   11.56     145.7  T
     SCC iter.                  ...        3 min,  3.725 sec
     gradient                   ...        3 min, 28.618 sec
 * total energy  : -3427.5156474 Eh     change    :  -0.3051270E-05 Eh
   gradient norm :     0.0015077 Eh/a0  converged?    E=T G=F D=F
   time step     :     0.4428903 fs     power     :   0.8131811E-10
   step length   :     0.0035650 a0     speed     :   0.1947045E-03

........................................................................
.............................. CYCLE   32 ..............................
........................................................................

 iter      E             dE          RMSdq      gap      omega  full diag
   1  -3478.8208304 -0.347882E+04  0.208E-04   11.56       0.0  T
   2  -3478.8208304 -0.615864E-08  0.123E-04   11.56      14.3  T
   3  -3478.8208304 -0.274213E-09  0.191E-05   11.56      91.6  T
     SCC iter.                  ...        3 min,  0.180 sec
     gradient                   ...        3 min, 29.461 sec
 * total energy  : -3427.5156507 Eh     change    :  -0.3248213E-05 Eh
   gradient norm :     0.0012570 Eh/a0  converged?    E=T G=F D=F
   time step     :     0.4871793 fs     power     :   0.7395476E-10
   step length   :     0.0039552 a0     speed     :   0.1963776E-03

........................................................................
.............................. CYCLE   33 ..............................
........................................................................

 iter      E             dE          RMSdq      gap      omega  full diag
   1  -3478.8192531 -0.347882E+04  0.205E-04   11.56       0.0  T
   2  -3478.8192531 -0.747787E-08  0.121E-04   11.56      14.4  T
   3  -3478.8192531 -0.247383E-09  0.217E-05   11.56      80.6  T
     SCC iter.                  ...        2 min, 58.065 sec
     gradient                   ...        3 min, 29.314 sec
 * total energy  : -3427.5156537 Eh     change    :  -0.3056235E-05 Eh
   gradient norm :     0.0013565 Eh/a0  converged?    E=T G=F D=F
   time step     :     0.5358972 fs     power     :   0.6033425E-10
   step length   :     0.0043959 a0     speed     :   0.1984179E-03

........................................................................
.............................. CYCLE   34 ..............................
........................................................................

 iter      E             dE          RMSdq      gap      omega  full diag
   1  -3478.8183647 -0.347882E+04  0.186E-04   11.56       0.0  T
   2  -3478.8183647 -0.328419E-08  0.110E-04   11.56      15.9  T
   3  -3478.8183647 -0.132331E-09  0.120E-05   11.56     146.0  T
     SCC iter.                  ...        2 min, 57.336 sec
     gradient                   ...        3 min, 27.927 sec
 * total energy  : -3427.5156570 Eh     change    :  -0.3251650E-05 Eh
   gradient norm :     0.0015776 Eh/a0  converged?    E=T G=F D=F
   time step     :     0.5894869 fs     power     :   0.6409833E-10
   step length   :     0.0048209 a0     speed     :   0.1978176E-03

........................................................................
.............................. CYCLE   35 ..............................
........................................................................

 iter      E             dE          RMSdq      gap      omega  full diag
   1  -3478.8188222 -0.347882E+04  0.200E-04   11.56       0.0  T
   2  -3478.8188222 -0.958153E-09  0.117E-04   11.56      15.0  T
   3  -3478.8188222 -0.158707E-09  0.731E-06   11.56     239.5  T
     SCC iter.                  ...        2 min, 58.682 sec
     gradient                   ...        3 min, 25.878 sec
 * total energy  : -3427.5156613 Eh     change    :  -0.4300850E-05 Eh
   gradient norm :     0.0014795 Eh/a0  converged?    E=T G=F D=F
   time step     :     0.6484356 fs     power     :   0.8162931E-10
   step length   :     0.0053324 a0     speed     :   0.1989148E-03

........................................................................
.............................. CYCLE   36 ..............................
........................................................................

 iter      E             dE          RMSdq      gap      omega  full diag
   1  -3478.8207533 -0.347882E+04  0.261E-04   11.56       0.0  T
   2  -3478.8207533 -0.736964E-08  0.151E-04   11.56      11.6  T
   3  -3478.8207533 -0.135515E-09  0.221E-05   11.56      79.4  T
     SCC iter.                  ...        3 min,  0.861 sec
     gradient                   ...        3 min, 27.499 sec
 * total energy  : -3427.5156664 Eh     change    :  -0.5171783E-05 Eh
   gradient norm :     0.0011376 Eh/a0  converged?    E=F G=F D=F
   time step     :     0.7132792 fs     power     :   0.8392041E-10
   step length   :     0.0060548 a0     speed     :   0.2053328E-03

........................................................................
.............................. CYCLE   37 ..............................
........................................................................

 iter      E             dE          RMSdq      gap      omega  full diag
   1  -3478.8232434 -0.347882E+04  0.295E-04   11.56       0.0  T
   2  -3478.8232434 -0.126338E-07  0.171E-04   11.56      10.2  T
   3  -3478.8232434 -0.326963E-09  0.304E-05   11.56      57.7  T
     SCC iter.                  ...        3 min,  7.894 sec
     gradient                   ...        3 min, 26.343 sec
 * total energy  : -3427.5156715 Eh     change    :  -0.5028181E-05 Eh
   gradient norm :     0.0012429 Eh/a0  converged?    E=F G=F D=F
   time step     :     0.7846071 fs     power     :   0.6960135E-10
   step length   :     0.0069494 a0     speed     :   0.2142437E-03

........................................................................
.............................. CYCLE   38 ..............................
........................................................................

 iter      E             dE          RMSdq      gap      omega  full diag
   1  -3478.8243855 -0.347882E+04  0.264E-04   11.56       0.0  T
   2  -3478.8243855 -0.582850E-08  0.155E-04   11.56      11.3  T
   3  -3478.8243855 -0.239652E-09  0.220E-05   11.56      79.7  T
     SCC iter.                  ...        3 min,  0.907 sec
     gradient                   ...        3 min, 27.781 sec
 * total energy  : -3427.5156770 Eh     change    :  -0.5522049E-05 Eh
   gradient norm :     0.0013502 Eh/a0  converged?    E=F G=F D=F
   time step     :     0.8630678 fs     power     :   0.7617920E-10
   step length   :     0.0078221 a0     speed     :   0.2192266E-03

........................................................................
.............................. CYCLE   39 ..............................
........................................................................

 iter      E             dE          RMSdq      gap      omega  full diag
   1  -3478.8233773 -0.347882E+04  0.288E-04   11.56       0.0  T
   2  -3478.8233773 -0.924547E-08  0.168E-04   11.56      10.4  T
   3  -3478.8233773 -0.271939E-09  0.283E-05   11.56      61.9  T
     SCC iter.                  ...        2 min, 56.773 sec
     gradient                   ...        3 min, 26.271 sec
 * total energy  : -3427.5156836 Eh     change    :  -0.6651944E-05 Eh
   gradient norm :     0.0010565 Eh/a0  converged?    E=F G=F D=F
   time step     :     0.9493746 fs     power     :   0.8106635E-10
   step length   :     0.0088977 a0     speed     :   0.2267032E-03

........................................................................
.............................. CYCLE   40 ..............................
........................................................................

 iter      E             dE          RMSdq      gap      omega  full diag
   1  -3478.8218256 -0.347882E+04  0.315E-04   11.56       0.0  T
   2  -3478.8218256 -0.107316E-07  0.183E-04   11.56       9.6  T
   3  -3478.8218256 -0.408818E-09  0.268E-05   11.56      65.5  T
     SCC iter.                  ...        2 min, 59.658 sec
     gradient                   ...        3 min, 26.583 sec
 * total energy  : -3427.5156904 Eh     change    :  -0.6744010E-05 Eh
   gradient norm :     0.0012780 Eh/a0  converged?    E=F G=F D=F
   time step     :     1.0443120 fs     power     :   0.7166963E-10
   step length   :     0.0102417 a0     speed     :   0.2372230E-03

........................................................................
.............................. CYCLE   41 ..............................
........................................................................

 iter      E             dE          RMSdq      gap      omega  full diag
   1  -3478.8227854 -0.347882E+04  0.323E-04   11.56       0.0  T
   2  -3478.8227854 -0.446653E-08  0.188E-04   11.56       9.3  T
   3  -3478.8227854 -0.457476E-09  0.133E-05   11.56     131.6  T
     SCC iter.                  ...        3 min,  0.978 sec
     gradient                   ...        3 min, 27.372 sec
 * total energy  : -3427.5156986 Eh     change    :  -0.8241209E-05 Eh
   gradient norm :     0.0011418 Eh/a0  converged?    E=F G=F D=F
   time step     :     1.1487432 fs     power     :   0.8718810E-10
   step length   :     0.0116259 a0     speed     :   0.2448039E-03

........................................................................
.............................. CYCLE   42 ..............................
........................................................................

 iter      E             dE          RMSdq      gap      omega  full diag
   1  -3478.8253206 -0.347883E+04  0.398E-04   11.56       0.0  T
   2  -3478.8253207 -0.186469E-07  0.232E-04   11.56       7.6  T
   3  -3478.8253207 -0.585260E-09  0.329E-05   11.56      53.2  T
     SCC iter.                  ...        3 min,  6.006 sec
     gradient                   ...        3 min, 25.895 sec
 * total energy  : -3427.5157077 Eh     change    :  -0.9117129E-05 Eh
   gradient norm :     0.0011934 Eh/a0  converged?    E=F G=F D=F
   time step     :     1.2500000 fs     power     :   0.8029544E-10
   step length   :     0.0133304 a0     speed     :   0.2579580E-03
 * RMSD in coord.:     0.0016893 a0     energy gain  -0.9126270E-04 Eh

........................................................................
.............................. CYCLE   43 ..............................
........................................................................

 iter      E             dE          RMSdq      gap      omega  full diag
   1  -3478.8253824 -0.347883E+04  0.619E-05   11.56       0.0  T
   2  -3478.8253824 -0.977707E-10  0.364E-05   11.56      48.1  T
   3  -3478.8253824 -0.623004E-10  0.216E-06   11.56     811.6  T
     SCC iter.                  ...        2 min, 59.290 sec
     gradient                   ...        3 min, 26.862 sec
 * total energy  : -3427.5157095 Eh     change    :  -0.1748368E-05 Eh
   gradient norm :     0.0012130 Eh/a0  converged?    E=T G=F D=F
   time step     :     0.2500000 fs     power     :   0.9087789E-10
   step length   :     0.0025766 a0     speed     :   0.2492952E-03

........................................................................
.............................. CYCLE   44 ..............................
........................................................................

 iter      E             dE          RMSdq      gap      omega  full diag
   1  -3478.8250397 -0.347883E+04  0.612E-05   11.56       0.0  T
   2  -3478.8250397 -0.171440E-09  0.357E-05   11.56      49.1  T
   3  -3478.8250397 -0.109594E-09  0.461E-06   11.56     380.1  T
     SCC iter.                  ...        2 min, 57.670 sec
     gradient                   ...        3 min, 27.366 sec
 * total energy  : -3427.5157114 Eh     change    :  -0.1901320E-05 Eh
   gradient norm :     0.0011261 Eh/a0  converged?    E=T G=F D=F
   time step     :     0.2500000 fs     power     :   0.9950803E-10
   step length   :     0.0025141 a0     speed     :   0.2432504E-03

........................................................................
.............................. CYCLE   45 ..............................
........................................................................

 iter      E             dE          RMSdq      gap      omega  full diag
   1  -3478.8243835 -0.347882E+04  0.712E-05   11.56       0.0  T
   2  -3478.8243835 -0.805812E-09  0.414E-05   11.56      42.3  T
   3  -3478.8243835 -0.754881E-10  0.808E-06   11.56     216.8  T
     SCC iter.                  ...        2 min, 59.341 sec
     gradient                   ...        3 min, 27.511 sec
 * total energy  : -3427.5157134 Eh     change    :  -0.1993920E-05 Eh
   gradient norm :     0.0009864 Eh/a0  converged?    E=T G=T D=F
   time step     :     0.2500000 fs     power     :   0.1017739E-09
   step length   :     0.0024843 a0     speed     :   0.2403657E-03

   *** GEOMETRY OPTIMIZATION CONVERGED AFTER 45 CYCLES ***

------------------------------------------------------------------------
 total energy gain   :        -0.0004006 Eh       -0.2514 kcal/mol
 total RMSD          :         0.0020474 a0        0.0011 Å
 total power (kW/mol):        -0.0233714 (step)   -0.0001 (real)
------------------------------------------------------------------------

 FIRE (total)                  0 d,  5 h,  5 min,  8.024 sec
 setup                          ...        0 min,  0.116 sec (  0.001%)
 velocities                     ...        0 min,  0.003 sec (  0.000%)
 propagation                    ...        0 min,  0.006 sec (  0.000%)
 singlepoint calculation        ...      305 min,  7.176 sec ( 99.995%)
 log and printout               ...        0 min,  0.668 sec (  0.004%)
 preconditioner                 ...        0 min,  0.000 sec (  0.000%)
 model hessian                  ...        0 min,  0.000 sec (  0.000%)
 hessian update                 ...        0 min,  0.000 sec (  0.000%)

================
 final structure:
================
3258
 xtb: 6.6.1 (8d0f1dd)
C          128.33302047442518      111.53063231504100      121.62126990503766
C          128.05097880482305      110.03915926899369      121.75468851910388
C          126.64848431791721      109.77071382153844      122.29509910005012
C          126.34183441904688      108.27763252752776      122.38660774055019
C          124.90404808246794      108.01730554768790      122.82693727807666
C          124.53749869750682      106.53517352869598      122.78871659433449
C          123.05718530234958      106.31501181371974      123.09330062668410
C          122.61703785702173      104.86601391900165      122.89275571189194
C          121.09947583822685      104.72787207021553      123.00497758440849
C          120.57659772232547      103.30761892255587      122.77750493497551
C          120.98449826611109      102.67810818616084      121.44351328414938
C          120.61599741625660      103.51702895987039      120.22215491112995
C          121.06588510499597      102.84601578965506      118.92710758979868
C          120.92240770138423      103.76225987173611      117.71425325343938
C          121.52463594643645      103.13098318802339      116.46404514853710
C          121.44844182311357      104.02504362505047      115.22906965825777
C          122.23718036584988      103.40149809269700      114.08165251512564
C          122.08794850364475      104.14943454283697      112.75983782146561
C          123.08185449946392      103.67172897363476      111.69763951428378
C          123.03114906843612      102.16133119109944      111.49075512780163
C          123.91992403916872      101.66475025853124      110.35521375719142
C          123.89283787289155      100.13901634394658      110.28227992199430
C          124.72897924461623       99.58227190779756      109.13469587178362
C          124.70774410784166       98.05520707812224      109.11239393283874
C          125.44544673443363       97.45160097227939      107.91488064179801
C          124.76074899657067       97.68628063686674      106.56691989040293
C          123.44575037149909       96.92591786781497      106.41422992660775
C          122.71126418514831       97.30612979741605      105.13082595578403
C          121.36206926219872       96.59884568570513      105.02803129165328
C          120.51871684196074       97.05253561201542      103.83620701249941
C          120.08131407919277       98.51365673264468      103.93911269103445
C          118.91317735087843       98.83331640590220      103.01028954843007
C          118.43746328265978      100.27450984462901      103.17823784804349
C          117.12362887401498      100.55814752360607      102.45391699425980
C          116.64314034182389      102.00337835944691      102.61263581701139
C          116.50564754979324      102.47930738548395      104.06093502459389
C          115.50231800125725      101.67121392731087      104.87912440524619
C          115.54905273153366      102.01052675435616      106.36703940321358
C          114.54589878759009      101.17450838168685      107.15837814144723
C          114.70141691437411      101.32358705723041      108.67027855746517
C          113.75218580812576      100.38631052318206      109.41490164964434
C          114.03405412394916      100.26997747049991      110.91277693176886
C          113.68554097899782      101.52347466665356      111.71174391067912
C          113.79845533455087      101.27457201441752      113.21444822861388
C          113.39937233215198      102.49392481679114      114.04051855364405
C          113.40128348013722      102.20318347805264      115.53978784936402
C          113.05441881675677      103.44227995442220      116.36021540399885
C          113.02986154077439      103.18328640190890      117.86446350933063
C          112.77681248029974      104.47465920268704      118.63658952167614
C          112.78297602606196      104.29629775344972      120.15234996162241
C          112.53361618631911      105.63230166683250      120.84688612051120
C          112.61660392753056      105.55793969940322      122.36920569528529
C          112.32954804100454      106.92211567003866      122.98942469421365
C          112.33407682222023      106.91929418916177      124.51546857164708
C          111.98532886106696      108.30480731834291      125.05358157615737
C          111.96847334479754      108.37167366950938      126.57788088431423
C          111.47493395755026      109.72088905453799      127.10502259713782
C          112.41917781903587      110.87764706683110      126.78283636411231
C          111.91459148952627      112.19959522951979      127.35579141210214
C          112.84400993045516      113.37907168237969      127.06505893226232
C          112.92651488660378      113.72355908747187      125.57943656959401
C          113.63260984350654      115.05513861478870      125.33136644321964
C          113.71092343356457      115.38782898269072      123.84254315023095
C          114.26333801859246      116.78739080802875      123.58001446902136
C          114.21810245525511      117.14376510392485      122.09657134735127
C          114.68409707899079      118.57148619650438      121.81995910950056
C          114.73471582211184      118.85594844246839      120.32105410163912
C          115.07038579515900      120.31240599948684      120.00347497708607
C          115.50442318920113      120.51007937887182      118.55103725202618
C          114.43106438615411      120.14964351674519      117.52889991373806
C          114.91329011710255      120.36304624936129      116.09448198935551
C          113.91930459362339      119.80608576904329      115.07941315055946
C          114.41509697180609      119.91167443523787      113.63885431441024
C          113.29197951388318      119.74304699704624      112.61257315137665
C          112.44993423111138      118.48490420321878      112.81903487245647
C          111.45345180152157      118.27166779915134      111.68269655375943
C          110.54019118133337      117.07134291699001      111.92445111645790
C          109.58665698098359      116.85584984517702      110.75186705578872
C          108.79848852815890      115.54907275050297      110.82380236640147
C          107.67750793928518      115.52239251152653      111.85965440089628
C          106.87805929496851      114.22554469653589      111.73980228555533
C          105.75243233135497      114.11641705444309      112.76478550949939
C          104.79894636328504      112.95044917228111      112.49359920140706
C          105.49613285659420      111.59474676073653      112.40856505788567
C          104.50136067631117      110.44090903053109      112.30745948575999
C          105.20638104267923      109.10554872493218      112.08416564990888
C          104.23195975922248      107.94007608452731      111.93897016476244
C          104.94296668870986      106.65422823789517      111.52367689991463
C          103.96976005917753      105.48797499793446      111.36504181275542
C          104.57884468041728      104.27236888962358      110.66537075164095
C          105.66576433246458      103.59538315593682      111.49683670556963
C          106.18524506523758      102.29009470724461      110.89142855921060
C          106.87622378376173      102.49293379139422      109.54611900398099
C          107.66432056602493      101.26935086768219      109.08107075390375
C          108.38167326868469      101.56859358688996      107.76823348003055
C          109.25746232617671      100.43575640792562      107.24279173481483
C          109.96239649551119      100.87650937062877      105.96191654071647
C          110.92964044717921       99.84040812323271      105.39770797063542
C          111.53955782737761      100.33110931453832      104.08659758125884
C          112.43002813838126       99.28398916202001      103.42500379957332
C          113.16839212028407       99.80967932773622      102.19441338040714
C          112.24379274991421      100.20438439628991      101.04564397807182
C          113.03473923330769      100.68866094394448       99.83383875059613
C          112.16011359021081      100.96977397935031       98.61316946479270
C          111.23976660469192      102.17655651391408       98.78018303096718
C          110.49459502774634      102.48132621869017       97.48323316532851
C          109.51174039019199      103.63969868589602       97.63493950466572
C          108.86851302698541      104.05926177771832       96.31209949636280
C          107.93028604675305      102.99822754611323       95.74343296545661
C          107.32430789526714      103.37939424952258       94.39167939906319
C          106.33413696478611      104.54091118946204       94.45933403211004
C          105.60539770772509      104.73043606650302       93.12960867017277
C          104.54383975219794      105.83162021542617       93.17433590599758
C          105.12616092363332      107.23929955379811       93.07831220314233
C          104.03799316515607      108.30834551380428       93.14685955583431
C          104.60556207963157      109.72433929644565       93.08565615687002
C          103.50269845108791      110.77630547277869       92.98691678358412
C          104.06400642054793      112.19562987397543       92.97894305830526
C          102.99050105100287      113.24966505441796       92.72320347752373
C          103.56894824440378      114.65853809189034       92.77067792243950
H          102.53584314048162      113.07554239862915       91.74538019242216
H          102.20161122216740      113.15213812194193       93.47325226972202
H          104.53930121730546      112.39849314556716       93.94040587714125
H          104.83185113334881      112.27554671955012       92.20518822344192
H          102.93003234614534      110.60840586322497       92.07145747733705
H          102.81645441352154      110.66287445987581       93.82985620293617
H          105.21028477938968      109.91225216536954       93.97624772130339
H          105.26251919421999      109.81275232526659       92.21683289990648
H          103.34231494484304      108.16317313618363       92.31680687089728
H          103.46991226209936      108.19178393520032       94.07309238092186
H          105.83963376336547      107.39822016245401       93.88820531997301
H          105.67179661066987      107.34037044954876       92.13710838219116
H          103.84533918125872      105.68839611527879       92.34620558327450
H          103.97622205339287      105.74081704362479       94.10391276583324
H          106.33061090017164      104.95714421869216       92.34464058826691
H          105.12294137590486      103.78639273659047       92.86233944451700
H          105.59761445736424      104.33866836626831       95.24142840690814
H          106.85842707829259      105.45900200605479       94.72536998275170
H          108.12747583937860      103.62837932912437       93.69377885473637
H          106.80357900133788      102.50546702134982       93.98953312089195
H          108.48114121357453      102.06487876525425       95.61453827901656
H          107.12816858647294      102.81267977037461       96.46178300297829
H          108.30413432074762      104.97863158049201       96.47647107870260
H          109.65336861414629      104.27800392796284       95.58447878677505
H          108.72921503822532      103.36104054664398       98.34485719772775
H          110.04456451162544      104.49749367613586       98.05513989610114
H          111.21884605657183      102.72530940580633       96.70252822048954
H          109.95997391570927      101.58279031036905       97.17019347286629
H          110.51534633685705      101.98591036129609       99.57399142068658
H          111.82849762750514      103.04831405005439       99.07640182634418
H          112.80697936422509      101.14414317572128       97.75009421808572
H          111.55770750424344      100.08542678354887       98.39588345257597
H          113.59077542631150      101.59116764947746      100.10266753771251
H          113.76739633202845       99.92195259892671       99.56727908965250
H          111.63524689615168       99.34429155728957      100.75750272852265
H          111.57309182625697      100.99838530955535      101.37397840429007
H          113.77024654677696      100.67413274754968      102.48217378531930
H          113.85681601176559       99.03668422454123      101.84251555037750
H          113.17028455528160       98.94271774323552      104.15285489154954
H          111.81871233978370       98.42398129355458      103.14056116370179
H          110.72978467802467      100.60489932658216      103.40843803504781
H          112.12685534200489      101.23201016061724      104.28092069024919
H          111.72375988457374       99.64532573597894      106.12243980587537
H          110.40311166521039       98.89892099149316      105.22506906132448
H          109.20681819329960      101.10573738840819      105.20585357939160
H          110.51440474509961      101.79882438946284      106.16134313318244
H          109.99946828479808      100.16489658732810      107.99659206307616
H          108.64464109538002       99.55395535240011      107.04256324781386
H          107.64250507620353      101.82778356930316      107.00620848673954
H          109.01899315691639      102.44220333211119      107.91884014096756
H          108.40140904875946      101.00490872356367      109.84295710927474
H          106.99242771731474      100.41659961219327      108.95677491273014
H          106.13312903620984      102.74554352082345      108.78779282109345
H          107.56386328231372      103.33806548143014      109.62918170519397
H          106.89520550360891      101.84215266531719      111.59259961569033
H          105.35953772171564      101.58562996696359      110.77197523386944
H          106.50501660356218      104.28205390571898      111.62490574365235
H          105.25881679640563      103.38443107743070      112.48790845547147
H          103.78310505822601      103.55028122431956      110.46784397393579
H          104.98811559824149      104.58618500734144      109.70291518417616
H          103.59506704440591      105.19008891965157      112.34727597230130
H          103.11450647469501      105.83009216698112      110.77977076195427
H          105.45051690945502      106.82707012761681      110.57179004106415
H          105.70015369788571      106.40769278151863      112.26985340293416
H          103.70862371031377      107.77954473019551      112.88421179689749
H          103.47969160234362      108.19117467596658      111.18783430582039
H          105.81292270084526      109.17286760727870      111.17913143847150
H          105.88259680283447      108.91081596766222      112.91814550678289
H          103.90244178227114      110.39165384351888      113.21914623462413
H          103.81376810816587      110.63199333900432      111.47870840877603
H          106.14122076411913      111.57434470606076      111.52821845741983
H          106.12956471185917      111.45160894959035      113.28572737968426
H          104.05312335705386      112.91853672692952      113.29228015934079
H          104.26293266170852      113.13257379377013      111.55850731320517
H          106.18577458792167      114.00663691104243      113.76172441309973
H          105.17209711593972      115.04332282074253      112.75268797322069
H          106.45015082901091      114.16879493377483      110.73557469840046
H          107.56074022716078      113.38220547467412      111.86172055114420
H          108.09004924324890      115.60729201453725      112.86666771552274
H          107.01329622587153      116.37374406913594      111.69480528692849
H          108.35423270915518      115.36648132037458      109.84280442521255
H          109.48897021190240      114.72794154802584      111.03293448108359
H          108.89270221686330      117.69677831424532      110.69208780359813
H          110.17315105247565      116.84786322980081      109.82887989766775
H          111.15344558485039      116.17752125384625      112.06082602484733
H          109.97129699548148      117.22567177454748      112.84363784763138
H          110.84123771931810      119.16939979217700      111.56599993220080
H          111.99706152084676      118.12447487999442      110.74523597186121
H          113.10508478615604      117.61476411258650      112.88761943387610
H          111.90174727305410      118.56141276108232      113.75994071192876
H          112.63445951434124      120.61615528366831      112.65354523218789
H          113.73549975535686      119.71585229217220      111.61458246881620
H          114.87491441930263      120.89227338618704      113.48951310889480
H          115.18938772758823      119.16087187870100      113.46292473837215
H          113.72023074497088      118.75990445473528      115.32030082936360
H          112.98102835126672      120.35160221772216      115.16757130787967
H          115.06496707927658      121.42969868876547      115.91184456495212
H          115.87936648364557      119.86766556977686      115.96402226324368
H          114.15223334853074      119.10184930476308      117.65033246356354
H          113.53864727718928      120.75332417476751      117.71074762389142
H          115.79780331260937      121.55191452269455      118.40128702822017
H          116.38550813533182      119.89228254041426      118.36754967882001
H          114.20852707779808      120.94637525352933      120.22362613860733
H          115.88861699565341      120.63471029581054      120.65268083502943
H          115.49382308809561      118.21165041278297      119.87106876644357
H          113.77017381581967      118.59583902983196      119.87986120640382
H          114.00601065083042      119.27764822314099      122.30499249820650
H          115.67768670913948      118.71920281493752      122.25014654220996
H          114.84764551333477      116.44612947766304      121.53979661834228
H          113.19476736689748      117.02436486414481      121.73017010498987
H          113.67960386166841      117.51948469866116      124.14329103269768
H          115.29324882726584      116.84891239690828      123.93805157176320
H          114.33767451825686      114.64981656907304      123.33506935107773
H          112.70967453627570      115.31588845253032      123.40857522747896
H          113.08848108779709      115.84961236511653      125.84787971129538
H          114.64011593595841      115.02128864084756      125.75327004922515
H          113.45361104371079      112.93270694825507      125.04308261509759
H          111.91381114052872      113.77804849129460      125.17488338251106
H          112.47272061447414      114.25363580909722      127.60573103927283
H          113.84387393189738      113.15721245479661      127.44501557835653
H          110.92628692552417      112.41372160854885      126.94179956645738
H          111.80311265536386      112.09721998292657      128.43834470976552
H          113.40790006985148      110.66142977099324      127.19438163512623
H          112.51731071245474      110.97510736728972      125.70209401672972
H          110.49009638338761      109.93190762868861      126.68036342324999
H          111.35746339540185      109.65376038502436      128.18961932750639
H          111.31046220121596      107.58539661961242      126.95654143888022
H          112.97190309672624      108.17533258528780      126.96295621241553
H          112.71310228514449      109.01871361831100      124.66378417878077
H          110.99971402158776      108.59234227481890      124.67805677942356
H          111.60808175236001      106.19030362914337      124.88144468398434
H          113.31893975608767      106.62002525002046      124.88142373896008
H          113.07026649486112      107.64241487444143      122.63205110050198
H          111.35206623113321      107.26571264326449      122.64172879983690
H          111.89212708437977      104.83107997438108      122.74326019556501
H          113.60998354673504      105.21747427380086      122.66863938630117
H          113.26867824699403      106.35684693700955      120.48847054458257
H          111.54669343511539      106.00351126601549      120.56012553373751
H          112.01128743444053      103.57906007118318      120.44177979676095
H          113.74722531953641      103.89380517729369      120.47306345910125
H          113.54459373172828      105.20219511788906      118.36716022421274
H          111.81260458915270      104.88941246744905      118.33529202143126
H          112.25106759250750      102.45480284129823      118.09566382359507
H          113.98639594776729      102.75707495840975      118.17737947966924
H          113.78217591338573      104.22785039554128      116.14692915192715
H          112.07490064709812      103.81581952297272      116.05285186816033
H          112.68006702359671      101.41225937781029      115.75336931290454
H          114.38840357157230      101.83842833049536      115.83293131352805
H          114.08905909599271      103.31477340055940      113.82826427358469
H          112.40202078359675      102.82493278173702      113.73970961155452
H          113.15556940106650      100.43373961507228      113.48569810998337
H          114.82598409829566      100.99577932379148      113.45785753467500
H          114.34629837330142      102.34375680968647      111.42636142429656
H          112.66152708178717      101.82496873646525      111.47692161045130
H          113.44850162334011       99.43594774754752      111.30823391092528
H          115.08928147982054      100.02692046701935      111.06099072026336
H          112.72193116751934      100.71980047144898      109.26434938346337
H          113.84096379999760       99.38890281959935      108.97437661014567
H          115.73085383880989      101.08439119711690      108.94695084125804
H          114.51081293101113      102.35863652793273      108.95964902456149
H          113.53116926203870      101.45354715092301      106.86587531666089
H          114.68227632512958      100.12217167458678      106.89656214301364
H          116.55596063171538      101.81357367046384      106.74599465858303
H          115.34305965029139      103.07328109988896      106.51153420166366
H          114.49604622224379      101.85165683292458      104.49657703407510
H          115.71086144994969      100.60657134555589      104.76585022284095
H          117.48150778476716      102.43952768109656      104.54841356246892
H          116.19649513715423      103.52696281956247      104.05226902764420
H          117.34587609806267      102.66295882139501      102.09794213739487
H          115.67731083151756      102.10420025690303      102.11095486192293
H          117.24754195373526      100.35842705440635      101.38681845147944
H          116.35348621226754       99.87697803257197      102.82109602718258
H          118.30828644408061      100.45985267781316      104.24554204971099
H          119.20340708260137      100.95977144626910      102.81081225163929
H          119.20807872928506       98.65131098802763      101.97438867285655
H          118.09015051284980       98.15624654297453      103.24819097171881
H          119.77730806312483       98.72415284185699      104.96800865937283
H          120.91939577350590       99.16975747514763      103.69879187310107
H          121.07581168541289       96.89988807283071      102.90952802507209
H          119.62639916566589       96.42226705141695      103.78937556883260
[...]
  3011   6 C     3012   6 C                                       1.5272659
  3012   6 C     3013   6 C                                       1.5268928
  3013   6 C     3014   6 C                                       1.5267759
  3014   6 C     3015   6 C                                       1.5290272
  3015   6 C     3016   6 C                                       1.5242687
  3015   6 C     3017   1 H                                       1.0929300
  3015   6 C     3018   1 H                                       1.0928813
  3014   6 C     3019   1 H                                       1.0929970
  3014   6 C     3020   1 H                                       1.0921257
  3013   6 C     3021   1 H                                       1.0917183
  3013   6 C     3022   1 H                                       1.0932988
  3012   6 C     3023   1 H                                       1.0927509
  3012   6 C     3024   1 H                                       1.0916724
  3011   6 C     3025   1 H                                       1.0912706
  3011   6 C     3026   1 H                                       1.0933451
  3010   6 C     3027   1 H                                       1.0915133
  3010   6 C     3028   1 H                                       1.0932028
  3009   6 C     3029   1 H                                       1.0931357
  3009   6 C     3030   1 H                                       1.0922580
  3008   6 C     3031   1 H                                       1.0935665
  3008   6 C     3032   1 H                                       1.0914178
  3007   6 C     3033   1 H                                       1.0913414
  3007   6 C     3034   1 H                                       1.0926403
  3006   6 C     3035   1 H                                       1.0924910
  3006   6 C     3036   1 H                                       1.0918918
  3005   6 C     3037   1 H                                       1.0932162
  3005   6 C     3038   1 H                                       1.0929334
  3004   6 C     3039   1 H                                       1.0910449
  3004   6 C     3040   1 H                                       1.0928991
  3003   6 C     3041   1 H                                       1.0934239
  3003   6 C     3042   1 H                                       1.0928513
  3002   6 C     3043   1 H                                       1.0912292
  3002   6 C     3044   1 H                                       1.0933254
  3001   6 C     3045   1 H                                       1.0929747
  3001   6 C     3046   1 H                                       1.0917500
  3000   6 C     3047   1 H                                       1.0914176
  3000   6 C     3048   1 H                                       1.0932855
  2999   6 C     3049   1 H                                       1.0934325
  2999   6 C     3050   1 H                                       1.0899700
  2998   6 C     3051   1 H                                       1.0934036
  2998   6 C     3052   1 H                                       1.0922471
  2997   6 C     3053   1 H                                       1.0919354
  2997   6 C     3054   1 H                                       1.0933671
  2996   6 C     3055   1 H                                       1.0915344
  2996   6 C     3056   1 H                                       1.0934854
  2995   6 C     3057   1 H                                       1.0928431
  2995   6 C     3058   1 H                                       1.0898489
  2994   6 C     3059   1 H                                       1.0929706
  2994   6 C     3060   1 H                                       1.0930321
  2993   6 C     3061   1 H                                       1.0931121
  2993   6 C     3062   1 H                                       1.0928054
  2992   6 C     3063   1 H                                       1.0896625
  2992   6 C     3064   1 H                                       1.0930491
  2991   6 C     3065   1 H                                       1.0933167
  2991   6 C     3066   1 H                                       1.0927346
  2990   6 C     3067   1 H                                       1.0932207
  2990   6 C     3068   1 H                                       1.0932521
  2989   6 C     3069   1 H                                       1.0913185
  2989   6 C     3070   1 H                                       1.0912587
  2988   6 C     3071   1 H                                       1.0936731
  2988   6 C     3072   1 H                                       1.0923172
  2987   6 C     3073   1 H                                       1.0914860
  2987   6 C     3074   1 H                                       1.0918804
  2986   6 C     3075   1 H                                       1.0903687
  2986   6 C     3076   1 H                                       1.0917954
  2985   6 C     3077   1 H                                       1.0924502
  2985   6 C     3078   1 H                                       1.0922303
  2984   6 C     3079   1 H                                       1.0929581
  2984   6 C     3080   1 H                                       1.0934343
  2983   6 C     3081   1 H                                       1.0910114
  2983   6 C     3082   1 H                                       1.0922184
  2982   6 C     3083   1 H                                       1.0938001
  2982   6 C     3084   1 H                                       1.0931524
  2981   6 C     3085   1 H                                       1.0911868
  2981   6 C     3086   1 H                                       1.0924056
  2980   6 C     3087   1 H                                       1.0931629
  2980   6 C     3088   1 H                                       1.0918715
  2979   6 C     3089   1 H                                       1.0925633
  2979   6 C     3090   1 H                                       1.0932928
  2978   6 C     3091   1 H                                       1.0932602
  2978   6 C     3092   1 H                                       1.0908685
  2977   6 C     3093   1 H                                       1.0922845
  2977   6 C     3094   1 H                                       1.0927762
  2976   6 C     3095   1 H                                       1.0928195
  2976   6 C     3096   1 H                                       1.0918027
  2975   6 C     3097   1 H                                       1.0925669
  2975   6 C     3098   1 H                                       1.0925865
  2974   6 C     3099   1 H                                       1.0910436
  2974   6 C     3100   1 H                                       1.0912329
  2973   6 C     3101   1 H                                       1.0930656
  2973   6 C     3102   1 H                                       1.0926855
  2972   6 C     3103   1 H                                       1.0921530
  2972   6 C     3104   1 H                                       1.0931186
  2971   6 C     3105   1 H                                       1.0913353
  2971   6 C     3106   1 H                                       1.0917432
  2970   6 C     3107   1 H                                       1.0934087
  2970   6 C     3108   1 H                                       1.0926059
  2969   6 C     3109   1 H                                       1.0932564
  2969   6 C     3110   1 H                                       1.0936693
  2968   6 C     3111   1 H                                       1.0924718
  2968   6 C     3112   1 H                                       1.0912308
  2967   6 C     3113   1 H                                       1.0918797
  2967   6 C     3114   1 H                                       1.0927984
  2966   6 C     3115   1 H                                       1.0924456
  2966   6 C     3116   1 H                                       1.0913287
  2965   6 C     3117   1 H                                       1.0925071
  2965   6 C     3118   1 H                                       1.0934383
  2964   6 C     3119   1 H                                       1.0937968
  2964   6 C     3120   1 H                                       1.0924981
  2963   6 C     3121   1 H                                       1.0912686
  2963   6 C     3122   1 H                                       1.0917517
  2962   6 C     3123   1 H                                       1.0932800
  2962   6 C     3124   1 H                                       1.0930338
  2961   6 C     3125   1 H                                       1.0932276
  2961   6 C     3126   1 H                                       1.0927017
  2960   6 C     3127   1 H                                       1.0912986
  2960   6 C     3128   1 H                                       1.0927452
  2959   6 C     3129   1 H                                       1.0915000
  2959   6 C     3130   1 H                                       1.0926647
  2958   6 C     3131   1 H                                       1.0927151
  2958   6 C     3132   1 H                                       1.0928067
  2957   6 C     3133   1 H                                       1.0921673
  2957   6 C     3134   1 H                                       1.0908290
  2956   6 C     3135   1 H                                       1.0918425
  2956   6 C     3136   1 H                                       1.0918937
  2955   6 C     3137   1 H                                       1.0930771
  2955   6 C     3138   1 H                                       1.0926035
  2954   6 C     3139   1 H                                       1.0915728
  2954   6 C     3140   1 H                                       1.0905456
  2953   6 C     3141   1 H                                       1.0927959
  2953   6 C     3142   1 H                                       1.0932657
  2952   6 C     3143   1 H                                       1.0929177
  2952   6 C     3144   1 H                                       1.0922815
  2951   6 C     3145   1 H                                       1.0916294
  2951   6 C     3146   1 H                                       1.0925864
  2950   6 C     3147   1 H                                       1.0923820
  2950   6 C     3148   1 H                                       1.0924245
  2949   6 C     3149   1 H                                       1.0918478
  2949   6 C     3150   1 H                                       1.0926826
  2948   6 C     3151   1 H                                       1.0928435
  2948   6 C     3152   1 H                                       1.0923761
  2947   6 C     3153   1 H                                       1.0926587
  2947   6 C     3154   1 H                                       1.0929189
  2946   6 C     3155   1 H                                       1.0920659
  2946   6 C     3156   1 H                                       1.0914995
  2945   6 C     3157   1 H                                       1.0924574
  2945   6 C     3158   1 H                                       1.0927830
  2944   6 C     3159   1 H                                       1.0930467
  2944   6 C     3160   1 H                                       1.0928845
  2943   6 C     3161   1 H                                       1.0925458
  2943   6 C     3162   1 H                                       1.0919903
  2942   6 C     3163   1 H                                       1.0923095
  2942   6 C     3164   1 H                                       1.0909689
  2941   6 C     3165   1 H                                       1.0929340
  2941   6 C     3166   1 H                                       1.0933962
  2940   6 C     3167   1 H                                       1.0932684
  2940   6 C     3168   1 H                                       1.0911479
  2939   6 C     3169   1 H                                       1.0913628
  2939   6 C     3170   1 H                                       1.0930830
  2938   6 C     3171   1 H                                       1.0924598
  2938   6 C     3172   1 H                                       1.0932490
  2937   6 C     3173   1 H                                       1.0911492
  2937   6 C     3174   1 H                                       1.0917424
  2936   6 C     3175   1 H                                       1.0923815
  2936   6 C     3176   1 H                                       1.0922037
  2935   6 C     3177   1 H                                       1.0921583
  2935   6 C     3178   1 H                                       1.0914787
  2934   6 C     3179   1 H                                       1.0929906
  2934   6 C     3180   1 H                                       1.0921274
  2933   6 C     3181   1 H                                       1.0928189
  2933   6 C     3182   1 H                                       1.0916483
  2932   6 C     3183   1 H                                       1.0933075
  2932   6 C     3184   1 H                                       1.0933139
  2931   6 C     3185   1 H                                       1.0909773
  2931   6 C     3186   1 H                                       1.0921884
  2930   6 C     3187   1 H                                       1.0938461
  2930   6 C     3188   1 H                                       1.0910525
  2929   6 C     3189   1 H                                       1.0930986
  2929   6 C     3190   1 H                                       1.0936134
  2928   6 C     3191   1 H                                       1.0915291
  2928   6 C     3192   1 H                                       1.0936898
  2927   6 C     3193   1 H                                       1.0923984
  2927   6 C     3194   1 H                                       1.0918866
  2926   6 C     3195   1 H                                       1.0924057
  2926   6 C     3196   1 H                                       1.0899988
  2925   6 C     3197   1 H                                       1.0924132
  2925   6 C     3198   1 H                                       1.0923281
  2924   6 C     3199   1 H                                       1.0925812
  2924   6 C     3200   1 H                                       1.0936636
  2923   6 C     3201   1 H                                       1.0912486
  2923   6 C     3202   1 H                                       1.0927916
  2922   6 C     3203   1 H                                       1.0920847
  2922   6 C     3204   1 H                                       1.0935181
  2921   6 C     3205   1 H                                       1.0928451
  2921   6 C     3206   1 H                                       1.0927025
  2920   6 C     3207   1 H                                       1.0919849
  2920   6 C     3208   1 H                                       1.0934070
  2919   6 C     3209   1 H                                       1.0926757
  2919   6 C     3210   1 H                                       1.0925348
  2918   6 C     3211   1 H                                       1.0920339
  2918   6 C     3212   1 H                                       1.0933977
  2917   6 C     3213   1 H                                       1.0919910
  2917   6 C     3214   1 H                                       1.0924796
  2916   6 C     3215   1 H                                       1.0917300
  2916   6 C     3216   1 H                                       1.0938642
  2915   6 C     3217   1 H                                       1.0918926
  2915   6 C     3218   1 H                                       1.0926087
  2914   6 C     3219   1 H                                       1.0921728
  2914   6 C     3220   1 H                                       1.0923303
  2913   6 C     3221   1 H                                       1.0921499
  2913   6 C     3222   1 H                                       1.0920820
  2912   6 C     3223   1 H                                       1.0914371
  2912   6 C     3224   1 H                                       1.0909796
  2911   6 C     3225   1 H                                       1.0915879
  2911   6 C     3226   1 H                                       1.0922832
  2910   6 C     3227   1 H                                       1.0929798
  2910   6 C     3228   1 H                                       1.0923199
  2909   6 C     3229   1 H                                       1.0930858
  2909   6 C     3230   1 H                                       1.0911627
  2908   6 C     3231   1 H                                       1.0920891
  2908   6 C     3232   1 H                                       1.0914533
  2907   6 C     3233   1 H                                       1.0931405
  2907   6 C     3234   1 H                                       1.0933812
  2906   6 C     3235   1 H                                       1.0933953
  2906   6 C     3236   1 H                                       1.0918464
  2905   6 C     3237   1 H                                       1.0925512
  2905   6 C     3238   1 H                                       1.0924431
  2904   6 C     3239   1 H                                       1.0925565
  2904   6 C     3240   1 H                                       1.0930048
  2903   6 C     3241   1 H                                       1.0911563
  2903   6 C     3242   1 H                                       1.0932444
  2902   6 C     3243   1 H                                       1.0923485
  2902   6 C     3244   1 H                                       1.0925104
  2901   6 C     3245   1 H                                       1.0917828
  2901   6 C     3246   1 H                                       1.0935611
  2900   6 C     3247   1 H                                       1.0925469
  2900   6 C     3248   1 H                                       1.0921602
  2899   6 C     3249   1 H                                       1.0922949
  2899   6 C     3250   1 H                                       1.0929788
  2898   6 C     3251   1 H                                       1.0929996
  2898   6 C     3252   1 H                                       1.0925625
  2897   6 C     3253   1 H                                       1.0877336
  2897   6 C     3254   1 H                                       1.0878552
  2897   6 C     3255   1 H                                       1.0878500
  3016   6 C     3256   1 H                                       1.0869301
  3016   6 C     3257   1 H                                       1.0879337
  3016   6 C     3258   1 H                                       1.0881472

 * 2 distinct bonds (by element types)

   Z      Z             #   av. dist./Å        max./Å        min./Å
   1 H    6 C        2178     1.0922937     1.0941531     1.0866915
   6 C    6 C        1071     1.5275010     1.5344429     1.5227791


optimized geometry written to: xtbopt.xyz


           -------------------------------------------------
          | TOTAL ENERGY            -3427.515713384846 Eh   |
          | GRADIENT NORM               0.000987024104 Eh/α |
          | HOMO-LUMO GAP              11.560491543704 eV   |
           -------------------------------------------------

------------------------------------------------------------------------
 * finished run on 2024/10/04 at 08:30:33.500     
------------------------------------------------------------------------
 total:
 * wall-time:     0 d,  5 h, 26 min, 23.375 sec
 *  cpu-time:     1 d,  5 h, 45 min, 44.144 sec
 * ratio c/w:     5.471 speedup
 SCF:
 * wall-time:     0 d,  0 h, 13 min, 42.816 sec
 *  cpu-time:     0 d,  1 h, 28 min, 58.760 sec
 * ratio c/w:     6.488 speedup
 ANC optimizer:
 * wall-time:     0 d,  5 h, 11 min, 58.792 sec
 *  cpu-time:     1 d,  4 h, 15 min, 48.296 sec
 * ratio c/w:     5.436 speedup

