3795
 energy: -5103.697902899161 gnorm: 0.000909275115 xtb: 6.6.1 (8d0f1dd)
C          107.22916577467267      115.63717247353867      103.76618833180352
C          108.64807831430768      115.43824387245120      104.22159433585404
C          106.56598385208228      116.80953492920050      104.48093400783914
C          105.07284979298137      116.86153427920091      104.18542291823519
H          106.72551758359700      116.71645833988940      105.55734713956448
H          107.03555735141160      117.73875996345679      104.15698103807487
C          104.38927257166215      118.01702053880493      104.90785768741615
H          104.93026465166066      116.96923423893860      103.10838190316710
H          104.60282914134172      115.92846307998522      104.50225320103597
C          104.76950846526846      119.38178697469314      104.36351751949623
H          103.30801485928353      117.92045658508933      104.78051097321725
H          104.60034360807676      117.98793838357453      105.97639415450064
N          104.49083217784822      120.38875716577286      105.19985839966971
O          109.19265951879122      114.32447412073154      103.73995676110619
O          109.23834449231337      116.17138424240508      104.98180137196276
H          110.09094979405396      114.15523538313374      104.13155118984251
H          106.67618338660266      114.71423132890548      103.95771980578247
H          107.21753524821986      115.78859291783660      102.68329676017623
C          104.58760634927357      121.79490446699955      104.86299440567751
H          104.17785544632957      120.15769950398369      106.13758813522098
C          105.28773629955565      122.56188431954847      105.98184691758139
H          105.12313383376721      121.87360043402123      103.91500847526382
H          103.57905176637576      122.20143284396993      104.70964993621433
C          105.31434162008557      124.07382868518813      105.77048865454263
H          104.74398006413688      122.35338837736487      106.90329924919908
H          106.30330782507576      122.18280791570363      106.09670419105123
C          105.85777465512933      124.79581755850914      107.00695533987536
H          105.92068807640584      124.31971957818226      104.89717598609012
H          104.29677892731287      124.41781559217409      105.57062480922143
C          105.68571204164734      126.31036025976600      106.90549312578854
H          105.31708999526471      124.43978915220212      107.88596043899049
H          106.91339735807075      124.55532164542679      107.14707456908225
C          106.02828547103090      127.04282992912107      108.20104835208230
H          106.30460912840599      126.69882034911241      106.09465852825211
H          104.64533897218487      126.53332145898807      106.66282641491128
N          107.44410783470391      127.00225054568992      108.50475468516635
H          105.71486824854161      128.09042228033067      108.11387196781973
H          105.50139870009446      126.59782631246117      109.04809975419379
C          107.94938035570101      126.84633630175257      109.73356063173820
H          108.07431982140864      127.10094039072462      107.72403531756257
O          105.25046417978990      119.54366797754103      103.24514696984102
C          109.45840209500773      126.93607692779868      109.82537433550279
C          109.88091605573243      128.20188464589825      110.58120234211655
H          109.81433622578295      126.05690778920810      110.36485612957389
H          109.89396626481131      126.92581740044604      108.82715567425548
C          111.39154959751534      128.41375996420089      110.50759458259657
H          109.37391034808644      129.06887016693639      110.15224334415566
H          109.56587471199481      128.11645294245315      111.62215003178274
C          111.87056441955019      129.52056841955476      111.44316743981933
H          111.90366199615194      127.48683494561209      110.76718746592242
H          111.66878814146510      128.67158781137448      109.48322023942646
C          113.31916181395465      129.90619076032976      111.20283276235175
H          111.25530592434271      130.41368486279512      111.32482646942411
H          111.78798152466722      129.20553815534021      112.48602781679807
N          113.67658515484538      131.04007320426265      111.79978256592214
C          114.96893221402240      131.68062935606872      111.67406078065200
H          113.00905351789268      131.48488546869271      112.42687133544484
O          107.24711446242374      126.67416177459823      110.72632668639254
C          115.45264290117325      132.21448811164032      113.01962180631094
H          115.66301513739266      130.94754038986162      111.26519381546299
H          114.87920295359366      132.51397024184064      110.96578541762312
C          116.65630281296774      133.15052419467042      112.89901950683284
H          114.62666732151537      132.76727917115346      113.47210667288790
H          115.69424227393839      131.37865546733246      113.67735742198403
C          117.94426237994097      132.45628166638502      112.45606751873578
H          116.41592936516777      133.95418514052562      112.19992678631247
H          116.82782307598454      133.60831955838592      113.87569613520802
C          119.13324267407175      133.41634088538959      112.50941068026640
H          118.14048300196460      131.61202201747187      113.11744908775327
H          117.82863075805278      132.07252544018786      111.44231142365039
C          120.46774647188558      132.73572384842370      112.20573824974535
N          120.52973802101516      132.25580811421642      110.84179470260926
H          121.28453609807461      133.44607854093792      112.37967950883717
H          120.61190716067865      131.87274230517031      112.85941632702848
C          120.92367417385485      131.02693284525435      110.48540251632912
H          120.25152847210427      132.90802411266384      110.12491363161216
O          114.08405340273826      129.23396047749026      110.50358756220922
C          120.81419482983173      130.72410146779322      109.00426926579446
C          119.35192096485879      130.73869217580432      108.54732930204203
H          121.38949159463068      131.45981220471268      108.44049099492841
H          121.25071885998045      129.73959348929117      108.83198718335589
C          118.51106798316010      129.73714978022724      109.33710669744930
H          118.93326478069876      131.73862464852812      108.68065418367394
H          119.29753313264730      130.49950893349219      107.48574361727169
C          117.01463009597126      129.87353370434892      109.05853991762302
H          118.83164347970909      128.72056214650817      109.10299704118916
H          118.68104580073786      129.89371608483467      110.40425148821535
C          116.58327066084998      129.27652233748159      107.73467742452345
H          116.43991337828346      129.38454147734092      109.84360656909294
H          116.73756291082620      130.93092319282803      109.04097591494512
N          115.32357312622425      128.82652309059478      107.73384677230631
C          114.71414926134365      128.19593620565442      106.58104207072105
H          114.77663768153738      128.88278846143902      108.58433745290903
H          118.97632151285728      134.23637504933242      111.80576864746962
H          119.20035034827423      133.84888755818722      113.50884696653165
O          121.32269538618608      130.19623973660146      111.29491717954669
O          117.31225998877862      129.21975381265491      106.74807011069548
C          113.19572038870589      128.18335968829695      106.68266108851627
H          115.04341385190762      128.73075544630248      105.68478794185023
H          115.07282851191206      127.16100622852385      106.49455272536565
C          112.59119310252918      127.35226260427088      105.55346863080227
H          112.91062920501307      127.74419654691948      107.64077157113877
H          112.81398079762933      129.20491508588950      106.64505155932113
C          111.06989513942153      127.28174368813676      105.63714540839285
H          112.88247269767750      127.77989420893736      104.59149203262636
H          112.99851634725559      126.34368562831939      105.61032826144941
C          110.44876363101054      126.48741630828103      104.48809631424635
H          110.78617444584869      126.80838389917621      106.57956961337322
H          110.66562153294031      128.29643816353590      105.62589591453140
C          110.73042618945119      124.98234165096753      104.56112907737719
H          109.36709271885177      126.62365690486570      104.51865678936062
H          110.80605048476824      126.87425305129518      103.53181376537997
N          111.97889381653590      124.60064925880455      103.93582795373597
H          110.76247124872646      124.65744257734126      105.60337592629877
H          109.92614131836876      124.44342579876904      104.05142395735170
C          112.99123160266878      123.98969917976400      104.55234631582164
H          112.03810876001188      124.70543646597613      102.93033542784995
C          114.16745356262270      123.68338655746385      103.64800281469631
C          115.14441028160624      124.86463193593093      103.62642067270900
H          114.67245109049601      122.78957491525095      104.01406694163970
H          113.79731433029710      123.50828272197511      102.63925623521254
C          116.21395083276570      124.72873256126810      102.54172968371113
H          114.58418970805879      125.78297216614938      103.43930824927698
H          115.62641533329730      124.95674779119052      104.60120668442090
C          117.07518416476516      123.47233253141434      102.69548424248828
H          115.73477860202057      124.71141996449647      101.56042565041905
H          116.86322419570611      125.60575266566588      102.58233025169649
C          118.18670059472906      123.46320474596170      101.65776993822139
H          117.51114829066007      123.43879828589539      103.69460259864744
H          116.46743428440597      122.58120321311800      102.53851682285452
N          119.28747728528722      124.12708379505921      102.02576558215405
C          120.48350083864746      124.19324952327122      101.21199726574592
H          119.34754317013559      124.55683040031798      102.94534983460775
O          112.99912374786773      123.72720931337041      105.75655685639668
C          121.29937233438380      125.43602345287394      101.55140169442929
H          121.08866806913369      123.29366713770240      101.38770168196565
H          120.18019635302323      124.18289721716052      100.16130558512788
C          122.69306527465541      125.39077692308064      100.92986619106873
H          120.77284777490659      126.32520591686315      101.20078867266254
H          121.38718839001420      125.49823082007693      102.63753982360615
C          123.54085860685696      126.59106157925494      101.34673305142016
H          123.20052586589520      124.47413240165102      101.23821847851016
H          122.60506742375844      125.36556708108336       99.84194127422374
C          124.95636700592826      126.49533151781353      100.77939697506626
H          123.06981057374107      127.51006845877990      100.99374957147343
H          123.58816324742193      126.63229649869098      102.43538807665907
C          125.78615388878943      127.74671207773537      101.03414594594980
H          125.46300403370566      125.63009450014837      101.21012791555783
H          124.90240495471230      126.34619327885352       99.69978612444532
N          126.01346075241679      127.96675674399280      102.44918847387656
H          126.75871738040058      127.66903634151217      100.53368100994609
H          125.28212503290281      128.62832746782098      100.62006565820246
O          118.06552387437110      122.90476506840257      100.57125693175981
C          126.77216746271655      128.97118558441090      102.90148681395760
H          125.58789470467057      127.32396200654321      103.10940185454636
C          126.87408161495556      129.03462438657897      104.41487768365103
C          127.77105389860623      127.91862252799264      104.96816885763316
H          127.27721684821283      130.00809011280890      104.69506608885739
H          125.87003041410985      128.94465770686492      104.82884965615486
C          127.47002439821831      127.60269812394436      106.43632658764514
H          127.63874291270282      127.00964941482199      104.37799496522190
H          128.81422187904676      128.21860351415972      104.85995747860967
C          126.39991404495255      126.51313167929845      106.59594641635104
H          128.38153652370355      127.23802727273457      106.91270314698264
H          127.15209998267952      128.50955911119939      106.95295526252507
C          125.15178603892042      126.79332095238281      105.78893304814427
H          126.81989917276559      125.56666421562804      106.24906816165137
H          126.13865286888684      126.42416271807325      107.65056708316743
N          124.22305025248875      127.53119920475480      106.39070075902657
O          127.33011462007576      129.77459648285819      102.15731714065356
C          122.93687165384037      127.81914184277922      105.79438626438099
H          124.43149277149560      127.96983081784704      107.28994661227492
C          122.67736210490870      129.31272621150757      105.61130340744602
H          122.91041279113405      127.31088131836529      104.82948264691177
H          122.15545637719336      127.39367065234812      106.43354720373264
C          121.24182837189805      129.57732155931683      105.15111713265543
H          122.85387535859647      129.81238501638182      106.56606100198728
H          123.38110972502945      129.72328310750308      104.88410836206003
C          120.97289364791425      129.11709234376011      103.71648889196324
H          120.55379463535608      129.07286171250459      105.83004903549943
H          121.04707731598475      130.64973609461543      105.21255451042869
C          119.50148384390857      129.27648906020082      103.30720422701656
H          121.60482272299964      129.70037909337663      103.04437563748351
H          121.25282811048645      128.07010850894653      103.60171486607815
C          118.68671182867493      127.99104184829697      103.48769746848471
H          119.03942713306307      130.07297865537797      103.89238017631692
H          119.43795309629196      129.55525097552277      102.25500744548096
N          118.67814832429134      127.55578279537599      104.86352294806167
H          117.65761992958322      128.16507661188592      103.15525715687589
H          119.11797052916246      127.18386336945242      102.89048335562359
C          119.19315110854407      126.40207727082721      105.28967865024867
H          118.26830496867548      128.19916974139707      105.53454915849193
O          125.00196564364995      126.33151658316359      104.65053730854254
C          119.20529438113699      126.24765944188363      106.80045438189666
C          117.85724896435356      125.73435554812798      107.31411385244763
H          119.99076232587673      125.53760792208905      107.06365539410879
H          119.41851111013263      127.21585269514617      107.25463568656534
C          117.58945949490021      124.30599330344486      106.85443010224166
H          117.84779910256928      125.77038996825259      108.40586310640801
H          117.06736096742191      126.39514963544381      106.95271861170842
C          116.27133948278161      123.75651422410300      107.39279151583746
H          117.58898102115785      124.26520231352735      105.76321433770430
H          118.39196357208660      123.65098551443150      107.19972567799219
C          116.14866973123780      122.27369172839705      107.10326686086158
H          116.26463712828637      123.87730926434332      108.47915065101303
H          115.41369791073485      124.28376888108694      106.97544610785501
N          114.93159301614388      121.86289966605052      106.73601769858686
C          114.63883265090624      120.48172657242412      106.41786172428951
H          114.20585767158151      122.54527592527397      106.51057717566799
O          119.62269087790146      125.52679079992279      104.54040264454638
C          113.20474045451833      120.10920261126745      106.77942965686655
H          114.79767266917584      120.30692119975582      105.34447553066161
H          115.35285193416304      119.86130775947470      106.96467463677908
C          112.88908332098791      118.66295115105576      106.39262389536002
H          113.04121029859060      120.24715194736265      107.84988725738019
H          112.53400438643817      120.78711749167823      106.24831081024362
C          113.43145431070920      117.63670573035078      107.38740237546894
H          111.80809960730916      118.53437323220179      106.31938534139344
H          113.30587440002066      118.46040119024369      105.40346755372852
C          113.14139027751624      116.21841904664814      106.90092783833190
H          114.50825873515588      117.76488226046088      107.50656801937886
H          112.96130395093397      117.79796424821643      108.35679954249647
C          113.66654687349960      115.12603899891289      107.83082079390938
H          112.06599272959271      116.09307623127714      106.77165901483359
H          113.60482334744935      116.08069504809349      105.92187759604789
N          112.90748954387298      115.06113976495480      109.05858952225358
H          113.60686381522973      114.16669295701782      107.30702585945778
H          114.72239600118310      115.31646893665835      108.06403279052982
C          112.84820208796901      114.05045003592497      109.92923783339887
H          112.31583433540258      115.88110557392322      109.28674973056162
O          117.10287449465287      121.50721597656178      107.23136549130889
C          113.54512805666046      112.75312934092638      109.56145238755884
C          113.06324833002093      111.56429964135390      110.39916812304870
H          113.32629292087687      112.54176706180075      108.51548950702467
H          114.62386892286217      112.89108181780294      109.65522042938447
C          113.18498808767811      110.25208760097168      109.62428246888341
H          113.62650860440257      111.49911986328972      111.33195777031075
H          112.01696416377669      111.72967035981415      110.66265770906803
C          112.70695936786815      109.03488012829028      110.42552733993048
H          112.60413490117374      110.32480224540750      108.70337804954819
H          114.22807263989564      110.08792554886764      109.34962796930166
C          111.29319202457181      109.21767989751537      110.93526078318742
H          112.72745121029124      108.15963006073608      109.77584178864309
H          113.36513326987094      108.86270790470128      111.27894509223320
N          110.36942100397694      109.29871015340215      109.97749132724874
O          112.22432792587102      114.18171955575738      110.98691221200401
C          108.97991415651104      109.62733138611671      110.21120530920072
H          110.65210160239162      109.10276291202466      109.02171431194849
C          108.05578177046759      108.96956390296728      109.18938523559913
H          108.72219627211126      109.32397357191255      111.22973582596509
H          108.86264613727182      110.71803472694693      110.14582857107092
C          106.69763001513209      109.66739799135172      109.14018459649050
H          108.52440040429460      109.03521672812977      108.20443048619214
H          107.93007181410161      107.91228616775756      109.42473493438088
C          105.79655446228382      109.12277725696646      108.03022335914659
H          106.19696215477950      109.56732173292811      110.10491178913513
H          106.86434936316166      110.73216531804572      108.96391248127101
C          104.63034744144061      110.07419153402860      107.76187303569701
H          106.38422459075612      109.00054338831129      107.11862644080040
H          105.40630474080604      108.14358983480024      108.31325588756539
C          103.62739801108661      109.53803586033025      106.74984077125700
H          104.09781832807670      110.24979821855409      108.69682540080127
H          105.01654219119376      111.03083836223948      107.40389610111983
N          104.24511293456476      109.28207876751877      105.46385416360954
H          103.18882426683543      108.60502782616189      107.11891828462119
H          102.81030703016731      110.25917050749031      106.61684628615239
C          103.60867806534785      108.67439257809239      104.46438608259108
H          105.21898780007255      109.53720687599774      105.33881714472476
O          111.03013406923682      109.29268481163631      112.13646758445901
C          104.44919392645369      108.38402031212675      103.24048039421612
C          104.76986800033633      106.88676648138845      103.17176004427877
H          103.87710668324094      108.66815273537283      102.35627312108193
H          105.37275736098147      108.95721037170220      103.28214612232260
C          105.72915630228307      106.45295931660010      104.27783851971706
H          103.83967781788091      106.31835635248079      103.24847866975381
H          105.21870082444552      106.66537965835866      102.20165166014911
C          106.05165521470512      104.95968014550296      104.17236798211333
H          106.65248380288088      107.03178789529711      104.20608324090472
H          105.28565739419902      106.65557592675576      105.25552750644754
C          107.11699596749359      104.56405721723648      105.17695453175962
H          105.14786354512439      104.37261757417356      104.33510286324416
H          106.44058138957440      104.74959213181894      103.17402745066977
N          106.67168672172640      103.85502324404651      106.21702693621569
C          107.51858403601433      103.33700753988104      107.27023787683623
H          105.67129615720842      103.70439246470478      106.32913502259797
O          102.42242478785391      108.34588942964241      104.52799318976244
C          107.06649778528656      101.94295492708409      107.69925974406326
H          108.53976012940979      103.32100572322973      106.88682378696674
H          107.48668214123956      104.01300911157352      108.13471030508217
C          107.74330824755775      101.48232277872062      108.99126632160635
H          105.98478677562152      101.96663320736977      107.84427513890540
H          107.27641931840490      101.23189753128877      106.89903070453497
C          109.22865757910139      101.17970696825834      108.80262358820208
H          107.61566582578043      102.25217802970420      109.75384729126041
H          107.24247937562851      100.57787876865289      109.34148250230281
C          109.88953445210234      100.58572363618481      110.04869379697300
H          109.33572133355894      100.46475762746111      107.98496688548103
H          109.76356833502477      102.08479263092754      108.51644285619436
C          110.15827413436470      101.60750176684527      111.14953306638462
H          109.26508090977539       99.78823185100940      110.45338784131619
H          110.84631749310731      100.15005760186824      109.75517355254091
N          111.09206836169201      102.60884092315254      110.68136057679604
H          109.24078042812799      102.11392959040342      111.46119537505449
H          110.57199690450297      101.09937259978712      112.03027522230657
C          111.20737273857576      103.82032347297057      111.21623538708864
H          111.70156941878152      102.33080482733205      109.91508777791138
O          108.29731987028292      104.88152248241400      105.03096827569843
C          112.18999692333108      104.74003370652950      110.51248366253735
C          111.75468747458248      105.04364814159223      109.07589944168429
H          112.24934435645059      105.66401638805303      111.09106753571285
H          113.17016274711806      104.26072370943984      110.50063029455200
C          110.36106113543782      105.66392780285105      109.02657529961344
H          112.46925165904803      105.73347693380285      108.62290982485554
H          111.76488143982412      104.11844560349569      108.49639491603240
C          109.88041787796300      105.90975119069755      107.59932557269599
H          109.65902580430384      104.98927779258653      109.52107934968460
H          110.36454832313736      106.60725942207689      109.57619772362409
C          110.44153672503043      107.15449696131826      106.93690527316706
H          110.10844823612716      105.05322253682083      106.96498453756499
H          108.79522222238890      106.03347542340643      107.59023438443197
N          110.10057301334139      107.25731531761944      105.64598390272558
O          110.56573959374245      104.18865917401395      112.20117329652409
C          110.37733418085119      108.43254064152184      104.85003311293221
H          109.53824198223327      106.52128203543298      105.23496245815859
C          111.12898721846341      108.12648095526811      103.55574136024896
H          109.43413932248986      108.93696091700701      104.61261927845590
H          110.98477087331197      109.09439966115889      105.47395440798613
C          111.60602597352013      109.42807734788263      102.91017481062235
H          111.98109328373450      107.48725958200316      103.78649495296861
H          110.48089132347138      107.58098306151732      102.86787708924183
C          112.55387957362090      109.22562074825811      101.72631817930582
H          110.73500254683643      109.99656293812009      102.57644488991434
H          112.11493708255738      110.02986891217699      103.66678084316042
C          113.92097365343953      108.69544388678645      102.15120953347876
H          112.10259091006441      108.54390294294696      101.00276828363265
H          112.69306471281118      110.18941367852266      101.22979567085711
C          114.94536394955064      108.71169868494621      101.02037497615626
H          114.30437272938322      109.30969049859451      102.96825750450375
H          113.83839545071375      107.66826601410217      102.50608678631717
N          116.17225182510455      108.05669212557787      101.46576655485286
H          114.56207818614706      108.14428755301246      100.16557026690154
H          115.11328420593496      109.74804464298190      100.68215145437358
H          116.53875952268726      108.55235422511993      102.27523754534788
H          116.87250670381496      108.12975083046173      100.73619758583702
O          111.10134865059884      108.00465783216882      107.52776134532346
C          120.07878290856800       96.50607519198442      115.78034802881999
C          119.77061967882808       97.03291416462994      117.16531560806530
C          119.35198128561463       97.25953302772854      114.66753184681318
C          119.79694430807015       98.71679502598055      114.56858208846080
H          119.54863264599366       96.75734749102773      113.71912239163491
H          118.27556551663905       97.22834558430846      114.84113164986444
C          119.13900266107962       99.40773310411650      113.36976494013878
H          119.51535595527220       99.24038176576596      115.48472726830575
H          120.88487547868684       98.76202365068660      114.47723675048971
C          119.47843870571970      100.88765648080117      113.34233097410224
H          119.47107862968670       98.93581541892898      112.44370742784410
H          118.05705916712041       99.29025858129684      113.43762458048317
N          120.74453400477331      101.14222509698004      112.97626509083193
O          120.82136240848426       96.96377077439541      117.95894020372214
O          118.68967462627373       97.45258584915038      117.51628534005563
H          120.65086722806905       97.27879066319694      118.90841374465511
H          119.76789531966021       95.45862073329872      115.77141676976562
H          121.15958802327360       96.53951043295312      115.63990508445896
C          121.36127976758641      102.45438914504903      112.95956057644123
H          121.32834396506298      100.37147191646005      112.69074786181241
C          122.81797904887577      102.34416516518054      113.40473926239430
H          121.29806241239108      102.87675051632415      111.95164293065541
H          120.78528681795673      103.09602359156806      113.62975882127969
C          123.59777222442609      103.65404866344021      113.28745897362948
H          122.84324960542062      102.00023380722661      114.44045752529344
H          123.31301808680540      101.58901310070151      112.78910146867318
C          123.70381950299218      104.15307948423650      111.84438612249404
H          123.12714945855548      104.41619830798768      113.90858337704711
H          124.60302116550506      103.47482748506148      113.67433231136471
C          124.91895659096542      105.05276585659726      111.62946948227014
H          123.79097755948965      103.29560620891901      111.17499501058835
H          122.79731536736210      104.69799428256626      111.57914702063442
C          125.00001633728357      105.53825845401863      110.18888957655712
H          124.87687829115882      105.91083307603205      112.29823419747854
H          125.83162491915915      104.49864845997625      111.85663592602994
N          126.21203692268809      106.30376751948216      109.97280973304261
H          124.98967844297064      104.67587617885202      109.51017269557730
H          124.14340359325033      106.16974696847403      109.93375591559889