3864
 energy: -5104.213535417577 gnorm: 0.000830526848 xtb: 6.6.1 (8d0f1dd)
C           42.95510983583774       60.04740866900504       38.52051988577995
C           41.80457069686218       60.58755149072626       39.08435180256618
C           41.54220099914406       60.32816808246012       40.42352019321739
C           42.38498552089767       59.52434039107382       41.17107619874920
C           43.51381176129579       58.97109144568478       40.59172641462084
C           43.80155234568729       59.24470661598237       39.26449816122380
C           40.85916500947202       61.43680657691805       38.27069433637874
C           41.57473804887325       62.68273406811236       37.74249691347661
C           40.24124507632804       60.63653291919334       37.11368738078978
C           39.31764748090969       59.50607308947475       37.59847036950562
C           38.10309329118466       60.09639462688989       38.26634274904590
C           37.91298622528630       59.95016528716223       39.63487800066476
C           36.84174448023539       60.55235049823183       40.26924102278228
C           35.93097167548898       61.29959893690783       39.54372754482078
C           36.09588291472677       61.43220525668617       38.17580818810482
C           37.17492061599263       60.83872797621941       37.54546962242465
C           38.95455167145260       58.58136151585889       36.42572228562318
C           37.89230741814798       57.52070522151532       36.76516084754162
C           38.18082748870106       56.82691404809317       38.07022115079206
C           39.43548377878382       56.29361129309308       38.34221318545360
C           39.68664504773981       55.65039453327920       39.54088883687927
C           38.68100093542223       55.51642486397858       40.48192753173825
C           37.42366808982730       56.02805618217128       40.21437271110167
C           37.17955415611546       56.68882767162253       39.02350410739818
C           37.79314432709388       56.51100413061474       35.60366486750672
C           36.45654571619425       55.75025691972115       35.53474098402823
C           36.18426307237397       55.27747404322983       34.12542273862135
C           37.07302177818293       54.42911115745346       33.47374314114533
C           36.78983711966392       53.93305288509868       32.21465914666292
C           35.60816489499066       54.27813593804127       31.58094131614562
C           34.72284924782621       55.13565648621508       32.20879244302140
C           35.01250567532676       55.63066124261680       33.46851207053995
C           36.39001680101183       54.53168571606867       36.46943993264068
C           34.95709934782399       53.97209250975281       36.53994840127991
C           34.14602180105935       54.72118342756502       37.56921795512564
C           34.39663025514136       54.57890805890930       38.93031845177044
C           33.64241602387075       55.25837493927025       39.86872213946695
C           32.62560946658744       56.10675185391313       39.46522727536713
C           32.37311323197027       56.26959380416177       38.11476950879417
C           33.12658571563944       55.58054340479122       37.17919827235004
C           34.94501773103694       52.46390774073775       36.81475297256846
C           33.53184423374170       51.86915711571048       36.67278653361806
C           33.15495285738260       51.79274764149437       35.21571220003027
C           33.58956427393567       50.74588802656329       34.41245125066941
C           33.27206486704805       50.70194353885820       33.06734261189369
C           32.52081367238250       51.71467045663216       32.49656256483178
C           32.07102580818021       52.75784181360198       33.28706479672760
C           32.38050018957733       52.79023270905758       34.63499946786401
C           33.45532579489875       50.50148597349040       37.37038014567801
C           33.02104354063981       50.63447230743984       38.84422763340365
C           33.59957566824421       49.49562330561019       39.65324430796634
C           34.95424961839785       49.54324423597666       39.97675317086210
C           35.56218429336193       48.52231589003181       40.68177613426398
C           34.82608011025508       47.41974480050168       41.08166399308621
C           33.47995622989141       47.36058875425466       40.77079608172326
C           32.87271818247429       48.38541652230727       40.06174780535835
C           31.49769197118169       50.76182627486043       38.90079486521813
C           30.95958769829796       51.25837243339789       40.26164727533462
C           30.05948481258709       50.23232972886915       40.90104476839886
C           28.85485109232798       49.86604760409322       40.31055617202213
C           28.03979406898035       48.91440750989556       40.89638004175564
C           28.42150411354765       48.30384492046696       42.07936116759500
C           29.62280016743638       48.65130921944196       42.67090300922927
C           30.43034229672292       49.61058393388679       42.08662671617938
C           30.23610720188714       52.59798787625780       40.05570708237691
C           29.58580533845882       53.16599736019486       41.32482768724939
C           28.54728709989800       54.19459996122360       40.95261693551695
C           28.87178816470222       55.28723038048819       40.15609550216819
C           27.91538147301014       56.22707941605470       39.81758828691757
C           26.61496538599132       56.09377933593446       40.27313634481218
C           26.27861253187308       55.00951175319711       41.06470039276957
C           27.23721643393788       54.06822349533780       41.39661910655769
C           30.62554057657604       53.77598171773518       42.27184993853308
C           29.98806694207963       54.22329142760272       43.59095544726717
C           29.38461054546248       53.06309391995784       44.34280418909304
C           28.07569196003433       53.14797585504906       44.80228210347514
C           27.49404107962793       52.10287701177129       45.49749764523492
C           28.21557912255706       50.94627380262974       45.73699642645740
C           29.52402153262537       50.85330502482733       45.29548293065825
C           30.10662274994142       51.90737710350611       44.61405370135058
C           30.99951031771082       54.95877479535191       44.48394094203969
C           31.23735402437698       56.41305318213173       44.04889102313889
C           29.94172713636838       57.18276567312564       44.10019362736816
C           29.34536848738892       57.52444266319615       45.30847238691022
C           28.14217975243399       58.20473861398550       45.33981157938212
C           27.50761907825768       58.55319663478996       44.15960172089248
C           28.08944538436455       58.21825538307641       42.94934382733473
C           29.29537605270482       57.54164695732548       42.92368425487881
C           32.32218644754378       57.05239877854214       44.92460438780228
C           32.51785785401836       58.54249994456768       44.61279046089740
C           32.91426035512442       58.74131578279621       43.17280412175932
C           32.06629557103400       59.40805797460063       42.29777268558404
C           32.41143487544508       59.57970797125882       40.96790280458216
C           33.61481811343459       59.08845573572564       40.49261743939128
C           34.47082071623101       58.42842805697627       41.35737718615858
C           34.12066357425557       58.25412036729687       42.68341475937550
C           33.54366980963504       59.14872013900385       45.57974457648847
C           33.79708950419764       60.63851543967318       45.31272483441661
C           32.50299271210752       61.40104023806973       45.17750021241508
C           31.53168429256992       61.35311473681491       46.17216750123058
C           30.34838571142037       62.05569459477339       46.03903359199236
C           30.11628482538888       62.82580104422724       44.91158858028932
C           31.08006182337174       62.89068480285487       43.92074197616758
C           32.26194964210222       62.18351049243844       44.05597988079140
C           34.62229436297742       61.28860032773621       46.43534360259385
C           36.05652674541667       60.75314576936707       46.56460070184934
C           36.58064199125449       60.97319638640278       47.96119775334535
C           37.13097562781681       59.91518924977007       48.67446960604171
C           37.60546730598957       60.09227824133348       49.96132808292531
C           37.52721436701695       61.33477534178692       50.56510019973915
C           36.99018210826972       62.39923765026904       49.86122590060295
C           36.52548264191823       62.22153515416269       48.56949470184187
C           36.99100262875411       61.40312658624173       45.53584530676951
C           38.36994596579576       60.73350230205590       45.51175666358853
C           38.27711113043465       59.25808069340313       45.20996689297251
C           37.62385851134807       58.79188264057758       44.07596215988416
C           37.56257258289788       57.43814921371811       43.80202051372964
C           38.14586124085150       56.52528453412930       44.66280995288820
C           38.81657187135870       56.97682494539650       45.78610077115608
C           38.88597028384111       58.33400945809869       46.05218444771051
C           39.30664677026181       61.38134243236165       44.48026193511024
C           39.68644804475491       62.84074632523896       44.77466715321473
C           40.50162780574315       63.37293329472742       43.62153488924005
C           39.98542285179182       64.36283068488132       42.79527583465299
C           40.72081122041451       64.85803425127071       41.73216508288346
C           41.98811727999826       64.36496319869501       41.47702417528060
C           42.50976030684650       63.36931222071986       42.28432562803168
C           41.77081486553389       62.87910724083254       43.34374541984445
C           40.43962569098112       62.97369162773288       46.10272725321869
C           40.84227697797667       64.42243592006913       46.40182162454244
C           39.63090375455151       65.31238613107054       46.50050785436343
C           38.64079653254070       65.08241473155965       47.44951955766365
C           37.53374471466753       65.90737568267406       47.53129710309253
C           37.39603159246170       66.97898541205267       46.66547049274273
C           38.37444177605706       67.21670147654925       45.71532967761316
C           39.48014254550553       66.38845841208591       45.63493241008110
C           41.67454971580021       64.47977870855195       47.68912960655766
C           42.24874530741602       65.87608442885762       47.96553587291137
C           43.02685847008404       66.38472746772355       46.77927462744169
C           42.67675838293589       67.58512853642696       46.17455558921264
C           43.37219958388415       68.05549553292867       45.07412307044601
C           44.43002236504888       67.32719834423391       44.55784254339341
C           44.79036897438498       66.13076844636518       45.15413595478605
C           44.09606952331796       65.66597502382241       46.25608947242487
C           43.12452580026305       65.81966403379414       49.22452339270467
C           43.79855372172171       67.15642845705747       49.56148992962862
H           40.04572679571641       61.76958530461960       38.92622098728334
H           39.67137418680451       61.32001402751779       36.48000594560840
H           41.03642230240933       60.20993203352595       36.50068552131847
H           39.86403829896800       58.91827100959220       38.34350929101561
H           38.58196366636735       59.18029694473326       35.59119717728863
H           39.86487431164145       58.08510261536205       36.08334950710628
H           36.92651806202661       58.03131773974838       36.85997747155098
H           37.90690279144007       57.06404452267621       34.66695583631201
H           38.62441843583009       55.80624261414180       35.66743335087052
H           35.65900326103468       56.44433187722494       35.82447487091046
H           36.72901634192169       54.81002414041806       37.46649426397288
H           34.49361327891901       54.11784970600182       35.55811081654402
H           35.60881938400784       51.96359061216794       36.10572779897213
H           35.32078605762731       52.26460767472274       37.81819143504225
H           32.83146043652590       52.55429023699932       37.16250361841466
H           32.73981246285462       49.85873634853568       36.85400124206263
H           34.42822529951896       50.01179872206910       37.31223121867171
H           33.45099214660389       51.56548832234539       39.23381666717469
H           31.19669409770434       51.46782590320216       38.12428518252544
H           31.03943780594969       49.80768659353155       38.63672138756498
H           31.80635614307493       51.42057569987782       40.93444051548823
H           29.08136848088244       52.34652572077339       41.84961172043771
H           31.40837714106044       53.04412147594436       42.47079661378303
H           31.08700771489757       54.63582625878898       41.78472689137213
H           29.17591794769390       54.92106655197175       43.35635786422275
H           30.61900622721069       54.96889544345126       45.50694552897058
H           31.94474374661610       54.41366907618207       44.48298029597341
H           31.59185233640303       56.42061356350726       43.01324774627931
H           32.05801962459958       56.94794974019734       45.97851516283352
H           33.25995622665358       56.51804635760189       44.76411532599516
H           31.55973530502834       59.04893854607407       44.77055326657276
H           33.18129059081689       59.01706885283058       46.60155051028757
H           34.48354662038105       58.60359338023180       45.48828633830109
H           34.34198507793912       60.73066644267223       44.36715997460169
H           34.65372087672216       62.36698864372465       46.25686412280863
H           34.09546181616393       61.12817317581368       47.37741859500777
H           36.04561956599001       59.67586444462506       46.37954287904063
H           36.53443835188281       61.34575862636811       44.54631620126796
H           37.10555534153190       62.46005044594628       45.78512230613636
H           38.81338491265618       60.83769465590105       46.50657513110012
H           40.22198387418944       60.78720769530942       44.42508932895021
H           38.83407499871637       61.34169614629986       43.49502343161177
H           38.77292741996398       63.44055867773806       44.84012722673098
H           39.80709802909909       62.61185617101282       46.91398668822478
H           41.33952976681562       62.35669501357727       46.07529692705104
H           41.46507742095729       64.78221779650448       45.57505370629195
H           41.05917210782285       64.17753305943521       48.53869620672698
H           42.49688401128658       63.76624378149545       47.60756725497190
H           43.20254912985010       60.26309472533683       37.49052425032862
H           44.68984592074163       58.83174398660009       38.80607067832136
H           44.16932262615349       58.33966033677220       41.17335442976954
H           42.15939881960968       59.32588831109724       42.20859100636127
H           40.66848824620029       60.76598532962912       40.88637045864279
H           38.61603966841781       59.36195272720359       40.20771834204429
H           36.71176789243574       60.44152570618125       41.33554123163811
H           35.09447964366368       61.77099035976217       40.03974540770241
H           35.38408475892850       62.00666025033524       37.59864072967558
H           37.29285071320818       60.96089765752394       36.47797069671343
H           40.22519955478944       56.38781088998235       37.61093862358486
H           40.66717349609190       55.24410169159624       39.73959322704501
H           38.87588258978008       55.01616378673464       41.41804512993446
H           36.62248025474123       55.90723952810739       40.92928413167071
H           36.19514861042658       57.09194201195793       38.82354989522962
H           37.99986110980963       54.15078247781579       33.95314978289702
H           37.48719387970146       53.26720720825274       31.72642990661031
H           35.38129750573854       53.88335482503714       30.60123230236347
H           33.80116614075413       55.41591938744379       31.71864293786956
H           34.31295975127819       56.30095524093345       33.94993344827015
H           37.05675601345516       53.75746368810447       36.08544518791118
H           35.19662348751979       53.93418864515262       39.26197755765891
H           33.84289212191189       55.13272548738227       40.92254688569580
H           32.04506358850291       56.65062961091402       40.19706799922180
H           31.58526158433133       56.93442897798796       37.78711128846086
H           32.91746611377820       55.71418648619821       36.12596717408059
H           34.16554087890825       49.94150338441826       34.84328546939176
H           33.61466848886081       49.87228899136453       32.46557015532780
H           32.27675041235992       51.68603710421318       31.44405570405512
H           31.47084864108663       53.54538612839845       32.85286445047548
H           32.00543623867778       53.59769665477562       35.24842377165761
H           35.54384441803733       50.39459915786512       39.66445745746891
H           36.61343965541737       48.58544900089026       40.92169356722430
H           35.29386553962097       46.61898037527596       41.63588396174571
H           32.88963177784002       46.50931589164899       41.08284534253964
H           31.81910551379238       48.30432311275556       39.84234779509607
H           28.54757301762579       50.32749600822149       39.38271190254765
H           27.10367424588173       48.64541895293892       40.42640214657955
H           27.78632147747642       47.55865141559887       42.53643241405006
H           29.92740514563289       48.16887433512928       43.58846365514276
H           31.36730996572970       49.87515214675164       42.55357433589999
H           30.95474949157422       53.31886691409394       39.65887962425849
H           29.45377126498532       52.46341282274548       39.30444351281118
H           29.88079498758692       55.40329262387445       39.78891133690026
H           28.18441635236529       57.07018204436991       39.19618273782521
H           25.86663720354796       56.82810299355869       40.01040201532977
H           25.26478609440409       54.89589130873959       41.42247127882476
H           26.96701344438146       53.22074636710298       42.01219951155441
H           27.50281333755390       54.04499528111094       44.60714336033983
H           26.47491279409610       52.19022305418250       45.84816041551317
H           27.75969360058222       50.12037327952039       46.26374794938297
H           30.08735132397904       49.95010283213795       45.48339818259576
H           31.13266424105376       51.82455481412956       44.29038610382833
H           29.82057582749523       57.26509027947603       46.24238239340789
H           27.69612345026770       58.46078059676634       46.29074385878246
H           26.56560250078686       59.08284679097448       44.18275375987930
H           27.60132254803476       58.48075956463778       42.02137961128490
H           29.73718709966885       57.28556141151049       41.97108393358122
H           31.12414806214171       59.79582646961670       42.66201937944155
H           31.73596889246304       60.09926442623088       40.30134602268789
H           33.88712007585810       59.21921902710550       39.45486663420949
H           35.41421928176633       58.05569094245547       40.98773686030366
H           34.79569866167381       57.73814870200496       43.34925755249130
H           31.69376101463432       60.75712559838455       47.05868037834297
H           29.60036015003032       62.00088906026172       46.81737346526064
H           29.18979477583670       63.37205701442973       44.80636555165919
H           30.90867257616704       63.49077273624042       43.03795307577424
H           33.00548531587992       62.23406992608103       43.27227159159526
H           37.19007753390781       58.94065136070026       48.21164205605180
H           38.04025845700585       59.26062428807420       50.49372499059533
H           37.88117307255496       61.47773393848390       51.57622044381848
H           36.93264624180605       63.37502266344693       50.32479084668564
H           36.11117513260091       63.06266365679591       48.03208189504991
H           37.15389070563022       59.48915001115362       43.39802718406993
H           37.06474486855612       57.09665960807477       42.90735677111160
H           38.08078662288144       55.46790843873959       44.45625867413245
H           39.28617036168566       56.27278924558582       46.45760797233012
H           39.41806678095086       58.68250384721210       46.92780043139070
H           38.99723392478304       64.75795998696084       42.99073310325574
H           40.30267791054000       65.63285332537079       41.10416905122795
H           42.57215618910941       64.75683974602907       40.65640965772990
H           43.49649481758409       62.97949825533486       42.08454270998352
H           42.19536080089946       62.10341874709090       43.96217337537264
H           38.72667340259832       64.24940989943373       48.13228736672654
H           36.77239812559290       65.71645107959370       48.27488667354383
H           36.53141254241697       67.62428014159629       46.72968002449841
H           38.27507156941249       68.05048804944805       45.03420430912092
H           40.23989036690913       66.57711966659883       44.88856047266739
H           44.39003377090562       64.73254565189394       46.71152975989041
H           45.61394962937766       65.55797355942326       44.75137319811805
H           44.96930429669351       67.68930894420477       43.69425639935116
H           43.08449107747898       68.99190491273222       44.61632363792898
H           41.84784282336888       68.15676998715617       46.57009322451390
H           42.36151559873721       62.41590291874281       37.04046864398421
H           40.87015925336541       63.33714253917631       37.23305026876199
H           42.01781602503517       63.23374893279109       38.56978628565010
H           41.41691773387360       66.56688977947665       48.14765166788322
H           42.50797416288482       65.49798393263822       50.06568009390226
H           43.90295257859012       65.06735918588603       49.08284501637345
C           44.66281439225389       66.98542905733201       50.81734930878244
C           42.79718502636732       68.26482195739528       49.75555444515149
C           41.77275603864106       68.15510153344465       50.68941774172411
C           40.86531186380081       69.18243417468088       50.87180711164120
C           40.96760303428429       70.34327956789753       50.12403343818642
C           41.98584930377874       70.46744853005561       49.19473301474839
C           42.89122101020657       69.43629437343390       49.01508391660033
H           41.67790403577307       67.25750017640378       51.28281357342303
H           40.07401750538443       69.07920832564166       51.60098353867433
H           40.25897893502775       71.14650673909306       50.26575488351410
H           42.07477290483361       71.37073302917550       48.60784183133565
H           43.68215920255255       69.54079563853031       48.28503235709671
C           45.57626755279869       68.18355680925691       51.09749331790889
H           44.01198277618311       66.82577226987897       51.67897960351564
H           45.28291380846203       66.09538126751420       50.69725775094897
C           46.49786121941736       67.85783807987217       52.23899743034873
C           47.69372608981536       67.18852283705401       52.00595147698366
C           48.52428943456542       66.83248855532797       53.05346327505512
C           48.16295410367207       67.13461371474666       54.35564317751975
C           46.97515875785943       67.80139060909401       54.60185015828373
C           46.15068958134624       68.16015619759908       53.54933651371528
H           47.97700347140630       66.94798418547570       50.99032277240161
H           49.45335875220226       66.31743197516194       52.85316692188437
H           48.81007252716364       66.85257777854501       55.17388070517541
H           46.68609630842387       68.04406662237174       55.61458781779063
H           45.22679701126055       68.68667102299919       53.74651781815234
H           44.45211638526077       67.42774385955624       48.72409369427022
H           46.16050325058738       68.40559131765067       50.20111970040572
H           44.96875276269459       69.06052871320681       51.33223952645099
C           43.04614430853974       53.69493040312221       52.99486758284762
C           43.73542965643369       52.50129127943850       52.81057657454394
C           43.58799611618697       51.49922292683213       53.76266697355415
C           42.76103969494823       51.68322010079715       54.85601683280355
C           42.05740584177617       52.86449716315916       55.01667548430662
C           42.20818051141090       53.87367418230800       54.08121677430226
C           44.56750009395797       52.28793829597183       51.57013850712308
C           45.99340501823104       51.84954913399466       51.91043977606127
C           43.89362433471520       51.24919274150365       50.66068981840743
C           42.45647813768556       51.63774266181019       50.29044066301987
C           42.38111316750367       52.92013818236811       49.49893017761398
C           43.09460641544811       53.07568603326324       48.31549479574556
C           42.98394388350257       54.23181493530355       47.56476651925956
C           42.14743806801518       55.25466328817853       47.97879074541691
C           41.42817157565941       55.11047331337684       49.15206620105216
C           41.54575262922432       53.95444950173628       49.90498038007876
C           41.77624221762355       50.51329560394257       49.49576013294915
C           40.25248921540364       50.75846904076215       49.34598367518861
C           39.54433315855502       49.68500564980368       50.13448675574416
C           39.42677553868828       48.37961600340257       49.67276993976978
C           38.86630470815235       47.39465883929955       50.46665151575919
C           38.43632203419985       47.69471308428788       51.74576242358461
C           38.55924815240573       48.98725062864268       52.22381633325058
C           39.10855315687655       49.97019266357017       51.42346251183406
C           39.83015252903903       50.87209598287039       47.87466357833801
C           38.65390891758378       51.82950106518832       47.60311719372759
C           38.66199286114166       52.10776282073651       46.11834897056628
C           37.96166404406165       51.32388499288365       45.20991086327058
C           37.99076533132832       51.61046224720719       43.85683153001285
C           38.76295193552523       52.65367030811877       43.37939138743480
C           39.49357853143833       53.41931395704759       44.27261357826615
C           39.43459033842831       53.15458378473449       45.62948804853375
C           37.31388761141007       51.28134396309844       48.10919929838014
C           36.10962103695430       52.11447183246161       47.63225356879017
C           36.12073139801849       53.49054677895150       48.24363483573249
C           36.43119650938009       54.59934896068756       47.46580985789632
C           36.45373453451929       55.87010708789061       48.01251516942050
C           36.17407234309032       56.05313466369016       49.35557502213989
C           35.85589334419689       54.95684110340071       50.13948096627296
C           35.82868420759372       53.69018441674228       49.58679623527090
C           34.78810443608900       51.38272557651430       47.89695063888372
C           33.60514574342735       52.03498628095543       47.16076022165488
C           33.77941448203402       51.86733617369089       45.67280858815180
C           33.62187699022401       50.62618750869841       45.06528643080997
C           33.81920254645576       50.47207376523679       43.70410686581899
C           34.17427902145613       51.56134856904315       42.92539873147266
C           34.33188364903189       52.80189271616485       43.51743612133911
C           34.13762529312983       52.95081332445842       44.87999063217192
C           32.27855561100749       51.43341892288933       47.66022004954090
C           31.62463750449287       52.28199982977509       48.76448418946316
C           30.85563485187182       51.41141862833640       49.72514818743431
C           31.22595913925883       51.32833644288910       51.06099921947460
C           30.51387052181228       50.54063602651544       51.94867874731162
C           29.41925206668344       49.81707102025062       51.51163123930858
C           29.04548604142336       49.88446866687804       50.17948458413130
C           29.75851726319479       50.67261931305873       49.29504634952333
C           30.70012231444242       53.34122380673885       48.14782726170888
C           30.27750849493664       54.39669726787072       49.18423163437740
C           28.83969166824908       54.82061545725031       49.03416729871741
C           28.29491542009837       55.10423548815898       47.78746845045025
C           26.98532291233999       55.52970777127926       47.66472042372802