3864
 energy: -5104.072124728098 gnorm: 0.000984054899 xtb: 6.6.1 (8d0f1dd)
C           42.94816340702573       60.08735632616426       38.56973688791996
C           41.78757156050185       60.60616725905631       39.13314062114836
C           41.51424711124822       60.31515937254887       40.46371763505444
C           42.35391784511948       59.49872155286311       41.20073420074873
C           43.49148103667137       58.96463007792389       40.62034858872649
C           43.79151496637518       59.27174441056287       39.30316176767558
C           40.84062118417868       61.46079540849278       38.32726824165554
C           41.54999782024618       62.71683420796973       37.81599431885563
C           40.23095853961735       60.66734315848030       37.16060694334050
C           39.31465573452975       59.52534559852241       37.63348072924243
C           38.09158491638927       60.10127267755923       38.29954589459889
C           37.90011012174859       59.95211730917828       39.66754817425917
C           36.82088479606153       60.54389093091335       40.29865147837178
C           35.90326681137775       61.28003404392319       39.57067087558963
C           36.06989467971902       61.41369652813512       38.20329124008378
C           37.15760876397696       60.83342560301963       37.57602688808746
C           38.96386503292725       58.60455992631006       36.45327907423282
C           37.90580520698647       57.53660040494634       36.78312125891104
C           38.19212689973856       56.84173974078553       38.08787887325069
C           39.44989651001600       56.31970442441261       38.36751097460310
C           39.69972828612579       55.67833596046302       39.56743007394421
C           38.68919648989385       55.53302117823062       40.50160622453838
C           37.42823505479225       56.03117487592782       40.22521845283084
C           37.18571547865430       56.69175953457440       39.03413660934815
C           37.81552154917527       56.52691656379360       35.62068804812277
C           36.48360692070103       55.75807175534717       35.55102539979393
C           36.20863896426201       55.28146295688956       34.14300846710240
C           37.10149923429464       54.44069918421565       33.48756305444189
C           36.80939436344565       53.93115503517284       32.23571992618805
C           35.61579282997499       54.25597811404382       31.61418983730156
C           34.72813433059920       55.10884019600387       32.24456796806172
C           35.02575634278460       55.61686998624178       33.49698504525690
C           36.42374922873301       54.53678123200645       36.48373631443720
C           34.99269339090235       53.97190247281423       36.55477313975253
C           34.18128496363509       54.71237272337012       37.59040562571212
C           34.42864578563350       54.55614190926755       38.95055269129701
C           33.67218153977775       55.22680660653802       39.89389260852221
C           32.65804920178940       56.08112398283021       39.49646002958455
C           32.40983690041865       56.25832313962440       38.14708912469091
C           33.16395457716528       55.57720748000079       37.20663159024161
C           34.98263389130971       52.46166766394366       36.81810132903015
C           33.56945850013388       51.86747993966284       36.66932255493743
C           33.19990831063430       51.79176395781004       35.20968106335183
C           33.62499102999261       50.73679065625723       34.41244499231556
C           33.31493594731540       50.69435712650825       33.06542416863193
C           32.58257241712876       51.71697598455413       32.48832321487155
C           32.14183473717278       52.76770222939297       33.27351272140309
C           32.44242949179637       52.79865850956941       34.62335632978327
C           33.48793254718316       50.50086752363877       37.36763593100036
C           33.05768860333642       50.63673753625554       38.84251282221206
C           33.63672753222291       49.49891919116464       39.65261100468953
C           34.99506449998773       49.53865928451979       39.96139893014532
C           35.60325820484024       48.51740295610591       40.66611028916618
C           34.86310703306238       47.42369203105885       41.08289001993438
C           33.51301357729375       47.37333670119796       40.78784408855391
C           32.90632167907684       48.39674162948099       40.07658064629248
C           31.53467249373861       50.76747784373494       38.90326237769072
C           31.00162750583504       51.26571089530184       40.26560027918629
C           30.11318379418021       50.23476686033846       40.91450347137304
C           28.89400430122163       49.87879659307895       40.34863505396971
C           28.09093555840318       48.92290143454207       40.94370382845864
C           28.49994743751553       48.29678079761199       42.10895826336603
C           29.71698793940904       48.63229251715085       42.67419658723990
C           30.51197354493766       49.59754707074348       42.08250663881469
C           30.26937634359535       52.60078641457455       40.06066129207466
C           29.61756390775442       53.16179103693139       41.33146861021805
C           28.57519040403241       54.19125533987623       40.97138193288517
C           28.88906826706245       55.27970936519648       40.16551989119775
C           27.93047544989759       56.22458152840707       39.84707806298676
C           26.64058446248348       56.09969202108365       40.33320933122054
C           26.31565201485134       55.01909767936042       41.13421373822022
C           27.27531954446789       54.07231138596129       41.44593362788644
C           30.65683142398087       53.77176794790277       42.27934844028186
C           30.01990813335479       54.20977907114334       43.60150075742983
C           29.41942260906621       53.04638637822453       44.35102323789518
C           28.12003245410161       53.14017422880536       44.83537973671545
C           27.54109626738736       52.09350918865520       45.53016666379552
C           28.25468327410842       50.92687278649741       45.74341236266559
C           29.55432760122698       50.82557097950635       45.27851906644608
C           30.13498526397004       51.88127580935866       44.59736744796701
C           31.03054034018589       54.94370351313669       44.49620527196860
C           31.26742345593632       56.39866135089189       44.06431022429129
C           29.97383956606433       57.17187366249389       44.13085225663767
C           29.40155926618423       57.52991091011681       45.34584963548766
C           28.20096202533541       58.21429805350586       45.39031738016004
C           27.54596598325401       58.54803254309233       44.21732443239711
C           28.10387797585743       58.19618765766191       43.00087507218424
C           29.30800943154927       57.51700332440173       42.96124081596235
C           32.36391590931599       57.03198738316005       44.92944505818880
C           32.55207769730374       58.52323848700093       44.62097845414809
C           32.92780993785907       58.72728832588434       43.17609005829438
C           32.06459249174426       59.39152231742732       42.31408434532172
C           32.39177583074290       59.56630281499893       40.98028499280916
C           33.59081236094103       59.08138035117926       40.48790629881919
C           34.46121470013336       58.42334177783290       41.33974010122122
C           34.12931331774929       58.24545781950783       42.67018479909721
C           33.58700176983940       59.13136666717687       45.57619217424885
C           33.81940553226114       60.62600110033314       45.31476688741539
C           32.51141088413682       61.36832086339422       45.19204911352874
C           31.54550907324803       61.29296648692515       46.19004966542774
C           30.34498723949906       61.96672520154441       46.06186929991998
C           30.09262057536995       62.73574195190145       44.93838091882562
C           31.05208883387719       62.82914247942686       43.94601383617287
C           32.25057960801233       62.14921759842272       44.07428551227579
C           34.64540663603169       61.28080368218999       46.43323298881154
C           36.08024249317456       60.74633358323698       46.56198694562008
C           36.60828843296268       60.97105974871042       47.95636773933613
C           37.16377800906792       59.91538100462134       48.66902527908851
C           37.64097017406023       60.09504200357070       49.95457268112560
C           37.55956733644009       61.33767470873273       50.55765558121922
C           37.01750741678913       62.39978731979970       49.85406438894863
C           36.55065001899988       62.21984678154282       48.56360078219738
C           37.01227944827620       61.39180842359092       45.52811565422409
C           38.38970931838286       60.71862409042023       45.49922093328122
C           38.29184876537529       59.24496891077289       45.19284474763558
C           37.64062972743194       58.78499490732264       44.05515080077976
C           37.56851922310674       57.43243097887839       43.77954855863128
C           38.13772199049424       56.51323195696224       44.64310591523891
C           38.80918531170417       56.95802084528980       45.76879234922605
C           38.89062350752292       58.31451622647094       46.03566540948448
C           39.32667458968638       61.37093364463328       44.47021153334527
C           39.70636290195308       62.82709517835152       44.77880641341505
C           40.53707335043465       63.36784673067999       43.64008795080487
C           40.01800214744383       64.34191366028521       42.79716523972087
C           40.76802100570706       64.85017160272007       41.75087659420662
C           42.05398074668312       64.38943541353466       41.53209590433311
C           42.57903110418035       63.41019075725711       42.35684238855720
C           41.82403320493457       62.90308553274947       43.39704943949987
C           40.44097081916428       62.95000941523680       46.11829350910569
C           40.85392288673876       64.39503885685414       46.41887547027913
C           39.64752520182077       65.29294123094280       46.51101960482916
C           38.65712830703069       65.07355437212320       47.46178207867166
C           37.55249644429175       65.90264656849713       47.53537312350705
C           37.41974913793875       66.96674968206270       46.65995732562036
C           38.39958894168755       67.19376965497740       45.70896730761672
C           39.50278957310904       66.36174499878723       45.63571180483316
C           41.68416420350493       64.45006281263825       47.70711993667415
C           42.28117110880642       65.84088134526796       47.96172718612772
C           43.05500915871963       66.31949554496484       46.75947470712633
C           42.72037687779061       67.51983966978385       46.14593840433430
C           43.39963809256908       67.95459909413883       45.02122138674221
C           44.42211449646143       67.18944886535415       44.48770737712962
C           44.76824916276396       65.99385855732973       45.09365775543397
C           44.09303806848047       65.56595108614631       46.22240587316496
C           43.16242334443015       65.78919963318350       49.21633794386814
C           43.83668321849745       67.12829481271511       49.54400632164010
H           40.02385532649819       61.77914926829841       38.98447662019750
H           39.65604291597816       61.35277263128222       36.53430918137951
H           41.03026346312166       60.25247978765963       36.54450739437494
H           39.86311244060445       58.93668070388862       38.37669480613638
H           38.59148229227255       59.20495341727376       35.62023234625050
H           39.87876916989833       58.11494622902406       36.11352258635796
H           36.93735676219683       58.04082142462199       36.87617494013003
H           37.92674887186345       57.08137736971280       34.68481278683865
H           38.65213497988851       55.82794531931171       35.68503884240552
H           35.68327125830875       56.44659944289939       35.84480479749097
H           36.76429358081138       54.81085022003673       37.48182061038040
H           34.52771253477027       54.12190128009546       35.57485237514755
H           35.64905436340727       51.96698261122112       36.10687683484179
H           35.35990043755278       52.25447100837354       37.82028837306346
H           32.86857491458152       52.55340569584885       37.15754618302719
H           32.76787826396340       49.86151910285395       36.85399947680727
H           34.45867544397556       50.00623227231049       37.30777441835760
H           33.49148994466843       51.56736742464338       39.23070193106207
H           31.23516369983311       51.47521253784486       38.12774040468348
H           31.07451086172137       49.81412481933549       38.64068034336216
H           31.85330885298552       51.43588504646728       40.93147818390649
H           29.11973678341596       52.33783448591960       41.85458509093758
H           31.44650198420989       53.04482733902602       42.47328301482160
H           31.11452958850755       54.63602870995601       41.79555613230283
H           29.20791502979550       54.90845279314826       43.37181819474117
H           30.65074563833508       54.95217915147632       45.51985283180544
H           31.97694842273560       54.39843534076346       44.49696676794554
H           31.61434207489492       56.40726654681987       43.02591455464419
H           32.11623931661374       56.91993199695085       45.98733597556974
H           33.30090641894764       56.49774619042334       44.75553972940412
H           31.59460019374252       59.02394544404359       44.79424474164102
H           33.24270059596806       58.98759257467454       46.60305514702659
H           34.53044697960988       58.59361103173315       45.46747298769112
H           34.35622965692197       60.72712466381398       44.36543124284453
H           34.67649084021416       62.35791437226271       46.25049449132506
H           34.12149199450448       61.12131097684436       47.37688360485818
H           36.06978857581564       59.66777237308460       46.38211929076402
H           36.55213500488260       61.33250456128053       44.54071541396199
H           37.13219289136575       62.44773735863592       45.77658320388842
H           38.83521466687527       60.81503382608105       46.49387086233988
H           40.24146963496455       60.77550095037432       44.41003578559200
H           38.85324662347374       61.33863431883279       43.48536983886043
H           38.79309455178628       63.42707247940526       44.83713520285350
H           39.79371182543873       62.59531791055683       46.92157071413477
H           41.33379309618022       62.32103140716364       46.10494501054490
H           41.48256466035920       64.74632127878847       45.59370370763681
H           41.06349966395827       64.16788884801464       48.56039202044574
H           42.49415205042541       63.71999219878222       47.63682645865425
H           43.20713308858913       60.32984029171656       37.54866949534660
H           44.68722368132748       58.87355097092210       38.84503292358978
H           44.14450960947624       58.32297845034372       41.19432281916501
H           42.11975848597904       59.27313256265423       42.23082155079041
H           40.63462671638563       60.73660829271028       40.92898767284186
H           38.60706882444487       59.36926000742837       40.24176921335037
H           36.69064208148366       60.43222032692368       41.36485816563511
H           35.06144212255169       61.74100987809189       40.06592163365762
H           35.35380981254426       61.97906627904630       37.62400931689431
H           37.27921856555199       60.95648104399043       36.50936653357393
H           40.24471803552079       56.42152796598735       37.64285292253845
H           40.68388528978268       55.28355191164851       39.77332833936056
H           38.88377990655075       55.03563996631507       41.43972879213597
H           36.62380318168733       55.89929009683131       40.93476874156001
H           36.19901243384510       57.08414434255713       38.82890462819109
H           38.03792887998251       54.17892028849912       33.95902593236852
H           37.51036697030203       53.27079203879536       31.74554431062283
H           35.38312478064645       53.84977928889268       30.64126297041991
H           33.79878851741664       55.37563558528663       31.76308135972794
H           34.32583287664190       56.28328211990915       33.98231997360919
H           37.09323501141046       53.76543922407186       36.09696839182303
H           35.22732334408224       53.90672193989902       39.27871534046930
H           33.86988134789036       55.08740365552724       40.94711824386516
H           32.07734522393665       56.61648012630872       40.23349506590573
H           31.62451607128149       56.92734960870062       37.82530479679519
H           32.95833781433416       55.71983664006532       36.15468504788000
H           34.18738177275784       49.92628166760071       34.84968751055127
H           33.64941087757111       49.85791741015340       32.46958284049540
H           32.34474413169711       51.68912871775160       31.43500122186595
H           31.55433047543991       53.56187202320810       32.83559294024241
H           32.07322311162598       53.60994076749079       35.23501368070360
H           35.58916388397738       50.38325205665862       39.63702518129143
H           36.65858542357762       48.57561591566166       40.89146124268684
H           35.33244625603135       46.62434734001828       41.63711693309955
H           32.92035163802556       46.53046736352637       41.11421317576031
H           31.85091671761967       48.32310774215537       39.86752927080996
H           28.56746114858917       50.35278610320667       39.43427349998144
H           27.14320904129435       48.66345900122509       40.49371203293391
H           27.87509890811813       47.54853924318176       42.57342202440319
H           30.04574106487580       48.13747776609979       43.57631996562849
H           31.46135603743108       49.85527903426523       42.52864554489199
H           30.98432300400078       53.32583952008202       39.66361871412026
H           29.48735886905349       52.46207267736816       39.31041234875075
H           29.89084090879057       55.38830760933340       39.77626564350287
H           28.19161380877163       57.06364036675780       39.21736898163905
H           25.89132838380669       56.83764823747433       40.08567908232904
H           25.31027733369790       54.91172569271170       41.51530350990731
H           27.01644167911775       53.22687939461809       42.06834203460659
H           27.55507961593673       54.04514933499841       44.65926528102244
H           26.53068026442372       52.18768126379389       45.90084722558319
H           27.80150501385612       50.09842192853293       46.26725535728534
H           30.11431451685913       49.91681056952342       45.44801902995884
H           31.15440873832895       51.79203561893983       44.25333421924007
H           29.89537890239120       57.28106167514862       46.27329976193722
H           27.77537883422554       58.48317410299171       46.34639481674849
H           26.60642595188094       59.07988414626318       44.25142137133099
H           27.60100841007775       58.44704469146642       42.07854998275528
H           29.73422348856372       57.24766281673270       42.00550374639879
H           31.12674592118018       59.77238891525018       42.69293138397106
H           31.70585523981767       60.08264765793926       40.32391872680623
H           33.85047988178567       59.21310811511781       39.44772378395876
H           35.40167255829131       58.05357132905036       40.95935683884198
H           34.81422755197954       57.72866887380647       43.32648058462417
H           31.72501703527517       60.69660936093043       47.07307859113482
H           29.60153666746475       61.88893286682121       46.84194129126235
H           29.15332760243542       63.25939286711304       44.83768315566112
H           30.86565486154664       63.42898270681407       43.06680007580267
H           32.99144266143377       62.21817425646356       43.28971741387982
H           37.22417147731550       58.93967751068674       48.20762855254477
H           38.07960596414605       59.26335330464330       50.48480832062035
H           37.91481690274993       61.47964523236480       51.56771947940823
H           36.95774748835948       63.37439498558983       50.31734908878678
H           36.13240393649617       63.05747282969980       48.02518245539806
H           37.17979011128529       59.48621052939468       43.37625656609362
H           37.07240577894476       57.09530316786856       42.88258453455685
H           38.06120363098402       55.45612668303966       44.43735041504326
H           39.26923850924570       56.24886667538755       46.44203035145212
H           39.42358517369527       58.65579838786042       46.91375032104081
H           39.01681041600435       64.71286312744671       42.96812638652445
H           40.34722341223442       65.61106051211293       41.10927982441243
H           42.65170114110680       64.79246993211643       40.72777185420045
H           43.58014312989635       63.04439971057468       42.18666787390018
H           42.25085401406655       62.13950836568215       44.02986545764931
H           38.74219817267213       64.24596389076116       48.15176876203144
H           36.79109104495414       65.71946454626485       48.28048269429608
H           36.55722510210202       67.61447723932521       46.71839882928819
H           38.30383319535586       68.02156502979882       45.02113234556866
H           40.26450893048330       66.53931024165090       44.88947094375339
H           44.37407802980179       64.63152074036718       46.68531611095376
H           45.56362921912925       65.39108734071341       44.67800350802067
H           44.94593362946461       67.52051384944249       43.60309880780778
H           43.12441831629917       68.89068308820568       44.55667236360588
H           41.91562345242332       68.11600365013994       46.55314570815685
H           42.34098598732329       62.46294827015489       37.11367969532133
H           40.84198689420047       63.37071513151204       37.31157079218294
H           41.98578832925579       63.25993308841613       38.65183412772152
H           41.45978921061588       66.54389124451997       48.14042320564305
H           42.54955193071082       65.47006567658759       50.06196207060969
H           43.93923099143209       65.03429333235520       49.07530829186864
C           44.68975919646589       66.96697554685868       50.80875305342014
C           42.83500067154379       68.24010080093544       49.71958664966959
C           41.80149645077656       68.13845346352099       50.64400933084242
C           40.89276084096903       69.16781125697982       50.80734658424998
C           41.00375422769805       70.32141730912663       50.05021626874959
C           42.03131853395631       70.43696906967335       49.13052205267687
C           42.93812244739502       69.40421854361801       48.96918839121651
H           41.70029376897931       67.24541158280894       51.24390585925295
H           40.09420965874696       69.07029223489816       51.52901732728900
H           40.29397211285829       71.12554998630833       50.17749050226442
H           42.12713534985733       71.33446323977684       48.53660350033218
H           43.73676853114412       69.50023473732993       48.24687768835899
C           45.60966392549383       68.16139274154703       51.08392458818238
H           44.02936726162305       66.82218346835188       51.66584838517038
H           45.30327047469805       66.06978191533844       50.70600449872792
C           46.52967942461643       67.83283790174541       52.22586230727914
C           47.72717680646890       67.16675391058583       51.99181554270863
C           48.55710804600862       66.80802318718111       53.03908060714288
C           48.19313678136735       67.10435783497357       54.34194669483283
C           47.00364810707867       67.76790834815107       54.58906117596176
C           46.17968913943335       68.12865119366548       53.53692923664029
H           48.01357433279138       66.93143676923548       50.97598399521837
H           49.48797291592065       66.29604783499236       52.83834191340802
H           48.84033235470087       66.82010830369437       55.15975358807738
H           46.71413121194397       68.00673126490641       55.60240854752179
H           45.25533941097318       68.65293334472945       53.73517574762507
H           44.49668706043754       67.38769930026989       48.70826611368646
H           46.19507869773774       68.37633287869767       50.18698612078849
H           45.00651257044718       69.04125860928343       51.31638016135484
C           43.04367949414291       53.70037954225895       53.00003716134141
C           43.73688666477036       52.50766201991621       52.82443978272827
C           43.58735788744178       51.50844878867500       53.77923507845625
C           42.75344656614340       51.69451535119649       54.86709611124601
C           42.04605661915701       52.87462775800761       55.01973420731720
C           42.19998531152260       53.88095949016220       54.08176229059733
C           44.57383055629563       52.29052816809568       51.58738926852399
C           46.00037590807190       51.85789779481007       51.93305080391713
C           43.90423865849182       51.24567087662925       50.68148817438484
C           42.46812878395306       51.63296756481896       50.30543337793820
C           42.39504262057533       52.91404887623602       49.51073514829928
C           43.12380812466125       53.07386730603913       48.33722093915841
C           43.01580675306641       54.22927965035611       47.58475730038236
C           42.16514630317570       55.24569388665010       47.98546422134486
C           41.42985576012738       55.09665289142745       49.14819479658566
C           41.54668713929660       53.94277408570537       49.90454692761407
C           41.78980051167578       50.50586394312200       49.51248694093559
C           40.26645820346643       50.75028691906600       49.35909485072297
C           39.55207956382417       49.67548991194430       50.14123382467866
C           39.43621704850619       48.37148849894912       49.67571120688062
C           38.86113507172766       47.38798614920555       50.46118085373500
C           38.41600321910278       47.68862708639614       51.73480545672536
C           38.53961080560070       48.97931214021649       52.21754030706984
C           39.10358440444642       49.96087657353264       51.42572777724988
C           39.84838469397884       50.86847533486441       47.88673595528523
C           38.67464419123579       51.82901978068248       47.61552965189481
C           38.68592688396936       52.11160688640179       46.13132343481199
C           37.98386287276985       51.33259680537883       45.21991786151107
C           38.01099254219655       51.62673581309291       43.86846730726375
C           38.78322718587699       52.67199345163451       43.39578954180247
C           39.51815261478300       53.43074187710086       44.29161435707009
C           39.46076524597277       53.15903053478858       45.64728531620508
C           37.33168201277092       51.28325339751188       48.11720540008636
C           36.13257339542771       52.12256370714962       47.63788667782920
C           36.14387548208759       53.49483719598094       48.25817899205285
C           36.45773831967848       54.60770481494953       47.48763082009207
C           36.47911697089562       55.87514548383403       48.04190808236035
C           36.19604107558614       56.05017807180538       49.38518805142483
C           35.87432988657334       54.94978062019945       50.16175832658880
C           35.84726555481135       53.68648818824631       49.60149941570377
C           34.80574427227516       51.39447068941524       47.88551365168529
C           33.63428366755347       52.05261160184831       47.13572329610005
C           33.83494256538375       51.89575427098364       45.64970495827190
C           33.68242293457281       50.66043178323058       45.02928768949896
C           33.90911822766390       50.51511178267371       43.67167809994151
C           34.28966852504747       51.60776316351082       42.90983731039321
C           34.44233802342023       52.84277611949901       43.51463017422746
C           34.21706488418409       52.98304900284201       44.87328332762781
C           32.30124321510458       51.44726989204801       47.61117029016722
C           31.64547104053944       52.27118086921290       48.73375832018709
C           30.88778147277125       51.37248954397939       49.67834168143946
C           31.29693944722934       51.22477048556080       50.99702492676353
C           30.60427949584843       50.40148516892152       51.86770708145154
C           29.48917834987687       49.71028853908875       51.43072253914981
C           29.07522336413417       49.84473927100058       50.11600413213741
C           29.77098590943219       50.66489913992907       49.24696243211562
C           30.71819935461260       53.33903896453141       48.13777009755309
C           30.30303128137689       54.38487845030406       49.18661128309270
C           28.86565310803994       54.81540334303841       49.04496551838802
C           28.32111465772829       55.11334985467819       47.80177512346363
C           27.01342943553062       55.54680346872855       47.68569718726613