3258
 energy: -3427.455873733576 gnorm: 0.000813902181 xtb: 6.6.1 (8d0f1dd)
C          108.48203550065014      120.00858483124938       92.27350554852477
C          109.61536187820415      119.40382236628919       93.09267185512736
C          109.93626797253202      117.97279784083733       92.66528158709103
C          111.02628688946659      117.35599673971194       93.53717965743387
C          111.35978230160198      115.91569412815439       93.15268947379624
C          112.35613034095373      115.30300389350609       94.13338512817305
C          112.68762384380585      113.84308331977115       93.83303234355382
C          113.57099420056262      113.24296986321274       94.92593709872912
C          113.80662475322350      111.74610398493569       94.73695444962971
C          114.58078250022001      111.09815060100240       95.88895609992173
C          113.84300172167552      111.19794562413968       97.22250077075871
C          114.44562442627274      110.33683335708079       98.33058319504804
C          113.73360195447933      110.61179981110239       99.65239924167003
C          114.24394789692926      109.78673783589504      100.83023626514472
C          113.57518787061480      110.24058983012411      102.12615986057527
C          113.99825150407467      109.43177222012926      103.34799907542207
C          113.43564524152693      110.02634555985942      104.63734988612622
C          113.79753223958930      109.22643841122226      105.88842464613130
C          112.99860848325352      107.93271865575252      106.02029101451214
C          113.29942624903444      107.20628231095644      107.32781370982387
C          112.54831743399603      105.88264851591741      107.44473437019467
C          112.75362490130217      105.23698908265970      108.81261837303590
C          112.09738255835218      103.86250765978035      108.93923023047196
C          112.81278652081897      102.74299799569793      108.18138159992448
C          114.23485593241735      102.44414821740808      108.65840956099500
C          114.30745544615174      102.03876523615548      110.12944228226782
C          115.68043587370720      101.47936883447606      110.48811828633033
C          115.83434010570987      101.09317475258214      111.95933602024222
C          114.92472930430685       99.93983362917186      112.38591191499464
C          115.41540776429525       99.27659307806090      113.67245274281824
C          114.45924570539914       98.20558416005797      114.20331245733500
C          113.28295143398991       98.79420364593730      114.97680574586255
C          112.32920632572980       97.73414941063832      115.52820187927530
C          111.55477785917699       96.94443643483520      114.47093456592897
C          110.70766105427761       97.83672492917746      113.56621334496474
C          109.65114044036932       97.05741396467501      112.78832276965339
C          108.80041630555047       97.98528250876259      111.92524930977466
C          107.73456339731925       97.23150913490093      111.13724341858226
C          106.86214377273164       98.14363038643471      110.27452581164947
C          105.85308548703716       98.94879470486610      111.08843690432457
C          104.90371305712331       99.74871677095840      110.20138201948390
C          103.83178073996633      100.46359943863598      111.01896755508920
C          102.85562125824919      101.23824068964285      110.14002160914481
C          101.70362616602843      101.87168031131212      110.92051119111274
C          102.15607123738977      103.00880920768475      111.83387732517495
C          101.00045312083869      103.76558912918281      112.48920902864870
C          100.10588990228821      104.47816010333912      111.47642097914961
C           99.14977173728575      105.46925456089424      112.13407410020380
C           98.29877912585488      106.22955281913566      111.11699728518668
C           97.17298202311466      105.38850368907505      110.51950944817689
C           96.39593110313351      106.16312159641674      109.45757064128904
C           95.12101638539103      105.43978783224576      109.03211855193314
C           94.31764382320273      106.20014551139646      107.97575557955727
C           93.75728092730378      107.52505397000124      108.49297509377949
C           92.67583274962917      108.11985991520271      107.59065808545080
C           93.13879577670362      108.45731257015791      106.17278733615588
C           94.20407333178920      109.55018063648649      106.11710563886072
C           94.55214136238688      109.91297397116091      104.67555646427294
C           95.56113429749237      111.05467356246591      104.58036270103169
C           95.92531592922876      111.35957104260095      103.13053090872371
C           96.86667426059618      112.55329002856919      102.98579599122806
C           97.28771320801856      112.73320230797901      101.52982754459212
C           98.26252012519120      113.88590776963403      101.29978592998181
C           98.64395340192549      113.96597388976407       99.82237704355475
C           99.78650750887391      114.93091705643700       99.51292467692645
C           99.43329492241720      116.40539447193977       99.70077063524218
C          100.47302013506713      117.29377216280000       99.02254925049023
C          100.21457812958975      118.78673138613706       99.20547500866178
C          101.18060820063003      119.61375010848302       98.35820460556673
C          101.15920227035680      121.09699146591468       98.71618107350288
C          102.05584238769950      121.94757763095882       97.81398492220202
C          103.54144773173773      121.61318789963696       97.93816237766106
C          104.41238180369265      122.56838305674334       97.12464119057014
C          105.88573948867935      122.16648636620631       97.15026868806282
C          106.74237797101991      123.07695769810913       96.27280344097387
C          108.19022278902592      122.60486868170331       96.12395360493652
C          109.00806727482724      122.71241826777819       97.40964314576659
C          110.47929824119016      122.37567196254574       97.17199897285130
C          111.34398751449125      122.49100044065997       98.42856366329534
C          111.46571909457931      123.92640691547133       98.93890482585451
C          112.53723467660153      124.10655661305250      100.01496600547576
C          112.23609520920336      123.35117406516515      101.30767668035513
C          113.17375212938208      123.76911457141267      102.43784068099268
C          112.97861789687445      122.92559430760949      103.69575715638000
C          113.78877447350217      123.45115247900620      104.87984841988238
C          113.92688622649455      122.43936842475702      106.01739027729752
C          112.59347226881232      122.03332633787946      106.63672563045132
C          112.76565250249800      121.13643765383532      107.86042127548470
C          111.41668437509458      120.79224598984889      108.48445716543020
C          111.52959466374362      119.84207087771875      109.67588688034699
C          110.25781616582610      119.80537725500970      110.52651480971994
C          109.00827810181049      119.48008401426748      109.71358130969996
C          107.75658503719541      119.29805126502144      110.56964568315409
C          106.51725834365486      119.21780227036787      109.68255242091051
C          105.23781713888162      118.82876904565880      110.41770886565898
C          104.03534609036674      118.91571265135489      109.47935434838639
C          102.77240906742577      118.26937588966415      110.03984741822880
C          101.59975515196163      118.42672334178533      109.07260950965400
C          100.37735677308802      117.58613646728800      109.44170742331063
C           99.63963733214474      118.09845280055556      110.67465030547903
C           98.41527686563829      117.26091604964594      111.04579494777097
C           98.78942524056031      115.88028184866150      111.57906332627553
C           97.61127247104527      115.14457829826785      112.20964058579645
C           98.03763085070312      113.79644830937944      112.78633069267667
C           96.86464576558772      113.04394536361622      113.40609287748859
C           97.23082757417586      111.64614938374523      113.90473771680239
C           98.10749216915096      111.64766660044276      115.15559221451323
C           98.22929153447484      110.26044557561833      115.79055857501217
C           99.18642163236737      109.32844719765704      115.04916508389084
C           99.08919894632277      107.87228240618627      115.51181600914822
C           99.38150045794193      107.63075390291949      116.99470585295870
C          100.85213013486270      107.80942627841584      117.36055849789865
C          101.08888876448088      107.70218855429110      118.86501933381548
C          102.57390053200103      107.79786972147654      119.20954901971184
C          102.85182332283199      107.90474125244975      120.70853257375009
C          102.43453801540099      106.66926184024638      121.50196827348202
C          102.90778171362294      106.74311173330995      122.95186091185515
C          102.39036962072221      105.56858740179274      123.77951397087352
C          103.03751153862207      105.46923150021895      125.16088263677021
C          102.70419964350711      106.64530312406201      126.07130695558673
H          102.70064991054589      104.54577253415739      125.63932048067566
H          104.12142655969188      105.40086865065417      125.04212585376104
H          101.30638069166810      105.65392070155229      123.89297234902338
H          102.59081003395882      104.63967716192802      123.23824939089981
H          103.99997649445247      106.74660184915723      122.97703540896732
H          102.56506770444369      107.68262971205064      123.38748580897304
H          101.34653930646654      106.57302789070533      121.48884614807324
H          102.85168743682794      105.77592649001382      121.02872243082182
H          103.92387485283830      108.06674770612720      120.85397010807800
H          102.33438947342393      108.77965921969253      121.11221255500068
H          103.09712615011938      106.92583143666370      118.80821685530195
H          102.99042755755386      108.68219610277166      118.71995805218789
H          100.54820138057859      108.50529864040801      119.37235231861381
H          100.68329671214647      106.75372125190410      119.22230396546617
H          101.44640470304930      107.04878621277763      116.84758162733495
H          101.19777870902051      108.78643196261470      117.01896723776714
H           98.77024662004123      108.29754723794896      117.60553430308347
H           99.08199003336242      106.60852560841649      117.24216866977471
H           98.07904496115007      107.51385499177485      115.29259315211959
H           99.77960190153929      107.26865253664432      114.91656833724528
H           98.95921886851586      109.35100910024082      113.98086077528598
H          100.20790150042292      109.69347859897161      115.17019479968324
H           98.58164094359249      110.38411124124806      116.81558578007373
H           97.23676488799452      109.80199820376050      115.83306808113241
H           99.10430572185227      112.02487129389358      114.91988357409521
H           97.66120225545750      112.32718427070527      115.88739087979206
H           96.30482461626477      111.11425583496313      114.13859452399316
H           97.73350829752512      111.10401885754540      113.10093687883581
H           96.45401774243173      113.62770836118639      114.23482761900489
H           96.07761638691913      112.94979355621911      112.65313045996220
H           98.47269063164455      113.18788608982646      111.99067960208831
H           98.81073550804790      113.95920963126345      113.53986223604394
H           97.17928430186888      115.75820514378820      113.00580518178778
H           96.83180954542011      114.98932162696676      111.45870548981749
H           99.18370265293331      115.26969841467377      110.76588874415017
H           99.57648074132497      115.99162656840352      112.32818172704592
H           97.84991979317569      117.79397650861274      111.81573632189772
H           97.75910400034917      117.15859129160737      110.17739230160129
H          100.31902573444567      118.11137573389587      111.52701503353580
H           99.31947277420878      119.12729229347094      110.48828875895036
H           99.68469478940666      117.58662818404417      108.59532939672339
H          100.69919680151605      116.55680027114529      109.60395523710261
H          101.31721203982462      119.48155704098595      109.01391514997374
H          101.93620340041304      118.12170458103319      108.07736176274966
H          102.95966630238139      117.20594902117631      110.20738112186380
H          102.52973913778239      118.72303531925358      111.00317304732195
H          103.83210095127814      119.96484908738148      109.24855092324216
H          104.28604208961335      118.42023289372692      108.53725510493575
H          105.32962017870979      117.80717799729703      110.79461279620816
H          105.08489920254479      119.48277048976098      111.27955349965600
H          106.36886729611969      120.18561944935210      109.19447328542273
H          106.69850128658338      118.48252627996693      108.89712792918193
H          107.84793031783579      118.38738160109257      111.16478550290596
H          107.66032353635978      120.13761801330871      111.26135899516734
H          108.82542011268734      120.29196676550745      109.00633538611321
H          109.18130093034300      118.56818900267514      109.13505106541152
H          110.38064010827955      119.05845411961870      111.31700334139846
H          110.12389512464875      120.77627993958072      111.01053206948023
H          111.75754003306659      118.83497919587928      109.31677714577070
H          112.36317875264828      120.15884928900455      110.30812278385373
H          110.93673256213930      121.71825922092330      108.80948434678150
H          110.78184316791307      120.34356800547860      107.71773247484677
H          113.27964356176885      120.21870487514994      107.56790519757212
H          113.39006013874747      121.64198904042411      108.60215569039283
H          112.04167783375178      122.93054506962771      106.92817924546911
H          111.99453724863366      121.50260454369098      105.89514200018999
H          114.43542960682721      121.54841923982409      105.64530293122731
H          114.56009791212831      122.87792142400957      106.79139083808774
H          114.78941371879307      123.71809758615953      104.53010435224604
H          113.32213194931502      124.36352700592623      105.26190313467100
H          111.91778124307785      122.90849908958057      103.95040909570042
H          113.28143568468742      121.89668625983724      103.48554216079881
H          114.20919927125114      123.67923671343549      102.09843531899060
H          113.00062698351458      124.82173913265233      102.67333251304106
H          111.20471211495243      123.54873793817350      101.60905336417389
H          112.33563776551635      122.27838097916842      101.13600090916242
H          113.50548319254138      123.78388744945389       99.62270569243944
H          112.61817982315902      125.17331744307451      100.24364637762152
H          111.71025722618981      124.57692132677836       98.09429221393749
H          110.50620693645271      124.25674860067463       99.34192953056302
H          110.92565476239099      121.85419764285432       99.21016484640958
H          112.34417478878457      122.11693504217497       98.19348277149770
H          110.54878872933089      121.35431887311873       96.78966110229621
H          110.87934227846981      123.04113932384486       96.40191288265115
H          108.92381437296604      123.73118323312174       97.79216456104065
H          108.60542364281915      122.03532281094543       98.16477797738281
H          108.19629171776577      121.57065579087975       95.77008530381099
H          108.67361073731904      123.21269727636623       95.35385521564099
H          106.29062832633932      123.12388313710045       95.27789462551134
H          106.73323835279906      124.09073773772637       96.68205626997552
H          106.24636117997734      122.19751222546711       98.18019769604203
H          105.97857424946341      121.13807593953332       96.79187541730398
H          104.06282871415146      122.57685847671063       96.08918343894190
H          104.30478428066583      123.58536144475691       97.51223466744001
H          103.83485149321018      121.65555050957390       98.98942162994450
H          103.71925218357234      120.59697244694503       97.58345744461718
H          101.74271960358149      121.81977781173963       96.77411388969108
H          101.90877672284402      123.00123954377666       98.06857263309537
H          100.13296935433206      121.46649246567972       98.63982241627657
H          101.47582111155054      121.21829665229947       99.75477525672356
H          102.18956803941650      119.22371503104765       98.50359287081606
H          100.92671126795578      119.48982398199746       97.30225234208463
H           99.18551479919969      119.02220225077782       98.92346611265215
H          100.33487410781103      119.04615738151342      100.25958027549986
H          101.46169254905958      117.05543957192081       99.42272705963109
H          100.48704661256356      117.06397387740184       97.95374835432673
H           98.45146215617331      116.60340395762684       99.26349035937133
H           99.37814993932267      116.64743329537514      100.76381771371709
H          100.65066157460679      114.68427085220446      100.13419056032905
H          100.08065169854481      114.78190776951733       98.47010775732679
H           98.94097189153545      112.96704669208843       99.48989975141957
H           97.76449848769674      114.25114725983693       99.23920949551810
H           97.80798333309136      114.82463922039670      101.62165928774364
H           99.16142152299791      113.72929716656965      101.90093931046418
H           97.75445108174711      111.80651285364979      101.18482623967184
H           96.39523858027935      112.89442483903001      100.91911865177181
H           96.37108246704047      113.45888119172571      103.34359357092598
H           97.75032701071154      112.39399602383148      103.60776112941041
H           96.39932038619312      110.47791789189063      102.69105080581360
H           95.01147263906839      111.55471554659540      102.56306852200233
H           95.14102368879972      111.94857182299006      105.04643267927705
H           96.46604568370192      110.78700466452221      105.13028249914184
H           94.95721662182375      109.03113332014799      104.17195900046123
H           93.63919093768342      110.19924256789801      104.14644308637153
H           93.83836110998166      110.43905549129231      106.63660165263722
H           95.10860876400129      109.21486238792039      106.62703377975092
H           93.51743679645527      107.55640764665071      105.68654883858154
H           92.26810144763635      108.79098739577614      105.60112176448793
H           91.84477413258007      107.41213629779050      107.52391894494208
H           92.29319404178437      109.03032605394438      108.06017470274668
H           93.31886056612446      107.35892726788083      109.48076960694438
H           94.56301421606935      108.24916532393183      108.60825950065414
H           94.95481081849435      106.38079052306283      107.10808760169677
H           93.48547306210028      105.56904149871612      107.65188237473940
H           95.38685573055969      104.45631584459349      108.63469712298100
H           94.49040843963319      105.27711202537820      109.91060567277073
H           96.13886342475173      107.14405060921983      109.86009062724854
H           97.03225548500976      106.32176972858819      108.58302456208992
H           97.57717236838565      104.47678019524515      110.07587979057406
H           96.49097960729046      105.08988720327983      111.32020109490513
H           97.85387957723016      107.10122116894613      111.60486224704648
H           98.94299795912411      106.59309672212102      110.31214760667676
H           98.49396562720958      104.94421067169162      112.83271133901184
H           99.73338301229462      106.18957207043043      112.71298034217529
H          100.73691286050584      105.01745965390492      110.76574056127366
H           99.52733019154280      103.74249276743927      110.91612689801352
H          100.40393458025908      103.07402761829715      113.08896268314049
H          101.41917500323891      104.50942704664048      113.17191120015315
H          102.79573631036166      102.60589501932093      112.62177327341203
H          102.75251141930178      103.71456900018029      111.24946213190377
H          100.98150887831092      102.26082835048335      110.19969833346634
H          101.19753634897154      101.10621790504914      111.51471890841705
H          103.39487284619963      102.02080342254646      109.60139344668575
H          102.43739197675153      100.55428934714730      109.39651350366574
H          103.27498764057783       99.72411730699370      111.59963997378502
H          104.31754376643531      101.14622909347800      111.71904753410865
H          105.47111483880292      100.48056995266123      109.62091088755317
H          104.42262749594657       99.07062243850679      109.49176784032011
H          105.26643867457983       98.26370499992187      111.70497365234314
H          106.37672022422836       99.63186852371297      111.75990991777533
H          107.50057188985411       98.82351196265806      109.70529541858588
H          106.31417116909246       97.52851334114236      109.55551621304841
H          108.22579433560261       96.49704703812516      110.49244163150229
H          107.09761113021621       96.67994928095831      111.83242341634978
H          108.32116938155917       98.72219712518385      112.57263282194984
H          109.44830001372706       98.52092850951416      111.22753316166349
H          110.13913578879804       96.31300059705589      112.15356694963545
H          109.00505290853076       96.51732808452358      113.48635203400501
H          110.20717969345201       98.58958593565839      114.17818859431922
H          111.35118520289031       98.35825742219190      112.85591594263411
H          112.24287298483344       96.35079773215314      113.86537621237115
H          110.89624420054383       96.24328459279789      114.99225191997198
H          112.89864488885931       97.03206552519578      116.14248710648687
H          111.60681710957084       98.22783781626292      116.18464806681123
H          113.67416295767383       99.37173428007343      115.81907780222316
H          112.72905091520042       99.48347678754797      114.33976254693141
H          114.08943863250251       97.60994023020719      113.36728426685320
H          115.00946565314268       97.53265370926019      114.86561456822189
H          116.38971221060042       98.81937220202389      113.47417525292879
H          115.56357483170999      100.03860516845241      114.44258244376414
H          113.90669760438524      100.30458026967871      112.52998538720692
H          114.90071378355091       99.18991548371237      111.59125348589892
H          116.87477308857889      100.79807253539829      112.12401283500697
H          115.64022859845545      101.96560494686118      112.58866765273521
H          115.87970715436744      100.60030465652358      109.86914397730618
H          116.43765345580000      102.23115709386835      110.24524949142440
H          114.10105095627129      102.90460635754796      110.76048693742327
H          113.54364464331881      101.28395562400256      110.32696241486354
H          114.62986426261619      101.62615458061609      108.04939534353326
H          114.87836272080624      103.30942897549036      108.48707925652384
H          112.21790369288136      101.83062042117189      108.28490226600618
H          112.84540420253326      102.98949655140281      107.11771029334076
H          112.04396940102409      103.59064884507529      109.99472613963077
H          111.07056749945500      103.92756620360827      108.56831193623485
H          113.82171801373070      105.15402293957668      109.01614258364697
H          112.33196253321667      105.89871308823115      109.57480156884607
H          111.47994848414038      106.05673139686427      107.28702372376758
H          112.89247417786386      105.20658187473840      106.65872658216246
H          114.37371153613394      107.01698578120036      107.39818079593756
H          113.02798942748340      107.85160723568548      108.16701910960289
H          111.93109817364466      108.16621248491505      105.97626869040580
H          113.22387050106853      107.27279025044055      105.17960474510231
H          114.86621283586538      108.99647834931785      105.87420657023634
H          113.60897120728484      109.84356135194749      106.77039970440615
H          113.81831139127738      111.04468655611511      104.74763669032188
H          112.34707837145132      110.09092494237808      104.55940403165411
H          113.65512154861406      108.40277445433561      103.23231565768064
H          115.08786868319170      109.41553534502664      103.41096915461986
H          113.82444368804788      111.29071980451138      102.29133944283990
H          112.49031322415355      110.17215038257869      102.00987962278241
H          114.04113165978055      108.72719350678145      100.65664761124930
H          115.32715486025498      109.90569960926734      100.91878815343003
H          113.85165393732466      111.67062749483404       99.89253346930231
H          112.66484385740432      110.42376099302179       99.52493445946061
H          114.35886050503619      109.27872631996730       98.07021319534357
H          115.50869677058266      110.56344489140953       98.43619684982411
H          113.85460273554457      112.23597335460946       97.55755770547998
H          112.80074810699163      110.90615045981097       97.07729754851282
H          114.74376201284008      110.04409421386801       95.64667180370910
H          115.56362404283935      111.56814316904736       95.97853462090005
H          112.83993140326415      111.24709694444164       94.63902949300252
H          114.35425913240135      111.58397404956088       93.80446804086061
H          114.53021438727868      113.76501413657226       94.94724648005533
H          113.08223326687813      113.41154840124061       95.88586730737113
H          111.75780110853078      113.27138311183097       93.76942609267915
H          113.18663866953530      113.76618404559474       92.86393232964532
H          113.27647165959688      115.89131269438442       94.12938183830866
H          111.92900686540800      115.36328241764245       95.13721097232046
H          110.44335742142664      115.32000362827527       93.15277804592094
H          111.76981669190897      115.89014028365924       92.14024863898737
H          111.93015365798735      117.96648146084289       93.46894692103557
H          110.69441190383405      117.37531648945046       94.57865515016884
H          109.03066726925461      117.36492507080951       92.73601388647025
H          110.25578421407891      117.96768945790738       91.62023946370203
H          110.51072302395673      120.02084124312883       92.98624852280274
H          109.33753677882717      119.40648454291745       94.14881991858080
H          107.57264903802410      119.42326743718313       92.39212862584719
H          108.27825196134225      121.02708943597439       92.59600186887165
H          108.74072496091959      120.02786548989972       91.21690553458701
H          103.13634833370456      106.49400535745700      127.05832411848189
H          103.10057231462012      107.57331204693001      125.66756263789968
H          101.62646598145827      106.74677540927043      126.18438551899996
C          105.88302317213412      130.65534392988476      106.87395899378124
C          106.98616301449158      130.40209313582460      107.89378644434160
C          108.37562641290621      130.63737446572927      107.30752613317934
C          109.48398137765984      130.38235823407405      108.32681430205393
C          110.87089169991121      130.58275373629095      107.72215284146813
C          111.99523284396753      130.38655386050723      108.73723744598156
C          113.36476881095365      130.59495191415832      108.09526151154932
C          114.52824842232043      130.38822532751826      109.06354272904541
C          115.85777534435712      130.72981575409838      108.39275005244119
C          117.08248146131152      130.55463783022950      109.29280494654820
C          117.45383345807423      129.09408768751496      109.54237065889579
C          118.81808338666987      128.96419013965823      110.21944272699464
C          119.27174732536794      127.51328064829454      110.39688017208151
C          118.53854708535300      126.79014470230966      111.52363384126495
C          118.77354612534837      125.28066553842214      111.52742049762020
C          120.20701016737854      124.85529803728988      111.84320119888525
C          120.27315138740214      123.34530838396496      112.06350578744991
C          121.66333033445075      122.80689292717359      112.40032396537734
C          122.63826777644709      122.83666131854166      111.22108270595153
C          123.77402726459349      121.83139966311498      111.40736704985306
C          124.69833670995837      121.75113091177550      110.19418119586332