3795
 energy: -5103.000791010801 gnorm: 0.000919737648 xtb: 6.6.1 (8d0f1dd)
C          132.38574536938316      108.61421666107064      120.24229167258673
C          131.35053527113075      109.08555374593253      119.25500745668919
C          132.31854730211313      109.35580933755253      121.57924150562725
C          132.57899179397694      110.85305451655897      121.42709857950592
H          131.33582803162756      109.20340921809841      122.02816263724417
H          133.06226185718825      108.92178794211331      122.24948742952704
C          132.69457242314064      111.55965394014397      122.77764526322785
H          133.50518068809845      111.01823684596589      120.87394619420752
H          131.76798504344876      111.30375924683892      120.84914311286332
C          133.03909365742322      113.03171753981108      122.60428225806614
H          131.77834905314714      111.46225965299466      123.35951770462682
H          133.50414034835669      111.10374759093257      123.35381793446760
N          132.56476918962952      113.83660661841675      123.56977402656878
O          131.82266859272113      109.21143997479022      118.03827268354831
O          130.18812494994449      109.31218119838475      119.53531162157078
H          131.14442392314638      109.56350226382156      117.38905184971331
H          133.36813695090967      108.72691002135997      119.78428020955302
H          132.20391501484133      107.54620915363932      120.41009724104804
C          132.84849950184741      115.25628622552985      123.55612409064641
H          131.93476618342513      113.47741093349653      124.27848799229238
C          132.74703317856236      115.89543058143482      124.93766145586245
H          133.86261333207318      115.37633726170331      123.16113487027147
H          132.16681503094694      115.75979925953688      122.86124045782381
C          131.32192951444227      115.95361237922162      125.49486092434927
H          133.37038910410413      115.32833781578671      125.63105310759968
H          133.15345061512281      116.90764266231464      124.87210066976316
C          130.39712337637900      116.87227924616182      124.69578143493644
H          130.90960452164074      114.94565120681114      125.51233789232819
H          131.37744616922225      116.30218539019549      126.52841878748976
C          128.91468322999316      116.64683855933428      125.00099609202684
H          130.67270226793241      117.91436313490986      124.87762328102197
H          130.53380776856861      116.68875646460388      123.63073889007154
C          128.47554071703618      117.14729743428771      126.37482800340049
H          128.31821079658724      117.14397048303283      124.23231061820461
H          128.70477397763884      115.57785192319791      124.94736319882475
N          128.48719323853976      118.59192902800602      126.39756061498429
H          127.46236433309615      116.79440627244699      126.58525120009490
H          129.14712742554335      116.74662157314562      127.14105988933109
C          127.87938101122184      119.46582366510607      127.21256577076547
H          129.05199729858393      119.02373466812647      125.67673503453990
O          133.70249757250764      113.44753751001483      121.66803858367869
C          127.03536788556627      118.97715575605129      128.36866440793065
C          127.64173020710679      117.88081404571363      129.25191840049075
H          126.84260210159424      119.85843196193969      128.98408880050164
H          126.07329668388579      118.64905855228351      127.96614941938709
C          127.12552886207251      117.94296214040163      130.69158602745250
H          127.40968276924288      116.89327797493458      128.85339079454786
H          128.72850218346298      117.99168620381758      129.27738673398775
C          125.60141789062187      117.85275862012550      130.80100243760566
H          127.56412956470805      117.11017070982433      131.24530516476162
H          127.45649883587268      118.87223143286158      131.16036573998500
C          125.05583179231145      116.57659200602691      130.18223270120657
H          125.33771453397463      117.84084069607138      131.86100169127607
H          125.12306959869800      118.71581468867257      130.34074729337650
N          124.16580327243355      116.77855150978601      129.20631794915428
C          123.44858439816625      115.71017140055621      128.54275121324602
H          123.83788086165113      117.72033051102460      129.01949491801665
O          127.99314359420644      120.66758234069886      126.97848709225769
C          123.11404563432392      116.09253655139098      127.10784141613118
H          124.07307416742965      114.81524380682126      128.58050040798705
H          122.51034971893222      115.50962436666208      129.06997597570120
C          124.31618217098847      116.09742465978714      126.16852279070210
H          122.36517066795776      115.39619144306120      126.73048282419590
H          122.66605679699271      117.08735582611101      127.12417426954771
C          123.92036049271549      116.68184782638501      124.81539481229879
H          125.11929969740197      116.69438170816437      126.60635445113736
H          124.68596612515175      115.07771321631979      126.03799088523398
C          125.01462999636477      116.57126829363855      123.75713275363202
H          123.02909197715975      116.16358271905933      124.45549327507322
H          123.66044913486387      117.73466077031003      124.95185212249817
C          124.60286380878597      117.33617827174976      122.50285980704579
N          125.51474980347318      117.15917110480443      121.39772642843290
H          123.62204605499984      116.99352387472483      122.16080272123315
H          124.52899265896133      118.40401090401464      122.74725798841169
C          125.08409598027038      116.86686557763949      120.16344022688291
H          126.51159487945814      117.28973996632638      121.56415564981532
O          125.40709385115298      115.45844971464261      130.54983651563964
C          126.14389109475424      116.91963647389223      119.09132985175984
C          126.03764933644364      115.81123610458840      118.04584057649674
H          125.97197730203052      117.86973453500339      118.58341981127077
H          127.13524265229661      116.93563608179245      119.54034261391185
C          127.20459465893830      115.82200484757186      117.05559574398872
H          126.01056101930155      114.83945390771508      118.54603987766768
H          125.10108834254443      115.92761559173435      117.50033503127727
C          127.43021370602905      117.17906526506765      116.37892787483169
H          128.12939881208754      115.54614640164156      117.56828476425879
H          127.00959049847540      115.07302198184691      116.28645761860180
C          128.23672165075678      118.08581385254210      117.29206057149591
H          128.01337197952776      117.02560486915915      115.46874054516863
H          126.48035452615834      117.64116159162266      116.11905797338000
N          127.67629065338271      119.28085021819069      117.55147644641211
C          128.17346068822835      120.14121092916889      118.60566996474135
H          126.74069995033911      119.45673215116929      117.20485737366185
H          125.95197706783051      116.97943171540820      124.14022785707273
H          125.17621628432774      115.52073190816783      123.50834967473584
O          123.89938215237602      116.64926945930331      119.91960017785780
O          129.31448335196112      117.74956877667090      117.75487749270535
C          127.02366721117474      120.86143622061836      119.30584607588237
H          128.72297164377756      119.50884544574015      119.30986717136552
H          128.87904814710578      120.87248392121084      118.19219900282239
C          127.43785027585878      121.47781303201373      120.64664456239697
H          126.64241209399441      121.64079931555092      118.64165551387278
H          126.21312754736054      120.15017184759726      119.47638876920291
C          127.33871340598155      120.47168361542170      121.79453737873216
H          128.45828163335662      121.85791652183210      120.57313653407442
H          126.78363063101666      122.32504124960995      120.85888103758347
C          127.80913286575610      121.02664381550061      123.14242278932760
H          126.29620623747817      120.15945153295002      121.88961919046179
H          127.92573538944541      119.58313710862710      121.55798067490075
C          127.06487249269897      122.29856971694453      123.53755524109820
H          127.63065161951369      120.26626014335565      123.90616325477420
H          128.88153602813898      121.22539877866555      123.10887386650637
N          127.17112207121437      122.57451188605908      124.95982577487212
H          127.46418318099207      123.15857772165231      122.98990564839563
H          126.00665273632926      122.19723665685861      123.27470547254174
C          126.55520815604218      123.61171952788123      125.52940956769862
H          127.63835060615888      121.89739866883117      125.55681337458121
C          126.79506655347186      123.77453510421815      127.01305079545037
C          125.50453990261649      123.61398649237289      127.82272573099966
H          127.52997067070812      123.04375332285339      127.34786061965147
H          127.18964908924764      124.78067827469044      127.16990106905115
C          124.92528963606065      122.20969806567159      127.67458609095345
H          125.72739153071140      123.80991223201926      128.87323640125754
H          124.76879892343767      124.34716141626664      127.48721236038034
C          123.83226022884482      121.93192632152787      128.71076943303791
H          124.49742313535343      122.10938137277826      126.67668356313457
H          125.72460616080261      121.47482756010548      127.77078515533681
C          123.06859261734976      120.67557007109906      128.34178065159659
H          124.27352644890534      121.80154399102435      129.69945747957345
H          123.14087275944047      122.77495045215981      128.73703518363681
N          122.07934092153322      120.88745256999519      127.46796274007563
C          121.16103281870346      119.85827345439768      127.03489539458070
H          121.94501292855111      121.82289574418240      127.09014523540642
O          125.85211435294111      124.40197012863557      124.89276298605141
C          119.73585013208945      120.40338528740558      126.95407406399001
H          121.46253514788994      119.46543402476645      126.05430486766828
H          121.22476458633626      119.04253530314449      127.76102617051839
C          119.50972476087715      121.25748609436472      125.70997473147156
H          119.03458912837560      119.56811385602578      126.95919672583841
H          119.54425502873168      121.01018479551256      127.83782648889917
C          118.12227328380919      121.89468032569118      125.69420609212423
H          120.24990442468150      122.05633387290216      125.69026541153094
H          119.65071740083492      120.64134761601738      124.81951468623056
C          117.96327427255028      122.91232547689525      124.56857795880011
H          117.34948207799653      121.13235924761538      125.59049363447977
H          117.96144829414507      122.40935516412814      126.64344594546546
C          117.89113833144147      122.26837892041462      123.18973147581829
H          117.04536330299062      123.47626504561399      124.73880539905966
H          118.80615365815081      123.60778726623012      124.59703864361630
N          117.87135298216072      123.29811892289007      122.16846051595027
H          118.76885690667123      121.64608671717170      122.99556389015665
H          116.99817336074042      121.63858554785251      123.11894063648737
O          123.35018412410231      119.56725626737762      128.78468776683755
C          118.33113411793443      123.11156801119589      120.93262013330187
H          117.52746629810893      124.20917626207425      122.44566223929488
C          118.30790592010098      124.35405629850156      120.05948033975865
C          116.88656698628790      124.69458149022829      119.61075162421373
H          118.72002619760924      125.19408209101829      120.62146630745146
H          118.93760647063328      124.16637103756443      119.18958072303840
C          116.85559108068126      125.96438469852230      118.76154981361364
H          116.48136428308644      123.86198554807876      119.03215800884148
H          116.25616521042889      124.83153773540083      120.49125083956005
C          115.44070371392090      126.24532358458669      118.25815140514409
H          117.20504760473152      126.80908931014567      119.35891928050687
H          117.52614508393016      125.84590804611034      117.90995631210102
C          115.31008239154988      127.58774849074587      117.55159028849593
H          115.14041953326817      125.45180414502995      117.57205393347211
H          114.75571878490993      126.25583396765880      119.10728811870202
N          116.09762023535694      127.71798777298957      116.47307932243825
O          118.74517723060994      122.03252567875367      120.51992555319022
C          116.17205513203459      128.91886808614052      115.66610695298806
H          116.59652120283387      126.90234193973305      116.13916687251259
C          116.17110238418881      128.56018821117434      114.18339866221250
H          115.31557391918692      129.54521562261237      115.92556048280164
H          117.08834583233407      129.46951827307092      115.91471666673998
C          116.31824813076287      129.75774807986571      113.24812622435039
H          116.99282245102629      127.86061299673614      114.01025812583077
H          115.23259816453582      128.05599762394533      113.95049165555997
C          116.38752230800795      129.32136952113922      111.77978821177159
H          115.46111023813761      130.41924913243784      113.37905725456129
H          117.21689809806104      130.32284192310462      113.50289720278988
C          117.76461768751705      128.78335868161165      111.37847120500540
H          115.63094785533362      128.55277265318611      111.60514748795519
H          116.13635020135649      130.17576729161593      111.15109993982414
C          117.74698711108778      127.95740177450880      110.09223582094658
H          118.45949817832027      129.61815214127478      111.26389341356918
H          118.15305123930851      128.13973395310904      112.16761646277472
N          117.22325139544910      128.70299746313307      108.97144569163929
H          118.75969642437221      127.60965975896575      109.85464740159263
H          117.10143047011032      127.08419446332925      110.20612852148950
C          116.30643951608830      128.23318401819122      108.11588658017820
H          117.59735745627368      129.62697210581877      108.82831378120648
O          114.54750775513129      128.45251888196856      117.94835544956304
C          115.89599296042454      129.21090384364948      107.03123119801398
C          115.43128512030660      130.56317153563779      107.58002426150777
H          116.74855729199007      129.34987757337677      106.36257835898694
H          115.08889265056060      128.75759133732114      106.45594375974912
C          114.26787311523167      130.40882138067676      108.55795857177688
H          116.25456484587028      131.08268132380556      108.07710540149162
H          115.12274118298059      131.19453841369324      106.74620948513183
C          113.76321206055184      131.77171186963011      109.03654517544147
H          113.45858262734284      129.86172482205421      108.07357255353202
H          114.59422899316996      129.82233134598115      109.42007117261134
C          112.80799613461946      131.66040249247118      110.21593820100726
H          114.60529657290151      132.38567556439406      109.36074231286597
H          113.26398900259112      132.29071701476664      108.21657487060089
N          111.63757321361784      131.05311873356163      109.94294630225980
C          110.65020745667540      130.85043520632991      110.98534321351256
H          111.52692640140816      130.51203803836054      109.09259960995965
O          115.84536278213928      127.10073666834666      108.19635629737697
C          109.39548815856286      130.18638012672682      110.43266092451790
H          111.08056479276058      130.23817273220740      111.78870733420916
H          110.41179780632150      131.82531862034770      111.42318843709181
C          108.59655428467016      131.11807272415695      109.52553755603401
H          109.68076284998857      129.29757390380183      109.86764165238455
H          108.76876909601197      129.87047016299792      111.26970762164950
C          107.37822014761248      130.42235131683580      108.92233984948516
H          108.27182969837182      131.98656620972309      110.10393765364626
H          109.23772736603981      131.47512132913999      108.71848671940135
C          106.53626560827841      131.39888613969984      108.10567518841053
H          107.71369290208385      129.60861032228229      108.27804555642577
H          106.76730588234977      129.99241063735769      109.72008864680568
C          105.30138695717011      130.75466983157168      107.48816339568518
H          106.20938099329271      132.21994646956225      108.74797374660835
H          107.15706003119831      131.81873789438436      107.31190107529854
N          105.66477729095018      129.76862772352126      106.49510992972449
H          104.68985731318361      130.26292540528920      108.25239667369409
H          104.67916106375074      131.52939105326718      107.01878982807281
C          104.82743807378826      128.79711809227231      106.10125275603139
H          106.61784154264080      129.77917377971715      106.14280190345470
O          113.07381416633454      132.10823980505688      111.31742496632920
C          105.42509802181917      127.86624941377426      105.05862101032716
C          106.13554443201198      126.69815746693958      105.74454269813042
H          104.61829706147795      127.50249505249093      104.42232080409141
H          106.14096652776797      128.40959660242467      104.44393199628543
C          106.62624974474573      125.67801663444436      104.72230792232685
H          106.98294308314344      127.08528133504343      106.31442104179779
H          105.44288392030641      126.21920263891580      106.44069474654997
C          107.26367690541510      124.45535521261667      105.38172546688389
H          105.78549544497079      125.34624180835209      104.11003555993874
H          107.35299466853633      126.14278273586763      104.05547501682976
C          107.55188244822544      123.37283511948611      104.35979625993328
H          108.21182126551224      124.74271671040471      105.84341043894923
H          106.60962895264291      124.06025258425369      106.16061996753650
N          107.39736044575106      122.12021590785308      104.80326944619574
O          103.69799279338690      128.66361537819401      106.54260625573478
C          107.71116180103897      120.95280121842875      103.99475644287200
H          107.22883651692439      121.95833025145528      105.78507727687878
C          107.26227093528787      119.66775852998862      104.68312886713940
H          107.22432609432737      121.08522608994174      103.02797774634807
H          108.79188673743958      120.90835890066313      103.82581960828722
C          108.14078387022555      118.46577686787958      104.32316261681434
H          107.34861735366661      119.82245725406221      105.76053716374993
H          106.21357946205180      119.45758410740822      104.47267909409108
C          107.76512086971537      117.73026516700806      103.03719672214125
H          109.17878441672561      118.79547310882060      104.25919106477664
H          108.06800982052957      117.74641591541699      105.14109353690394
C          107.84250003702849      118.58427203324240      101.77428108003089
H          108.44770593014674      116.88393872284452      102.92464717944276
H          106.75635197808673      117.32925656637150      103.13763771328605
C          107.78001809937412      117.70902195674653      100.52405613538247
H          107.00826971312257      119.28574240910443      101.75189678650352
H          108.77102114874339      119.15621049007277      101.77350201263769
N          107.58946613661853      118.49479771610389       99.32414076769614
H          108.70171743509067      117.12028889865702      100.43803355661755
H          106.93652055500941      117.01610973145684      100.58923537435855
C          106.68940202650832      118.16137628829514       98.38804541586600
H          108.17959707840267      119.31295972388789       99.21714686156102
O          107.88603585938925      123.62996736702455      103.20723360174114
C          106.56852369167794      119.09166945706295       97.19122752060996
C          107.90079272087088      119.61797319837039       96.65953189510350
H          106.04214082902456      118.53450054563309       96.41348906990727
H          105.92995777465795      119.92969872555470       97.48467973864517
C          108.87830354406610      118.47855125208298       96.32806367916339
H          107.70513992973503      120.21630603652513       95.76826362524984
H          108.33995034770567      120.28668278096039       97.39778203269979
C          110.26809582212871      118.68683784127991       96.94478744705529
H          108.47939892647878      117.53624742781091       96.70889209691096
H          108.98744082353389      118.37033823097646       95.24778582551292
C          110.95540167848381      119.87303112299392       96.30038479290411
H          110.17480806830859      118.84575523720819       98.01829052728309
H          110.86534059916724      117.79279432148242       96.76122871570553
N          110.82144762288108      121.01940209886850       96.96069722330569
C          111.30561240436079      122.30383986338877       96.50463141267230
H          110.32857934969340      121.02109781890948       97.85167525325734
O          105.97690170832850      117.17128786888250       98.48744264315944
C          110.19636063493060      123.35190497214323       96.57784061167081
H          112.14715857872964      122.60524814512601       97.13376948643240
H          111.66166093113145      122.17979412736737       95.47957581337361
C          110.69920098887376      124.76817301524399       96.28922974626768
H          109.41500610726409      123.09462723456767       95.85940571194757
H          109.74914092678944      123.32501485911342       97.57491016111577
C          111.65616488295268      125.30505282085706       97.36684463282130
H          111.19699213547567      124.78074024862390       95.31813571010512
H          109.82811332762806      125.42197303040331       96.20937004999529
C          113.11122591895528      125.38112433722556       96.90049701206716
H          111.34389366070911      126.30467897609971       97.67858698779115
H          111.60462318241896      124.66095122759511       98.24581332596657
C          114.07786326216822      125.55549738072828       98.07373056246698
H          113.37928610999205      124.46355384241086       96.37444479641900
H          113.23200911710174      126.21447738105591       96.20611864613578
N          114.14089132286716      124.33991044421076       98.84836108907172
H          115.07687322594290      125.80354827431795       97.69333542044309
H          113.74745655510168      126.36274995051636       98.73350513825385
C          114.05693084267179      124.26674777632562      100.17840546630028
H          114.26208172312136      123.48021013049241       98.32279096379047
O          111.56735608307645      119.76869529344141       95.23402544153086
C          114.07260305993749      122.85822621079774      100.73185671589462
C          112.77622099922078      122.55010690069268      101.48751581063323
H          114.21889928669422      122.15113968696757       99.91796884275226
H          114.91258679882944      122.78516046881886      101.42383492129301
C          111.55410515884996      122.54602860305909      100.57023879968618
H          112.87053507875774      121.57044973153481      101.95900890031288
H          112.64108231362383      123.28879277617652      102.27920521761313
C          110.29638935833029      122.08004138539347      101.30741525035720
H          111.38907874313077      123.55137218443379      100.17606587987984
H          111.74245541656074      121.88235612952116       99.72451260131341
C          109.16067053207979      121.70905199625095      100.38053471933013
H          110.53878003354117      121.18397996428982      101.88722476349641
H          109.95855565098225      122.85019862103645      101.99925760767763
N          107.97326992599984      122.20482490177288      100.71200427334665
O          113.95668829282438      125.24838952370290      100.90846225388742
C          106.77395298871672      121.95543374634897       99.93603035825170
H          107.89099224361436      122.79243635925430      101.53973769412168
C          105.51936985160485      122.42437990915528      100.66225351910956
H          106.85755370779006      122.47792881858484       98.97496139760774
H          106.70728739715791      120.88199726315602       99.73195054880418
C          105.50176117957847      123.93991256602614      100.83832917280134
H          104.65313517999884      122.11280628002821      100.07447512030880
H          105.44949411136324      121.93695682169347      101.63724752384168
C          104.17220572315917      124.45493796400473      101.38160570323343
H          106.29372064147631      124.22857535234763      101.52900999720357
H          105.71077920320300      124.41227560508621       99.87693453052921
C          104.18481198948746      125.97628594257519      101.49641788613829
H          103.35531655627936      124.14471254881619      100.72538344901292
H          103.98903672481480      124.01790719625797      102.36620681630012
C          102.92616702383566      126.52720902862454      102.16221841523424
H          105.04164431465939      126.29144030342090      102.09396827411265
H          104.29448852781967      126.41653321365119      100.50271699035072
N          103.12657789669980      127.93185566498033      102.48388137220120
H          102.05149716365756      126.34410646343248      101.51460368959007
H          102.75668514058191      125.99802646775267      103.10273820527203
H          103.18239743074423      128.48609227967066      101.63633372522166
H          102.36081588648001      128.29098287395573      103.04279165483403
O          109.31393307102699      120.96424607900693       99.40365418297630
C          114.76741998572609      117.54923860734958      128.52038510700220
C          113.36467438286238      117.30727729984331      128.00900588996515
C          115.74204083379833      117.54090625050846      127.33331516030238
C          115.34167206037856      118.59781118410420      126.30349208442276
H          116.75072317691108      117.72844455890367      127.70411565723619
H          115.72958252119808      116.55081384899299      126.87526184559918
C          116.07096905610526      118.47403818456684      124.95852889906671
H          114.27025066151424      118.50807447156569      126.12258453236528
H          115.51407667400019      119.59418162297798      126.71571535107272
C          115.21213585779770      119.09006442070472      123.86874970515400
H          117.02103535695440      119.00674102484035      124.98166469254301
H          116.27299633212378      117.42628123862143      124.74086346137298
N          114.13731500269193      118.39959622791399      123.46541922040107
O          113.21376060334502      116.07131052250470      127.58676909778887
O          112.49591219715727      118.14933133875488      127.95329697892944
H          112.33031939114427      115.90080455460381      127.15458293835685
H          115.02561673782179      116.74547498805551      129.20968246296272
H          114.79948323787664      118.50320464777069      129.04302575740508
C          113.74489604471324      117.04325285068207      123.76760377190186
H          113.55223213843597      118.86398419211898      122.76788870920370
C          113.58439060934663      116.25463656116523      122.46575802707895
H          114.48732903769691      116.55857478738717      124.40019664415780
H          112.79741789509828      117.05688102874350      124.31545483906081
C          113.33488854502227      114.76597159404652      122.69789582730978
H          112.76454768301271      116.68822706396070      121.88915479341463
H          114.49976730235879      116.37274265290455      121.87974314330722
C          112.06146621466984      114.48594209788665      123.49089927222408
H          113.26457358298707      114.27464854276140      121.72300763006390
H          114.18529830793078      114.33375879015229      123.22763153619711
C          111.70876998661954      113.00085940329539      123.48988913682152
H          112.18130695990605      114.81608806264660      124.52165535803036
H          111.23149919755450      115.04772441616022      123.05536507571638
C          110.56934404520770      112.70935065404311      124.45955702328614
H          111.38988583489726      112.69389737274835      122.49236374603360
H          112.58523608147729      112.40965469458163      123.75960060411366
N          109.94597355601078      111.43482807259882      124.17346145442323
H          110.92317316654481      112.68910604570718      125.49212894725122
H          109.82208169182439      113.50753775057861      124.37802659321054