3864
 energy: -5104.101231308712 gnorm: 0.000767467887 xtb: 6.6.1 (8d0f1dd)
C           53.13377578871521       48.79537982995522       62.45873438673953
C           53.23359143815801       47.86623237206226       63.48589466392475
C           52.44336995545282       48.04051810283835       64.61695000837027
C           51.56879760163592       49.10841817987748       64.70842188744955
C           51.46487531885789       50.01954737976009       63.67092501287777
C           52.25637204575447       49.86228680166246       62.54675280023953
C           54.19164165160630       46.70475680173175       63.37346311705144
C           55.35043334331945       46.90106979482631       64.35284096993040
C           53.44407642030664       45.38438525312544       63.61513555812730
C           54.21141436607773       44.12983965700836       63.16826619730270
C           53.67677259286171       42.91954594264590       63.89426219404498
C           52.34251209891704       42.54553820863007       63.78051677519468
C           51.85275599478270       41.45284940355855       64.47239766825450
C           52.68735412667316       40.70724125307063       65.28703644070976
C           54.01933101101657       41.06549393374615       65.40166737704604
C           54.50581860585176       42.16350640826604       64.71357981261490
C           54.13188198396593       43.92829174017223       61.64863990317633
C           55.22459002672795       42.97439661523896       61.14979234088815
C           56.59389761410166       43.57764344371734       61.35199663175540
C           56.96409971859474       44.74430488425845       60.69217680496807
C           58.22888575225793       45.27945993815966       60.84787547904999
C           59.15289116252374       44.64850851873620       61.66312649756289
C           58.79894316873965       43.48704098446990       62.32668348519562
C           57.52786829439151       42.96138359566481       62.17415487931136
C           55.03560547535644       42.60962353825972       59.66216088819665
C           54.42676103364145       41.21741853446076       59.46244413980492
C           53.01505314051693       41.13340395189504       59.99140593983395
C           52.00286821649681       41.92283110743289       59.45621569442961
C           50.69814578926513       41.79483169503131       59.89189528583802
C           50.38417161887532       40.89298723280005       60.89330929918491
C           51.38446229714258       40.11588476026211       61.44731157508912
C           52.68637273479284       40.23083080320232       60.99290586281266
C           54.40109469218161       40.78414483546083       57.98416356598382
C           55.73972894041223       40.80574734612713       57.22451325334293
C           55.46503685638987       40.47304728848049       55.77659426610082
C           55.73675408701146       41.40261466064246       54.78075244221361
C           55.42655649520545       41.13804749804027       53.45824175703239
C           54.84604334000936       39.93200708218031       53.11031743287187
C           54.58117874366759       38.99060945194184       54.08997579086750
C           54.88798429246229       39.26193306963812       55.41021504618902
C           56.78042804882352       39.88192636658595       57.86497785500178
C           58.21810252332804       40.15534323990397       57.38126665532214
C           59.16775829078687       40.03075790476167       58.55008405094664
C           59.23046782065686       38.86149558524249       59.29921323583188
C           60.03858787225846       38.77005713651907       60.41758204882252
C           60.81206663068061       39.85177380536432       60.80214684966671
C           60.76932299003140       41.01917104471987       60.06083373635627
C           59.95145818666025       41.10498209126042       58.94822263255097
C           58.61292461847507       39.23114189884752       56.22306070711617
C           59.90021190483713       39.70318187504672       55.53259041185013
C           59.64700933868992       40.98874903880409       54.78233247133750
C           60.18665285329676       42.18779731960601       55.22628198582900
C           59.94577513300841       43.37040606551385       54.54936282806644
C           59.19535710497038       43.36643414504183       53.38775492782027
C           58.65918739017798       42.17642370791082       52.92912335473547
C           58.86712174411842       41.00436025958109       53.63164987485401
C           60.45365535274170       38.65053238830248       54.56259336701294
C           61.09929480647489       37.42363427835136       55.22764439251402
C           62.25819142029157       37.87139132995637       56.08101513368213
C           62.09879702615384       37.95287956041392       57.45916167036439
C           63.11188114655165       38.42285164879026       58.27408031194427
C           64.30906284523398       38.83143469373184       57.71479986667203
C           64.47981534240400       38.76035722034408       56.34278322799354
C           63.46675066884160       38.28176814844752       55.53115913990901
C           61.49058675640025       36.42799463191337       54.12630917133935
C           62.25160853852481       35.18327155401406       54.61547943014965
C           63.32544360683479       34.80723780263526       53.62187701061468
C           64.62628960471673       34.56700316747404       54.04416055668305
C           65.60914500630986       34.19896586387932       53.14111104730416
C           65.30285775723938       34.06947145874949       51.79725698525193
C           64.00899026272857       34.30779798206792       51.36579260337466
C           63.02773044430957       34.66923366623094       52.27029731547251
C           61.35905141132149       33.94308467955292       54.79349854503520
C           60.29447020573218       34.00895999859382       55.90255172681099
C           59.43126436352909       32.77490951395305       55.78598758243484
C           59.92861499325443       31.51256489531379       56.08970155189633
C           59.14151320986056       30.38541586040632       55.93922935244590
C           57.84083470479215       30.49619289820277       55.47736078702619
C           57.33230005852226       31.74611600027345       55.17514211878211
C           58.12271249746390       32.87280864132880       55.32874139574700
C           60.93765983682876       34.14536784903028       57.29105456977936
C           59.96628814576854       33.92965545748299       58.46443430084390
C           60.72294095162459       34.01706213332406       59.76623371100518
C           61.30013071863696       35.20834495637596       60.18920092406313
C           61.98492051532666       35.27756929864130       61.38857055466937
C           62.10872856938621       34.15257253127480       62.18545225534012
C           61.54694550551989       32.95791944326991       61.76994603700362
C           60.86128532540813       32.89292380134624       60.56990267302370
C           58.79140955024845       34.91648114003527       58.42515505196294
C           57.90198069172573       34.85926886755522       59.67868901915742
C           57.56993480149887       33.43993576411930       60.06393822678157
C           57.03861527133130       32.54971113146650       59.13750368526445
C           56.73504961172903       31.25078756167889       59.50114771679403
C           56.92838688457940       30.82975062714194       60.80533763612882
C           57.44374670881459       31.71000718696057       61.74098162632753
C           57.77133167090724       33.00121616131442       61.36654922117518
C           56.59714370305559       35.63691565380734       59.43565276257428
C           55.75244145468476       35.77094038858083       60.70991060553545
C           56.42426515221992       36.67629032411268       61.71656511500856
C           56.75913441964174       36.21617204807919       62.98270321223673
C           57.35978913340887       37.05209380379269       63.90824344346339
C           57.63852324095247       38.36772573134972       63.58121097889720
C           57.30659205114187       38.84081507358911       62.32365388355277
C           56.70070926436527       38.00260857641219       61.40701048105492
C           54.33966101331965       36.32353217378483       60.44913376726473
C           53.50434298115080       35.61644706317315       59.36666034870817
C           52.21595226006399       36.38920237203792       59.22652890186730
C           51.96265742131553       37.14394010885876       58.08916562420760
C           50.82642566551228       37.92785256611570       57.99837445412692
C           49.91989497130916       37.96672877941285       59.04056429713123
C           50.15060686827599       37.20200477908762       60.17156650774818
C           51.29106263679403       36.42729394182556       60.26335535568531
C           53.29767977929724       34.12193699219235       59.64392785544283
C           52.66214811625515       33.37919286210734       58.45262413826342
C           53.22093843647228       31.98472198074627       58.31104328501602
C           53.78413499648344       31.56454315441593       57.11303266229815
C           54.21086508240011       30.25894363523478       56.94711956251772
C           54.08952689450622       29.35384221940473       57.98668657452777
C           53.55226348308738       29.76686653615328       59.19468964122334
C           53.12160283578745       31.07074056192824       59.35352606001396
C           51.13342992233382       33.28406227791880       58.57124186385884
C           50.52092169541356       32.69974925600444       57.29085224923687
C           50.41767189491551       33.72912932784088       56.19629399167169
C           51.00542034518836       33.50552797552971       54.95746809880182
C           50.84648072848361       34.41112664628424       53.92258990505550
C           50.10738559136662       35.56450793005291       54.11734846930548
C           49.53801340135128       35.80832851790997       55.35520348072031
C           49.68831571030883       34.89689752969284       56.38336459028469
C           49.14023522682048       32.08279390447940       57.55683529808932
C           48.56478631414842       31.40742580225549       56.30530412032694
C           49.54583885393882       30.45536419648688       55.66247404853245
C           50.25017192558784       29.51402443256304       56.40416116742680
C           51.15617300375526       28.66568453240508       55.79337941053518
C           51.36605877586479       28.73334052055959       54.42659364030885
C           50.65832300234986       29.65440333503831       53.67421233924777
C           49.75829584064203       30.50634428634605       54.28983992305176
C           47.26140314531067       30.64514980131218       56.60053828349335
C           46.09617809770463       31.50454116943297       57.12265650767496
C           44.95557318366620       30.59935634104909       57.52302120212097
C           44.53017962888796       30.54144017905187       58.84435030257217
C           43.50580542214315       29.69560743583805       59.23019951460121
C           42.88952179333649       28.88465599776764       58.29376752732295
C           43.30245369646635       28.93314394523407       56.97354599939681
C           44.32205198111200       29.78529586920423       56.59154984192401
C           45.64296357868886       32.54435460250605       56.09125306024577
C           44.59253756760428       33.51612033805360       56.64895866598749
H           54.60759757916529       46.70063833515447       62.35998705458864
H           53.22356912715853       45.29638348412119       64.68094219095713
H           52.49377922904399       45.42142538588389       63.07765936226249
H           55.26426051779993       44.25505325458970       63.43911957423807
H           53.15385644141598       43.52076402016931       61.38550142226164
H           54.24229736598065       44.89339199395406       61.15028861207691
H           55.15967412388677       42.05766379496287       61.74653426100148
H           54.41007997529088       43.35669312059089       59.17304715465268
H           56.01469519208634       42.62959261218407       59.18098775020589
H           55.03442992531117       40.50422182480361       60.02957401953092
H           53.71608008741212       41.43575035481667       57.43925738995745
H           56.13801853886702       41.82552158666758       57.25415558651494
H           56.75785566745355       40.05086604641524       58.94260106107422
H           56.51147853585081       38.84050098728071       57.67876575658471
H           58.26846918873161       41.18558593861182       57.01187910814196
H           58.75275388087712       38.21917581095374       56.60696105443309
H           57.79920539731578       39.20621773891695       55.49465782593803
H           60.65590971274177       39.89337394322726       56.30295407870797
H           59.64730195428272       38.30702875000465       53.91201086792189
H           61.20581772106226       39.13401638768035       53.93481143007950
H           60.36238565291766       36.94961971217921       55.88267688036471
H           62.73706181371439       35.41605645379146       55.56788914326796
H           60.85724025737038       33.74397623995667       53.84282173655086
H           62.01129721504085       33.08876287726113       54.99270727223393
H           59.65891935516480       34.87956210850160       55.71802871436060
H           61.74590720737483       33.41636779369226       57.38667843975565
H           61.38665003153161       35.13620628634519       57.37582301367734
H           59.55502369865683       32.91829794857699       58.38245874083181
H           59.17425206326627       35.93337229289973       58.31399644119306
H           58.18480822672170       34.68729863589645       57.54778495517477
H           58.43904878010497       35.32660307818861       60.51157898644563
H           56.82710839777058       36.63007693321912       59.04478495263259
H           56.02893687064127       35.09837262137107       58.67677003597629
H           55.65813553386540       34.77669764056987       61.15660490890145
H           53.79743678274185       36.29124394575860       61.39712797160566
H           54.41586867759847       37.37446985611351       60.15679161579746
H           54.04221964018696       35.70779254710612       58.41845298810010
H           54.27392747921123       33.67419254704769       59.84228039955860
H           52.68349431034083       33.98636967465080       60.53475751126572
H           52.88948832783868       33.93110596784232       57.53342052289047
H           50.87967691468355       32.64144940806489       59.41684016023349
H           50.72153596270290       34.27310863489693       58.77052797705397
H           51.17644284602665       31.89444542694095       56.94488111816548
H           49.22518853599139       31.35667804961117       58.36729157819934
H           48.45639149342156       32.86666771622645       57.88428188263170
H           48.35538856575614       32.19179014117410       55.57158562362510
H           46.94728772020107       30.14271719908152       55.68244701689466
H           47.47348749114052       29.86867605598317       57.34030707637052
H           53.76095862096018       48.68292961998647       61.58574383827370
H           52.19308205700567       50.57930236321654       61.73971564953764
H           50.77665426763022       50.84966547736158       63.74421133972164
H           50.96753816434709       49.23176771951269       65.59705295456894
H           52.51041187949612       47.34278093759343       65.43928988500254
H           51.67091933225809       43.10871824263765       63.14978723536906
H           50.81098908525164       41.18408954776514       64.36962599510669
H           52.30650371071548       39.85340635597766       65.82843570533591
H           54.67982732559945       40.48969206009400       66.03378009601089
H           55.54596699599364       42.44153852345815       64.81607331415259
H           56.26183417872353       45.23893355781132       60.03705183486525
H           58.49437132232191       46.18575573661647       60.32503294925103
H           60.14428612987317       45.06115319303998       61.77866289451794
H           59.51349369415045       42.98626398542223       62.96408546297040
H           57.25405109141050       42.05784593510310       62.70139057218501
H           52.23189151932871       42.64634484850477       58.68702585523184
H           49.92319673360322       42.39546448011960       59.44029507112025
H           49.36556261453806       40.80189957232734       61.24015393024757
H           51.15079889734975       39.41388170982624       62.23327238180257
H           53.46178019487749       39.61226495713404       61.42480185401353
H           53.98328137524862       39.77481264535766       57.94730304880241
H           56.20020457045118       42.34497151326044       55.03763925958350
H           55.63459404054082       41.87645778983747       52.69786541472730
H           54.60240726048302       39.72734758752642       52.07832771418710
H           54.13365512209700       38.04370654351844       53.82496347885019
H           54.67344929143200       38.51658738091405       56.16176794269097
H           58.62406182524773       38.01316228381948       59.01932257473465
H           60.05436713049944       37.85712312834181       60.99552848213698
H           61.43939102690381       39.78595447440854       61.67930580112804
H           61.36485009866013       41.87140105855379       60.35506429948402
H           59.91166154292007       42.02494637627466       58.38514297349656
H           60.80332883122058       42.19641729380589       56.11377927159376
H           60.34374360999829       44.29593833884678       54.93819162582434
H           59.02370936134807       44.28389991761471       52.84399163859831
H           58.06967041637627       42.16673510687146       52.02406592714416
H           58.41092273797560       40.09196929520437       53.27816700613035
H           61.15642382126240       37.66401234676138       57.90208581134107
H           62.95813419790473       38.47911221294665       59.34165481101536
H           65.10401186500476       39.20647439526485       58.34261048288037
H           65.40919008959678       39.08993082757185       55.90169718186863
H           63.62496608910936       38.23072321250655       54.46397232711041
H           60.58547407515465       36.11605332013166       53.60076180920458
H           62.11322204677835       36.95172505883996       53.39723734059009
H           64.87314330399812       34.67478383126738       55.09149981548913
H           66.61708698979055       34.01944621362485       53.48622721291409
H           66.07033751626233       33.78848044515306       51.09109257864477
H           63.75679736990109       34.21019172000902       50.32028420158363
H           62.02293766497842       34.84386975039339       51.91487665184801
H           60.94208353359919       31.40671947558809       56.44771666505423
H           59.54664313968997       29.41310419357026       56.17999897931125
H           57.23263383127596       29.61330881682974       55.34763760395634
H           56.31870280616972       31.84950277756378       54.81417854050959
H           57.71161303559600       33.84231483728220       55.08160094590905
H           61.21834516935809       36.09456265631447       59.57927989978499
H           62.42475289718024       36.21384671580213       61.70203189866814
H           62.64211485996459       34.20616788864346       63.12332686406783
H           61.64069730468383       32.07347996396866       62.38333862848394
H           60.42029161153727       31.95758561706868       60.25443354037288
H           56.87028311247340       32.85780207516752       58.11564810632970
H           56.34417641650589       30.56954501312848       58.76102381562747
H           56.68340136030830       29.81690430520765       61.08876778355463
H           57.59422662816075       31.38891291270987       62.76175514702309
H           58.19805222736104       33.67918915471559       62.09237814743065
H           56.54603550250507       35.19134677472418       63.24850983542760
H           57.61229524499701       36.67246780949083       64.88804185170709
H           58.11134475796704       39.01993036847806       64.30100217119453
H           57.52814992990708       39.86194958150200       62.04837333638213
H           56.44306626047251       38.39077329407920       60.43343864024847
H           52.66084685528919       37.12580706261796       57.26337218347881
H           50.64906314974824       38.51992680946382       57.11455358743503
H           49.04769343320871       38.59913551014785       58.97000689654127
H           49.44081339921627       37.22062551359802       60.98727120652249
H           51.47881874275851       35.84717042390619       61.15466258780328
H           53.87964656449126       32.26716978643179       56.29626852351597
H           54.63490593431386       29.94920253911071       56.00310924089054
H           54.41777530001111       28.33201624693925       57.86047307540925
H           53.46265696057422       29.06696756398970       60.01338762137403
H           52.69139619986967       31.38030449816548       60.29548395884334
H           51.57995131048900       32.60303436325433       54.80040854108602
H           51.29333424611892       34.21848395802080       52.95741653994410
H           49.97661109310243       36.26154725992976       53.30384478403133
H           48.96671737545602       36.71086255756417       55.52628167289649
H           49.22835319452251       35.09461253398509       57.33995171668021
H           50.10263375761549       29.44724440803331       57.47174114407409
H           51.70262038838806       27.95006207339274       56.39007372639652
H           52.07342565980136       28.07090700435333       53.94925481258865
H           50.80886415206518       29.71267434847230       52.60504052818924
H           49.22042161839354       31.23157178553996       53.69475777172205
H           44.62319025470006       29.81209945945591       55.55485160230467
H           42.83198571733138       28.30003090607376       56.23584881745398
H           42.09405773620118       28.21663093841397       58.59123636969058
H           43.19310097698683       29.67092680373126       60.26416226652225
H           45.00138987363938       31.16999249968989       59.58665231283037
H           56.08549868095731       46.10665096339468       64.24753177583894
H           55.84660444468862       47.84843490358691       64.15095795835279
H           54.98642037769838       46.90946044162434       65.37757450429459
H           46.43346978548502       32.03770576462390       58.01665523343429
H           46.50749732931658       33.12888570530274       55.77542233776570
H           45.23079277782269       32.03986611095789       55.21589512426540
C           44.10931732317970       34.48581730212130       55.54932223370466
C           45.16449025901409       34.26360215350467       57.82654707112116
C           46.21762754071427       35.15884905137113       57.66875445946886
C           46.75117594740564       35.82416747349149       58.75861673827186
C           46.23611194001693       35.60759868727079       60.02671934480830
C           45.19306931172267       34.71391858983962       60.19566826859501
C           44.66408779945947       34.05053556308021       59.10363198945029
H           46.63060764110652       35.33096561841371       56.68450586789681
H           47.58103700399854       36.50402489882906       58.62424710263026
H           46.65601219357355       36.12575093920309       60.87763147584682
H           44.78776242366601       34.51196644957060       61.17610397650732
H           43.85226226402809       33.35465654778217       59.25030707968167
C           42.67969373622615       34.19241626208823       55.08086910577163
H           44.13093110398003       35.50973658451626       55.92945421327305
H           44.78677714796768       34.44063424058535       54.69479246494945
C           42.51338967137875       32.78697268658288       54.57615211122775
C           41.66712529223899       31.89654769737322       55.22216546197011
C           41.52236963818149       30.59805510829250       54.76850315283060
C           42.23679466183348       30.16601912613250       53.66648618088419
C           43.08803181379295       31.04222434892624       53.01445470675535
C           43.21766279728323       32.34457410183178       53.46130491575430
H           41.11197531656924       32.22012093874421       56.09105711147583
H           40.85548256111186       29.92392664895829       55.28384344669857
H           42.13708735800127       29.14953277526031       53.31436505614437
H           43.64782421180796       30.70760742607325       52.15309637697753
H           43.88076373270086       33.02536696969920       52.94363118402158
H           43.74053404056114       32.92557521786990       57.00078563774453
H           41.99213331392733       34.36397171833310       55.91241859325105
H           42.41833179541877       34.89846507097846       54.28584191218962
C           56.13069400579142       48.56226512037333       30.05401850019117
C           55.60726220053746       47.33672870289515       30.44910318801512
C           54.31593004451081       47.00983464447756       30.05657945126505
C           53.56435969114174       47.88373778092222       29.29082818950804
C           54.09373482362057       49.10392075362950       28.90932131368082
C           55.38033546779853       49.44068313343823       29.29430475503961
C           56.41109615571563       46.37489768723101       31.28639943999162
C           57.58323668072151       45.81306465716072       30.47620181761144
C           56.93228463487411       47.02996638584265       32.57317466924304
C           55.86792293807083       47.84161603334476       33.32524850684450
C           54.61275553803657       47.04703290364939       33.57522224533361
C           53.38071306548260       47.53252222650776       33.15528354934063
C           52.21556558835282       46.83038945665241       33.40840032493769
C           52.26130753237528       45.62601038908426       34.08917162297865
C           53.48579139170340       45.12843774748838       34.50306155748105
C           54.64941507422608       45.83061803381884       34.24686313746082
C           56.45328147871115       48.34963115805054       34.64977485021986
C           55.62370861879051       49.47604427137234       35.28573468956352
C           55.69479492877071       50.72203984627834       34.44329756651702
C           56.88466053051192       51.42476401779379       34.29352300103678
C           56.94160535196868       52.56131798296167       33.50778792587287
C           55.80900951296329       53.01042111247470       32.85046099610702
C           54.61855893735878       52.31911214563850       32.99163433075875
C           54.56385602630010       51.18732994412242       33.78523764831980
C           56.12925589074788       49.69990274629286       36.71789209186515
C           55.65237724813437       50.99155743773166       37.39371020410723
C           54.16118178960154       51.17455013472912       37.28406935260635
C           53.28104164940275       50.23512782184289       37.80743846651882
C           51.91386294834055       50.42930318393453       37.73137698993630
C           51.40548352447680       51.56522342559764       37.12510146422519
C           52.27171862126493       52.50514529916399       36.59499321154017
C           53.63832143686592       52.30864277142952       36.67496444990513
C           56.08784851981078       50.96567189442423       38.86654709512285
C           55.83112033347195       52.29826283518602       39.58405401115633
C           56.77647893115488       53.35406527384824       39.07347262191725
C           56.28564379246368       54.43548689567313       38.35281352207807
C           57.13876349773442       55.39941169908995       37.84580710494843
C           58.50272409555479       55.29820788688433       38.05655215163591
C           59.00536161375086       54.22245237284152       38.76891755708266
C           58.14995621573618       53.25714807909755       39.26892720551928
C           55.90568719079025       52.08962621704799       41.10334455933916
C           55.60345370795747       53.35512654297074       41.93360585699121
C           54.67773280739085       53.01637849354208       43.07864823259246
C           53.43855100018934       53.63560950923041       43.19882899871187
C           52.57398609001910       53.29730373701755       44.22607784160260
C           52.93239471158257       52.33089790644109       45.15054806521358
C           54.16652047928752       51.71263454853523       45.04584744164928
C           55.02927131327850       52.05297047152648       44.01865573746471
C           56.90655808826573       53.99110964290326       42.43491757688768
C           56.70032228889120       55.33173371093093       43.15292017835384
C           56.01542585944832       56.33756372453121       42.26376037140332
C           54.78632407813078       56.87468353885087       42.62844086769508
C           54.17053985999914       57.84289869824049       41.85392116118773
C           54.78285088191227       58.29086216788456       40.69623556524294
C           55.99849381395665       57.74955973817234       40.31086193396920
C           56.60826545022495       56.77987691337817       41.08583807647566
C           58.06818184834050       55.84789295553268       43.64081574003701
C           58.07328377396168       57.31451324464938       44.09997954490755
C           59.49823822944996       57.78351366807414       44.26968333973660
C           60.31536948762945       57.26786298239094       45.26825139089210
C           61.62729760673155       57.68204259939561       45.40099049905432