3536
 energy: -3716.249884475943 gnorm: 0.000842253617 xtb: 6.6.1 (8d0f1dd)
C           54.04516870988488       38.96689899277712       62.25113131335366
C           54.63279215263537       40.11576361429636       63.06934696347299
C           55.91858659718540       40.60706434809071       62.41088219158105
C           54.86993561829625       39.65147685630096       64.51111863053853
C           55.23245909462049       40.75666666003870       65.50961230039140
C           55.74509707635146       40.13140231423125       66.80797238554568
C           54.09041309745854       41.74834006770255       65.78066182692996
C           52.81150372981999       41.15396162544690       66.40516995601159
C           51.68965061455900       41.07592313994967       65.37071237137403
C           52.38681012349497       41.99083244901883       67.61998719787604
C           51.26403688681610       41.40995286966494       68.49160206062729
C           50.76252545621184       42.50085981376211       69.43785474680452
C           51.75834126846274       40.19622372141018       69.28816051716493
C           50.64902631501425       39.39213192866008       69.99172535713126
C           51.02980196935371       39.12732415929016       71.44972868151051
C           50.37139986905591       38.05195792922294       69.29703501788046
C           49.76311237056260       38.13814994058090       67.89042457869749
C           48.35734191489973       38.73420759261711       67.93414395162955
C           49.73336951787623       36.73732996741217       67.24224468502369
C           50.51774034693456       36.58338461207637       65.92957794361816
C           51.99609411438677       36.92719413020149       66.11895851649638
C           49.94204991725335       37.39997169349631       64.76540316749484
C           48.52110035945935       37.03528266352976       64.31201630703390
C           48.36639058400732       35.53201372954351       64.07345108979730
C           48.16568985785622       37.76414569435542       63.00592923292093
C           48.11009381067534       39.29550717563816       63.05634673978822
C           46.92019382598775       39.77541466147326       63.88692431244585
C           47.99319223442168       39.87610981387115       61.63785778324675
C           49.23683485517542       39.72345371430375       60.75465763511639
C           50.42284645029828       40.47651540076863       61.35772088654394
C           48.98110638088500       40.24800389308801       59.33344224035206
C           47.86617739036384       39.55884052824175       58.53275367686210
C           47.98341592337777       38.03488439644025       58.58902399260140
C           47.91273321203526       39.98250475296989       57.05575087344758
C           47.66651067955712       41.46612134465227       56.75944268357180
C           46.20088184917905       41.83045089463676       56.99193875372537
C           48.05543570450902       41.80024574175106       55.30994275877950
C           49.56596341185466       41.82927850582328       55.03302907287043
C           50.21342243090226       43.03931187765752       55.70033458378830
C           49.82746505661223       41.83524209133793       53.51993443212540
C           51.28134377681516       41.55885491633711       53.11844072850545
C           51.47834631795160       41.88027222161133       51.63754282257492
C           51.78413810892151       40.14561717566898       53.45687120530543
C           51.11739955943183       38.96855037842889       52.72647426399644
C           49.98670875774219       38.36091699699494       53.55854386448978
C           52.14919630992576       37.87190315301704       52.41549369853315
C           53.11751434971465       38.18968928859399       51.26551837322320
C           52.41466678823327       38.04831499675885       49.91788801293247
C           54.33102785349397       37.25324207177885       51.37214407124067
C           55.38137391091478       37.34335206984827       50.25403678160462
C           56.44806795467014       36.27522127393356       50.49690188901522
C           56.00314851745312       38.74161451370040       50.19741102341516
C           57.03320123254151       38.99038251105265       49.08326251247613
C           57.53404189928217       40.42752763030425       49.21718541787606
C           56.41053082065775       38.70530059796793       47.70774421754815
C           57.10664444243103       39.30930963521619       46.48013692919519
C           56.28260201608760       38.96310328555820       45.23859472601963
C           58.55237852247085       38.82285203661119       46.32104081789077
C           59.38511766090827       39.66482840904546       45.34190067269855
C           60.61442607646416       38.87711643157500       44.89071181046949
C           59.81324039738609       41.00154483553895       45.96153292168896
C           60.22442486282073       42.06577992750007       44.92491724079938
C           61.66677800314717       42.51421957427638       45.15547977643962
C           59.30807191447535       43.29620250299093       44.97251253835719
C           57.83741773329861       43.05049298356492       44.61498760008887
C           57.67653026383483       42.62905883989585       43.15564020949346
C           57.01627750253966       44.32123825833381       44.88530048908056
C           55.53701667916278       44.05460094212625       45.20788924625745
C           54.70967988133965       45.29532398654035       44.88038889000600
C           55.39401568946400       43.66994838947581       46.68568518049483
C           54.01617014281688       43.15626262304679       47.12901748955131
C           53.95957839141992       43.16434649017329       48.65644890334589
C           53.74688047506518       41.75514540969074       46.57309806676017
C           52.32972458161322       41.20554678667516       46.78944949925972
C           52.26306531053694       39.77993678060494       46.23769090767920
C           51.24841202608633       42.07845591842859       46.12623775181628
C           50.50731871627482       43.01513043006451       47.09006345184708
C           49.53971361613341       42.21452190654997       47.96043313342762
C           49.72842972131852       44.10054951953271       46.33398781508897
C           50.58897403599188       45.19121138203965       45.68590360786567
C           51.17985799606133       46.12237874143589       46.74451797675131
C           49.77119809313027       46.03267813836313       44.69537719321426
C           49.35377090108541       45.33817895238123       43.39452970889922
C           50.56583845499939       45.08191551515096       42.49805354423174
C           48.33789045599334       46.19608400282775       42.62290639688626
C           46.94211270521376       46.31172629992852       43.24727151843695
C           46.20927804507730       44.97106782637720       43.22051294026891
C           46.09923495270429       47.36735972166014       42.51774499501381
C           46.54473273868254       48.80476813702013       42.77611297204777
C           45.57293430441513       49.81258863565990       42.17536167696216
H           53.86148954006423       39.28261426232109       61.22682592907670
H           54.73403855993816       38.12429272046198       62.22857755257871
H           53.10357742022151       38.62557341416301       62.67670044309200
H           45.89968641107724       50.82918211154312       42.38253498820904
H           45.50591305210934       49.68641128525250       41.09657351380747
H           44.57784245037472       49.68347023583851       42.59610691939694
H           46.11626795495532       47.16697928097599       41.44317270630798
H           45.06261741112473       47.26878523890780       42.85104650096553
H           48.76257347443251       47.19610324481297       42.51398954687631
H           48.22304421623758       45.77962378862969       41.61820885391514
H           48.89728336755666       44.37173400889807       43.62444829315802
H           51.05052055619104       46.02041240560329       42.23545734773606
H           51.29525861603395       44.44693888422634       42.99368923696218
H           50.26190876875265       44.58571527771736       41.57845406047218
H           48.87778151649519       46.38172015908298       45.21680709245251
H           50.36020230976303       46.91348201245258       44.42413065197314
H           49.12803185739722       43.60729424647053       45.56620252435626
H           49.03821006425118       44.58327079204560       47.02969240655186
H           47.03522422296356       46.63004869530079       44.28978872380588
H           45.22198380121438       45.06956500848438       43.66664660940324
H           46.08923715950138       44.62269659024470       42.19633991517234
H           46.75143634834085       44.21316696624832       43.77936117761505
H           51.41384564613644       44.72129921827586       45.14290119611039
H           50.38676533032795       46.67261301087745       47.24651237047578
H           51.73680561573933       45.56932724566548       47.49524892260629
H           51.85736482772950       46.83831180815991       46.28358622501700
H           51.23076511536555       43.49727412349066       47.74996209653362
H           49.06340978139924       42.86003399849849       48.69420173630606
H           48.76378740345940       41.75954745586991       47.34780078955335
H           50.05812965160853       41.42092188365205       48.49311897346062
H           51.71164784162922       42.65797512293116       45.32634950905537
H           50.50395803708640       41.43228742682216       45.65342769160314
H           52.13731986170313       41.14913986028764       47.86454388750192
H           53.02462423564283       39.14916162536647       46.69288714931721
H           51.29198545087183       39.33350939813770       46.44117929143066
H           52.42164669462371       39.77910007427961       45.16031131551566
H           53.94504984282777       41.75479386489703       45.49836873852762
H           54.45922069045922       41.06520972772515       47.03348330217656
H           53.25235707840251       43.83866467010794       46.75284523212353
H           54.74868695130873       42.53711180452395       49.06833212286634
H           54.09431339916335       44.17714902746970       49.03273316093256
H           53.00649537372512       42.79249401881974       49.02293663492654
H           56.13811914316391       42.90704825279057       46.92816491245627
H           55.63326974177993       44.55734071328011       47.27832045002769
H           55.18598152698758       43.22959302509828       44.57950856662828
H           53.65693369880041       45.13705426655658       45.09306469496593
H           55.05214764483970       46.14359674356644       45.46821467064922
H           54.80266939597553       45.54726780063606       43.82592986815888
H           57.45352463952955       44.87167343818489       45.72133804570132
H           57.08503219908991       44.96733723671396       44.00722316601163
H           57.44982303353116       42.24405139351045       45.24359420600681
H           58.13707919572191       43.36132226640196       42.49460779010393
H           58.13927915603669       41.66329581690110       42.96786598227889
H           56.62303841768887       42.54982662190807       42.89576614440713
H           59.35613378259516       43.71090097023822       45.98325955860124
H           59.70435678626933       44.05446030277717       44.29228265459309
H           60.16973917130458       41.62925817278862       43.92298442728769
H           61.98148590343457       43.21819023054794       44.38769128382018
H           61.75848678015645       43.00207068396444       46.12368734610136
H           62.34302520050250       41.66341751428767       45.13474394120225
H           58.99723811811675       41.39830076316510       46.56449116399638
H           60.64699552889747       40.81110134820095       46.64183003447000
H           58.77391396831794       39.87273771593361       44.45855237280680
H           60.32130033580064       37.96714398419579       44.37066969268911
H           61.22675724785122       39.47124079507107       44.21630917904847
H           61.22256109847368       38.59921033497587       45.74977806300586
H           59.05662166202718       38.82211601138788       47.28855093269393
H           58.52879523335412       37.78788570995591       45.96957829489676
H           57.10457364331634       40.39721494513103       46.58557152519420
H           56.71008397118042       39.40982392671951       44.34486782452213
H           56.24344531790828       37.88447758460751       45.09548029733398
H           55.26441639981019       39.33059662769230       45.34061216173896
H           56.35199960411095       37.62312634344942       47.56786573639438
H           55.38500138891211       39.08627357614853       47.71816742860839
H           57.88778786356345       38.32338171861609       49.23470544733250
H           56.73672139630162       41.13531486581880       48.99925589838978
H           57.87820418843930       40.59933595654164       50.23399333917205
H           58.36602708293738       40.62400713240509       48.54867108637968
H           55.20254316002606       39.47332649944401       50.07076006151460
H           56.47910847446086       38.94040635746801       51.16142669964371
H           54.89226987898809       37.12342908183440       49.30162643196243
H           55.98885832894820       35.29359093605127       50.59616387870081
H           57.15464320892973       36.23247102632489       49.67220645967449
H           56.99800985665014       36.48884457196630       51.41143589749827
H           54.83184420445239       37.44424054118066       52.32576145029081
H           53.95899575118157       36.22478217814398       51.40233449587981
H           53.45752544983601       39.22368944981289       51.37231074038127
H           52.17543122800992       37.00509105088994       49.72011100343801
H           51.48862412460279       38.61758056477500       49.90544723620053
H           53.04061751292384       38.41782414686542       49.11046070664666
H           52.72619738084244       37.68097500678414       53.32500316196769
H           51.62254233955744       36.94586479543957       52.16969343495308
H           50.69006192781210       39.32013000353744       51.78465112594462
H           49.49358935492715       37.56201089617468       53.00662927263516
H           50.37856521705628       37.94135069039537       54.48242246849485
H           49.23933255339190       39.10471697998907       53.81621049814746
H           52.85334604162336       40.13560093003774       53.22963895600643
H           51.69229544789413       39.97928727061402       54.53163129527794
H           51.92080117401127       42.24969336944621       53.67943456993059
H           52.48571349630698       41.61955047131142       51.32079571568050
H           50.76887253647222       41.33804468465860       51.01665489513363
H           51.32761871012551       42.94236837400933       51.46492786704503
H           49.18185690906800       41.10378342765344       53.03023169356982
H           49.54530846795591       42.81551683956375       53.12486015218558
H           50.01195094068677       40.92542011278722       55.45648985257119
H           49.99283825908782       43.05565558969933       56.76287516162030
H           51.29370456727214       43.01619453224038       55.58903075803898
H           49.84333765739478       43.96333501743082       55.26326978129739
H           47.58111735488247       41.06470038201847       54.65358014460682
H           47.63946932737044       42.77729751744143       55.05104214156633
H           48.27642601202189       42.07257194923815       57.43274741883272
H           45.90886719312967       41.64003631758418       58.02168760304020
H           46.03201052275760       42.88501954310744       56.78270589129262
H           45.55446990779999       41.24592462409220       56.33919665199306
H           48.89096630496910       39.69565411224907       56.66401567000683
H           47.16645087152123       39.40130977749877       56.50585925459468
H           46.89517153793824       39.84210453308309       58.95069405554611
H           47.23624504105771       37.57553209238541       57.94415740607106
H           48.96672320030943       37.71981507301209       58.24583729797614
H           47.82923745878684       37.65887230512579       59.59661540258181
H           48.75571892807143       41.31425750305539       59.40588268328673
H           49.91152814992387       40.14438697363449       58.76835878834290
H           49.51172907373311       38.66828481542471       60.68351744553236
H           50.77681746588556       39.98954557976212       62.26199432397125
H           51.25175380127001       40.51190046326548       60.65375219978340
H           50.13722313385095       41.49590118206288       61.60581828989676
H           47.14076940174306       39.39907825268953       61.15009179825811
H           47.76782771346164       40.94297125138145       61.71838530979514
H           49.02178741085295       39.67944986400624       63.51804803752464
H           46.98187646432358       39.41413199640689       64.91008353605147
H           46.89204032917759       40.86255715264389       63.91684907611038
H           45.98528732708819       39.42051467924755       63.45632733310134
H           48.89994530132473       37.46022336940411       62.25705698946320
H           47.18930658421869       37.40505519891351       62.66662236907167
H           47.80803665025508       37.32747957141169       65.08823347937235
H           48.44801735542067       34.97100517701429       65.00049514112985
H           47.39038955840486       35.31808742733889       63.64176060178768
H           49.12897825620813       35.17569749985532       63.38351398689674
H           49.96072977118190       38.45454821755338       65.04140042348293
H           50.61134679947417       37.27339999979790       63.90925968263210
H           50.47266479449939       35.52289882324281       65.65933556950824
H           52.41341453394666       36.36817957221250       66.95396883749021
H           52.56167795188261       36.67428653194425       65.22426264525178
H           52.13092797352925       37.98770834615708       66.31350065542037
H           50.13694948308004       36.00818444982583       67.94974923507195
H           48.69741357746592       36.44804356731326       67.05878989886496
H           50.38963758902147       38.79833442840501       67.28832478915142
H           47.93306310296750       38.77355326805863       66.93385560555204
H           47.70465553164038       38.12943601522588       68.56142088377908
H           48.36781844346839       39.74674420537910       68.32858155404536
H           51.31380889522666       37.50039727667984       69.23897444352637
H           49.69163001716106       37.46893557264049       69.92561036834812
H           49.72549008880791       39.97668030021710       69.99593716909938
H           51.19471841732989       40.06370295600961       71.97858608306194
H           50.23996579086450       38.58197435945813       71.96290505232670
H           51.94221837321560       38.53611570653546       71.50359731976057
H           52.30844997235086       39.52649986059763       68.62614876589974
H           52.47145565031978       40.55649030287232       70.03410445706004
H           50.43016319748052       41.10421129719283       67.85390363654165
H           50.36085703333693       43.34114981700444       68.87546470805150
H           49.97796739925280       42.12971092253254       70.09225931928701
H           51.57864315294943       42.86325086985683       70.06098619747290
H           53.25887918464273       42.14046929830651       68.26276944919096
H           52.07409991386682       42.97469832765650       67.25892429893945
H           53.02778080687755       40.13887686842313       66.74804747130980
H           52.00410537992111       40.49005315080698       64.51090942770924
H           50.80003473676508       40.60976332947732       65.78880670149195
H           51.41621109787386       42.07126096969018       65.02827338665460
H           54.48920830314814       42.51931887018076       66.44452151239510
H           53.83406734105076       42.24790929520442       64.84705453979522
H           56.05811096116121       41.34194636217794       65.08902284506620
H           56.66152831033779       39.57318150019422       66.62593799722720
H           55.95764693072683       40.90303226782008       67.54447383454978
H           55.01732016993633       39.44465840887850       67.23379882493764
H           53.97697184410540       39.13425221867291       64.86747153638380
H           55.68030927352530       38.91632680788041       64.50247229034623
H           53.91038271300345       40.93750413144062       63.07183289698953
H           55.72859385674560       40.88706533957122       61.37734209606250
H           56.31965121984746       41.47476218499670       62.92640824301713
H           56.67233029801505       39.82175991945328       62.41871880566439
H           46.60884938746604       48.96824680462836       43.85358470101129
H           47.53533499650149       48.97324561845154       42.35210897262896
C           74.13765907874107       60.89436260346477       60.37064176760881
C           73.33631110640800       60.46479847272457       59.14260163190234
C           72.71504728104478       59.09251419750699       59.38960059856795
C           74.23626216812295       60.46532281112206       57.89962558254967
C           73.48150070209584       60.41635362168658       56.56415967940317
C           74.43460720998526       60.02074226817421       55.43671371513039
C           72.81732482719929       61.76497682115955       56.25191085689223
C           71.55930732304414       61.65810779735830       55.37801393346390
C           71.21921534773671       63.03346048789488       54.80686940251262
C           70.39609607161402       61.09894342448819       56.20308059421199
C           69.15692075490307       60.65235414545226       55.41830881682187
C           68.12000370512588       60.12944496639857       56.41255610668762
C           69.47761538903214       59.58107967399286       54.36132635686437
C           69.48368689735804       60.10350295946454       52.91971910630268
C           68.05940234859807       60.40342834747000       52.45168534566636
C           70.11060885523214       59.08187379653856       51.96305565862738
C           71.63877662017246       58.96996027913873       51.99903040153069
C           72.29219637367692       60.19830938685961       51.36725880601558
C           72.07879906744100       57.70235199405848       51.24998778180627
C           71.97335939469464       56.41779837280989       52.08756719024920
C           73.21706863240749       56.27223525416457       52.96204354463744
C           71.78318645753411       55.21156379078796       51.15870662379796
C           71.58377591347201       53.84569082508423       51.83304139921397
C           71.65785056528594       52.75689805120508       50.76128285660180
C           70.24260491626400       53.77188740074541       52.57275226815351
C           70.07996381502234       52.53370682008574       53.47685508162330
C           68.78867146198985       51.79275357021094       53.13131312030590
C           70.06060283945035       52.89988478789385       54.96711043815314
C           71.36173432113664       53.50021917792957       55.50805763644226
C           72.48344551282263       52.46074434884257       55.52761218131678
C           71.18579783609343       54.05561353602300       56.92979340375371
C           70.15261800004242       55.17709597161030       57.09944337905775
C           70.42304449631644       56.34188885671318       56.15084458144011
C           70.15792318670569       55.66828611551514       58.55497943393874
C           68.86809253483197       56.38034393320884       58.98851886230063
C           69.13221334755958       57.17628996102300       60.26651199854404
C           67.70640132872620       55.39366805522609       59.20586728512922
C           66.67229232128891       55.34181239511289       58.07352798763224
C           65.80246255442715       56.59476180556114       58.08030604842995
C           65.79023303296449       54.09572680116042       58.22450451425718
C           66.46210109411456       52.80059905370985       57.75001275176031
C           66.31552653059812       52.66253769462661       56.23620203967566
C           65.85599523057438       51.56917524283387       58.43594143630096
C           66.26041167319515       51.38082960023502       59.90492611441120
C           67.70087429699953       50.87525609765341       59.99920958415067
C           65.31053151403563       50.40038653607632       60.61822401558794
C           64.18404638551965       51.02665261864861       61.45506156123658
C           63.25961378121934       51.90414313363268       60.61314259189723
C           64.69065601385292       51.83036645036736       62.66122179804693
C           65.50553970263182       51.04622709755100       63.69492543961364
C           64.71014883526881       49.86541859255959       64.25244439265229
C           65.92611555949912       51.93986916178708       64.87149688776341
C           66.78750810846147       53.16997045080950       64.54777987623588
C           68.04274769123023       52.79174647672432       63.76714810547349
C           67.14442600077633       53.85304148536201       65.87610097050445
C           67.90894127739624       55.18381190878168       65.79560312462173
C           68.20530158991839       55.64927682870477       67.22217446722290
C           67.10269668726660       56.22068918200040       65.00501399712137
C           67.63091294729146       57.66204535183965       65.01423303304054
C           66.64378877851622       58.54484092775424       64.25315960727909
C           69.03504280435602       57.73778250859766       64.40175163315637
C           69.61954720897926       59.14717949900405       64.22190995242674
C           70.95430786379073       59.03966723472738       63.48398158720932
C           69.79501011129480       59.85152148627884       65.57188188368050
C           70.05243888896558       61.36453553782821       65.50657901294011
C           70.56348684036121       61.83030860062178       66.87078975730716
C           68.77376077005869       62.11997539199582       65.12217538915081
C           68.96436503515565       63.61709492129286       64.81600974440609
C           67.86704449436019       64.43254800831585       65.50344535702322
C           68.93015513285491       63.92601350187159       63.31322383689579
C           70.02548725686279       63.28532966645921       62.45387853495817
C           71.41076068205039       63.79126461060335       62.85804254353445
C           69.80650861514670       63.61566086889723       60.96802671718103
C           68.57907226100112       62.97611435313654       60.30872571553572
C           68.79662071258066       61.47754968476590       60.09862439454124
C           68.25407111137234       63.63713790184357       58.95921817718227
C           67.90105315975644       65.13008850106323       58.99859943222190
C           66.77501940539587       65.42314902988909       59.98777556582582
C           67.46696067759545       65.63687885144394       57.61428469317551
C           68.50674195892890       65.55006521605321       56.49147074195736
C           69.82790198894460       66.20363575442934       56.90175454402156
C           67.99793666208788       66.25125922063012       55.22197206662152
C           66.81296182716407       65.60988546039920       54.48175370006010
C           67.22199971227212       64.28215055326581       53.85120173892168
C           66.33287062176417       66.62233833792810       53.42845894443265
C           65.28149935376348       66.15536455927318       52.41240415749444
C           65.03550225222423       67.29198550375745       51.41791069737010
C           63.97463361362215       65.71643222798974       53.08013804277645
C           62.96672926098784       65.13867421966003       52.08671063774860
C           61.76222531570732       64.51651160977860       52.77956143376723
H           74.54269665622336       61.89563920003066       60.23819962623619
H           73.50718890969956       60.89374738110410       61.25747220887144
H           74.96647189868679       60.21011130711223       60.54115133743439
H           62.06862970918696       63.69483001697808       53.42240140961855
H           61.25033382571218       65.25347885595939       53.39302104011571
H           61.05912339010562       64.13272376894783       52.04344546627725
H           64.19847422016143       64.95337533441410       53.82802400642904
H           63.52792340904352       66.56641600251595       53.60234266300940
H           65.93866505684029       67.49827605304549       53.94996343518520
H           67.20986974528060       66.95281909502020       52.86290129452988
H           66.00242518919447       65.42482154415991       55.19244155030427
H           67.96633358654890       64.44298892648136       53.07312860696425
H           67.64960574149836       63.62344960881570       54.60305556538049
H           66.36563840178955       63.77662840377700       53.41288200475226
H           67.72655579443659       67.27647037783520       55.49165094295545
H           68.82900171699710       66.31775556965806       54.51345913525785
H           66.57787195419729       65.07924791218768       57.31313076822391
H           67.17581626924759       66.68544179285388       57.72226071501724
H           65.68606135913416       65.30436937844912       51.85399025188149
H           64.40357002092122       66.96516979639273       50.59656854105879
H           64.55513728623949       68.13386635404179       51.91244823527944