      -----------------------------------------------------------      
     |                   =====================                   |     
     |                           x T B                           |     
     |                   =====================                   |     
     |                         S. Grimme                         |     
     |          Mulliken Center for Theoretical Chemistry        |     
     |                    University of Bonn                     |     
      -----------------------------------------------------------      

   * xtb version 6.6.1 (8d0f1dd) compiled by 'stahn@M-Bot' on 2023-08-01

   xtb is free software: you can redistribute it and/or modify it under
   the terms of the GNU Lesser General Public License as published by
   the Free Software Foundation, either version 3 of the License, or
   (at your option) any later version.
   
   xtb is distributed in the hope that it will be useful,
   but WITHOUT ANY WARRANTY; without even the implied warranty of
   MERCHANTABILITY or FITNESS FOR A PARTICULAR PURPOSE.  See the
   GNU Lesser General Public License for more details.
   
   Cite this work as:
   * C. Bannwarth, E. Caldeweyher, S. Ehlert, A. Hansen, P. Pracht,
     J. Seibert, S. Spicher, S. Grimme, WIREs Comput. Mol. Sci., 2020, 11,
     e01493. DOI: 10.1002/wcms.1493
   
   for GFN2-xTB:
   * C. Bannwarth, S. Ehlert and S. Grimme., J. Chem. Theory Comput., 2019,
     15, 1652-1671. DOI: 10.1021/acs.jctc.8b01176
   for GFN1-xTB:
   * S. Grimme, C. Bannwarth, P. Shushkov, J. Chem. Theory Comput., 2017,
     13, 1989-2009. DOI: 10.1021/acs.jctc.7b00118
   for GFN0-xTB:
   * P. Pracht, E. Caldeweyher, S. Ehlert, S. Grimme, ChemRxiv, 2019, preprint.
     DOI: 10.26434/chemrxiv.8326202.v1
   for GFN-FF:
   * S. Spicher and S. Grimme, Angew. Chem. Int. Ed., 2020, 59, 15665-15673.
     DOI: 10.1002/anie.202004239
   
   for ALPB and GBSA implicit solvation:
   * S. Ehlert, M. Stahn, S. Spicher, S. Grimme, J. Chem. Theory Comput.,
     2021, 17, 4250-4261. DOI: 10.1021/acs.jctc.1c00471
   
   for DFT-D4:
   * E. Caldeweyher, C. Bannwarth and S. Grimme, J. Chem. Phys., 2017,
     147, 034112. DOI: 10.1063/1.4993215
   * E. Caldeweyher, S. Ehlert, A. Hansen, H. Neugebauer, S. Spicher,
     C. Bannwarth and S. Grimme, J. Chem. Phys., 2019, 150, 154122.
     DOI: 10.1063/1.5090222
   * E. Caldeweyher, J.-M. Mewes, S. Ehlert and S. Grimme, Phys. Chem. Chem. Phys.
     2020, 22, 8499-8512. DOI: 10.1039/D0CP00502A
   
   for sTDA-xTB:
   * S. Grimme and C. Bannwarth, J. Chem. Phys., 2016, 145, 054103.
     DOI: 10.1063/1.4959605
   
   in the mass-spec context:
   * V. Asgeirsson, C. Bauer and S. Grimme, Chem. Sci., 2017, 8, 4879.
     DOI: 10.1039/c7sc00601b
   * J. Koopman and S. Grimme, ACS Omega 2019, 4, 12, 15120-15133.
     DOI: 10.1021/acsomega.9b02011
   
   for metadynamics refer to:
   * S. Grimme, J. Chem. Theory Comput., 2019, 155, 2847-2862
     DOI: 10.1021/acs.jctc.9b00143
   
   for SPH calculations refer to:
   * S. Spicher and S. Grimme, J. Chem. Theory Comput., 2021, 17, 1701-1714
     DOI: 10.1021/acs.jctc.0c01306
   
   with help from (in alphabetical order)
   P. Atkinson, C. Bannwarth, F. Bohle, G. Brandenburg, E. Caldeweyher
   M. Checinski, S. Dohm, S. Ehlert, S. Ehrlich, I. Gerasimov, C. Hölzer
   A. Katbashev, J. Koopman, C. Lavigne, S. Lehtola, F. März, M. Müller,
   F. Musil, H. Neugebauer, J. Pisarek, C. Plett, P. Pracht, F. Pultar,
   J. Seibert, P. Shushkov, S. Spicher, M. Stahn, M. Steiner, T. Strunk,
   J. Stückrath, T. Rose, and J. Unsleber
   
 * started run on 2024/06/20 at 16:35:25.373     

           -------------------------------------------------
          |                Calculation Setup                |
           -------------------------------------------------

          program call               : /home/abt-grimme/AK-bin/xtb input.xyz --input input.inp --opt --gbsa water
          hostname                   : boar082.thch.uni-bonn.de
          coordinate file            : input.xyz
          omp threads                :                     8

   ID    Z sym.   atoms
    1    6 C      1-90, 273-362, 545-634, 817-906, 1089-1178, 1361-1450,
                  1633-1722, 1905-1994, 2177-2266, 2449-2538, 2721-2810,
                  2993-3082, 3265-3354
    2    1 H      91-272, 363-544, 635-816, 907-1088, 1179-1360, 1451-1632,
                  1723-1904, 1995-2176, 2267-2448, 2539-2720, 2811-2992,
                  3083-3264, 3355-3536

molecular fragmentation (1/2 indicates fragments):
111111111111111111111111111111111111111111111111111111111111111111111111
111111111111111111111111111111111111111111111111111111111111111111111111
111111111111111111111111111111111111111111111111111111111111111111111111
111111111111111111111111111111111111111111111111111111112222222222222222
222222222222222222222222222222222222222222222222222222222222222222222222
222222222222222222222222222222222222222222222222222222222222222222222222
222222222222222222222222222222222222222222222222222222222222222222222222
222222222222222222222222222222222222222222222222222222222222222222222222
222222222222222222222222222222222222222222222222222222222222222222222222
222222222222222222222222222222222222222222222222222222222222222222222222
222222222222222222222222222222222222222222222222222222222222222222222222
222222222222222222222222222222222222222222222222222222222222222222222222
222222222222222222222222222222222222222222222222222222222222222222222222
222222222222222222222222222222222222222222222222222222222222222222222222
222222222222222222222222222222222222222222222222222222222222222222222222
222222222222222222222222222222222222222222222222222222222222222222222222
222222222222222222222222222222222222222222222222222222222222222222222222
222222222222222222222222222222222222222222222222222222222222222222222222
222222222222222222222222222222222222222222222222222222222222222222222222
222222222222222222222222222222222222222222222222222222222222222222222222
222222222222222222222222222222222222222222222222222222222222222222222222
222222222222222222222222222222222222222222222222222222222222222222222222
222222222222222222222222222222222222222222222222222222222222222222222222
222222222222222222222222222222222222222222222222222222222222222222222222
222222222222222222222222222222222222222222222222222222222222222222222222
222222222222222222222222222222222222222222222222222222222222222222222222
222222222222222222222222222222222222222222222222222222222222222222222222
222222222222222222222222222222222222222222222222222222222222222222222222
222222222222222222222222222222222222222222222222222222222222222222222222
222222222222222222222222222222222222222222222222222222222222222222222222
222222222222222222222222222222222222222222222222222222222222222222222222
222222222222222222222222222222222222222222222222222222222222222222222222
222222222222222222222222222222222222222222222222222222222222222222222222
222222222222222222222222222222222222222222222222222222222222222222222222
222222222222222222222222222222222222222222222222222222222222222222222222
222222222222222222222222222222222222222222222222222222222222222222222222
222222222222222222222222222222222222222222222222222222222222222222222222
222222222222222222222222222222222222222222222222222222222222222222222222
222222222222222222222222222222222222222222222222222222222222222222222222
222222222222222222222222222222222222222222222222222222222222222222222222
222222222222222222222222222222222222222222222222222222222222222222222222
222222222222222222222222222222222222222222222222222222222222222222222222
222222222222222222222222222222222222222222222222222222222222222222222222
222222222222222222222222222222222222222222222222222222222222222222222222
222222222222222222222222222222222222222222222222222222222222222222222222
222222222222222222222222222222222222222222222222222222222222222222222222
222222222222222222222222222222222222222222222222222222222222222222222222
222222222222222222222222222222222222222222222222222222222222222222222222
222222222222222222222222222222222222222222222222222222222222222222222222
22222222
# atoms in fragment 1/2:   272  3264
 fragment masses (1/2) :     1264.41    15172.94
CMA distance (Bohr)    :  28.430
constraining FC (au)   :  0.0500

           -------------------------------------------------
          |                 G F N 2 - x T B                 |
           -------------------------------------------------

        Reference                      10.1021/acs.jctc.8b01176
      * Hamiltonian:
        H0-scaling (s, p, d)           1.850000    2.230000    2.230000
        zeta-weighting                 0.500000
      * Dispersion:
        s8                             2.700000
        a1                             0.520000
        a2                             5.000000
        s9                             5.000000
      * Repulsion:
        kExp                           1.500000    1.000000
        rExp                           1.000000
      * Coulomb:
        alpha                          2.000000
        third order                    shell-resolved
        anisotropic                    true
        a3                             3.000000
        a5                             4.000000
        cn-shift                       1.200000
        cn-exp                         4.000000
        max-rad                        5.000000

      * Solvation model:               GBSA
        Solvent                        water
        Parameter file                 internal GFN2-xTB/GBSA
        Dielectric constant                8.0200E+01
        Reference state                gsolv [1 M gas/solution]
        Free energy shift                  1.8574E-03 Eh       1.1656E+00 kcal/mol
        Temperature                        2.9815E+02 K
        Density                            1.0000E+00 kg/L
        Solvent mass                       1.8000E+01 g/mol
        Interaction kernel             Still
        Born radius scaling (c1)           1.5524E+00
        Born radii integrator          GBOBC
        Born offset                        2.4628E-02 a0       4.6540E-02 AA
        H-bond correction              true
        Ion screening                  false
        Surface tension                    1.0000E-05 Eh       1.5569E+01 dyn/cm
        Grid points                               230 per atom
q/qsh data taken from xtbrestart
CAMM data taken from xtbrestart

          ...................................................
          :                      SETUP                      :
          :.................................................:
          :  # basis functions                7046          :
          :  # atomic orbitals                7046          :
          :  # shells                         4706          :
          :  # electrons                      7046          :
          :  max. iterations                   250          :
          :  Hamiltonian                  GFN2-xTB          :
          :  restarted?                       true          :
          :  GBSA solvation                   true          :
          :  PC potential                    false          :
          :  electronic temp.          300.0000000     K    :
          :  accuracy                    1.0000000          :
          :  -> integral cutoff          0.2500000E+02      :
          :  -> integral neglect         0.1000000E-07      :
          :  -> SCF convergence          0.1000000E-05 Eh   :
          :  -> wf. convergence          0.1000000E-03 e    :
          :  Broyden damping             0.4000000          :
          ...................................................

 iter      E             dE          RMSdq      gap      omega  full diag
   1  -3764.2147651 -0.376421E+04  0.352E-05   10.35       0.0  T
   2  -3764.2147651 -0.735326E-09  0.261E-05   10.35      64.4  T
   3  -3764.2147651 -0.853561E-09  0.128E-05   10.35     131.2  T

   *** convergence criteria satisfied after 3 iterations ***

         #    Occupation            Energy/Eh            Energy/eV
      -------------------------------------------------------------
         1        2.0000           -0.6180793             -16.8188
       ...           ...                  ...                  ...
      3517        2.0000           -0.3757555             -10.2248
      3518        2.0000           -0.3756059             -10.2208
      3519        2.0000           -0.3749158             -10.2020
      3520        2.0000           -0.3744430             -10.1891
      3521        2.0000           -0.3735520             -10.1649
      3522        2.0000           -0.3735029             -10.1635
      3523        2.0000           -0.3726009             -10.1390 (HOMO)
      3524                          0.0076895               0.2092 (LUMO)
      3525                          0.0166521               0.4531
      3526                          0.0167061               0.4546
      3527                          0.0171595               0.4669
      3528                          0.0172783               0.4702
       ...                                ...                  ...
      7046                          0.3683924              10.0245
      -------------------------------------------------------------
                  HL-Gap            0.3802904 Eh           10.3482 eV
             Fermi-level           -0.1824557 Eh           -4.9649 eV

 SCC (total)                   0 d,  0 h,  8 min, 32.411 sec
 SCC setup                      ...        0 min,  2.033 sec (  0.397%)
 Dispersion                     ...        0 min,  4.238 sec (  0.827%)
 classical contributions        ...        0 min,  0.195 sec (  0.038%)
 integral evaluation            ...        0 min,  7.058 sec (  1.377%)
 iterations                     ...        3 min, 47.530 sec ( 44.404%)
 molecular gradient             ...        4 min, 20.663 sec ( 50.870%)
 printout                       ...        0 min, 10.694 sec (  2.087%)

         :::::::::::::::::::::::::::::::::::::::::::::::::::::
         ::                     SUMMARY                     ::
         :::::::::::::::::::::::::::::::::::::::::::::::::::::
         :: total energy           -3715.346622999031 Eh    ::
         :: total w/o Gsasa/hb     -3715.239554646880 Eh    ::
         :: gradient norm              0.665073024340 Eh/a0 ::
         :: HOMO-LUMO gap             10.348228001707 eV    ::
         ::.................................................::
         :: SCC energy             -3764.214765117171 Eh    ::
         :: -> isotropic ES            0.438375734042 Eh    ::
         :: -> anisotropic ES          1.497617497825 Eh    ::
         :: -> anisotropic XC          2.302369023326 Eh    ::
         :: -> dispersion             -4.703504532583 Eh    ::
         :: -> Gsolv                  -0.043619427828 Eh    ::
         ::    -> Gelec                0.063448924324 Eh    ::
         ::    -> Gsasa               -0.102797127614 Eh    ::
         ::    -> Ghb                 -0.006128667665 Eh    ::
         ::    -> Gshift               0.001857443127 Eh    ::
         :: repulsion energy          48.134501694863 Eh    ::
         :: add. restraining           0.000000000000 Eh    ::
         :: total charge              -0.000000000012 e     ::
         :::::::::::::::::::::::::::::::::::::::::::::::::::::

      ----------------------------------------------------------- 
     |              Fast Inertial Relaxation Engine              |
      ----------------------------------------------------------- 

          ...................................................
          :                      SETUP                      :
          :.................................................:
          :   energy convergence        0.5000000E-05 Eh    :
          :   grad. convergence         0.1000000E-02 Eh/a0 :
          :   optimization log               true           :
          :   writing optlog all                1     steps :
          :   Hessian reset                    20     steps :
          :   time step scaling                 5     steps :
          :   maximium step len.        1.0000000     a0    :
          :   initial time step         0.2500000     fs    :
          :   maximum time step         1.2500000     fs    :
          :   power reset thr           0.0000000     au    :
          :   alpha parameter           0.1000000           :
          :   BFGS update                   false           :
          :   preconditioning               false           :
          ...................................................

........................................................................
.............................. CYCLE    1 ..............................
........................................................................

 iter      E             dE          RMSdq      gap      omega  full diag
   1  -3764.4774958 -0.376448E+04  0.761E-03   10.36       0.0  T
   2  -3764.4775397 -0.439372E-04  0.413E-03   10.36       1.0  T
   3  -3764.4775404 -0.689548E-06  0.180E-03   10.36       1.0  T
   4  -3764.4775409 -0.539563E-06  0.448E-04   10.36       3.8  T
   5  -3764.4775412 -0.281905E-06  0.176E-04   10.36       9.5  T
     SCC iter.                  ...        6 min, 12.198 sec
     gradient                   ...        4 min, 19.790 sec
 * total energy  : -3715.3970453 Eh     change    :  -0.5042226E-01 Eh
   gradient norm :     0.6324995 Eh/a0  converged?    E=F G=F D=F
   time step     :     0.2500000 fs     power     :   0.2609528E-05
   step length   :     0.0779451 a0     speed     :   0.7541611E-02

........................................................................
.............................. CYCLE    2 ..............................
........................................................................

 iter      E             dE          RMSdq      gap      omega  full diag
   1  -3764.8648754 -0.376486E+04  0.112E-02   10.37       0.0  T
   2  -3764.8649697 -0.942746E-04  0.606E-03   10.37       1.0  T
   3  -3764.8649712 -0.153160E-05  0.263E-03   10.37       1.0  T
   4  -3764.8649724 -0.116929E-05  0.664E-04   10.36       2.5  T
   5  -3764.8649730 -0.613099E-06  0.273E-04   10.36       6.2  T
   6  -3764.8649731 -0.460864E-07  0.126E-04   10.36      13.4  T
     SCC iter.                  ...        7 min, 22.831 sec
     gradient                   ...        4 min, 20.604 sec
 * total energy  : -3715.4669738 Eh     change    :  -0.6992859E-01 Eh
   gradient norm :     0.5863924 Eh/a0  converged?    E=F G=F D=F
   time step     :     0.2500000 fs     power     :   0.3567078E-05
   step length   :     0.1149333 a0     speed     :   0.1112041E-01

........................................................................
.............................. CYCLE    3 ..............................
........................................................................

 iter      E             dE          RMSdq      gap      omega  full diag
   1  -3765.3670353 -0.376537E+04  0.144E-02   10.38       0.0  T
   2  -3765.3671895 -0.154104E-03  0.781E-03   10.38       1.0  T
   3  -3765.3671920 -0.253442E-05  0.335E-03   10.38       1.0  T
   4  -3765.3671939 -0.189655E-05  0.852E-04   10.37       2.0  T
   5  -3765.3671949 -0.100787E-05  0.354E-04   10.37       4.8  T
   6  -3765.3671950 -0.749510E-07  0.159E-04   10.37      10.6  T
   7  -3765.3671950 -0.369537E-07  0.103E-04   10.37      16.3  T
     SCC iter.                  ...        8 min, 46.361 sec
     gradient                   ...        4 min, 20.560 sec
 * total energy  : -3715.5498478 Eh     change    :  -0.8287396E-01 Eh
   gradient norm :     0.5283190 Eh/a0  converged?    E=F G=F D=F
   time step     :     0.2500000 fs     power     :   0.4156855E-05
   step length   :     0.1492049 a0     speed     :   0.1443637E-01

........................................................................
.............................. CYCLE    4 ..............................
........................................................................

 iter      E             dE          RMSdq      gap      omega  full diag
   1  -3765.9712674 -0.376597E+04  0.172E-02   10.39       0.0  T
   2  -3765.9714817 -0.214292E-03  0.932E-03   10.38       1.0  T
   3  -3765.9714853 -0.356748E-05  0.395E-03   10.38       1.0  T
   4  -3765.9714878 -0.253756E-05  0.996E-04   10.38       1.7  T
   5  -3765.9714892 -0.136939E-05  0.416E-04   10.38       4.0  T
   6  -3765.9714893 -0.886157E-07  0.176E-04   10.38       9.6  T
   7  -3765.9714893 -0.425639E-07  0.113E-04   10.38      14.9  T
     SCC iter.                  ...        8 min, 37.478 sec
     gradient                   ...        4 min, 20.145 sec
 * total energy  : -3715.6381461 Eh     change    :  -0.8829828E-01 Eh
   gradient norm :     0.4620724 Eh/a0  converged?    E=F G=F D=F
   time step     :     0.2500000 fs     power     :   0.4340715E-05
   step length   :     0.1799416 a0     speed     :   0.1741032E-01

........................................................................
.............................. CYCLE    5 ..............................
........................................................................

 iter      E             dE          RMSdq      gap      omega  full diag
   1  -3766.6621305 -0.376666E+04  0.195E-02   10.40       0.0  T
   2  -3766.6623953 -0.264793E-03  0.105E-02   10.39       1.0  T
   3  -3766.6624000 -0.466229E-05  0.438E-03   10.39       1.0  T
   4  -3766.6624030 -0.303821E-05  0.110E-03   10.39       1.5  T
   5  -3766.6624046 -0.164307E-05  0.479E-04   10.39       3.5  T
   6  -3766.6624048 -0.111429E-06  0.193E-04   10.39       8.7  T
   7  -3766.6624048 -0.504911E-07  0.125E-04   10.39      13.4  T
     SCC iter.                  ...        8 min, 36.081 sec
     gradient                   ...        4 min, 20.447 sec
 * total energy  : -3715.7243465 Eh     change    :  -0.8620040E-01 Eh
   gradient norm :     0.3928701 Eh/a0  converged?    E=F G=F D=F
   time step     :     0.2500000 fs     power     :   0.4132136E-05
   step length   :     0.2064384 a0     speed     :   0.1997402E-01

........................................................................
.............................. CYCLE    6 ..............................
........................................................................

 iter      E             dE          RMSdq      gap      omega  full diag
   1  -3767.5047135 -0.376750E+04  0.236E-02   10.41       0.0  T
   2  -3767.5050766 -0.363052E-03  0.127E-02   10.40       1.0  T
   3  -3767.5050837 -0.707940E-05  0.511E-03   10.40       1.0  T
   4  -3767.5050876 -0.394970E-05  0.127E-03   10.40       1.3  T
   5  -3767.5050897 -0.209923E-05  0.587E-04   10.40       2.9  T
   6  -3767.5050899 -0.154533E-06  0.220E-04   10.40       7.6  T
   7  -3767.5050899 -0.638711E-07  0.145E-04   10.40      11.6  T
     SCC iter.                  ...        8 min, 33.330 sec
     gradient                   ...        4 min, 19.844 sec
 * total energy  : -3715.8094422 Eh     change    :  -0.8509570E-01 Eh
   gradient norm :     0.3218905 Eh/a0  converged?    E=F G=F D=F
   time step     :     0.2750000 fs     power     :   0.3525775E-05
   step length   :     0.2533074 a0     speed     :   0.2228077E-01

........................................................................
.............................. CYCLE    7 ..............................
........................................................................

 iter      E             dE          RMSdq      gap      omega  full diag
   1  -3768.4951444 -0.376850E+04  0.274E-02   10.41       0.0  T
   2  -3768.4955893 -0.444908E-03  0.147E-02   10.41       1.0  T
   3  -3768.4955998 -0.104585E-04  0.566E-03   10.41       1.0  T
   4  -3768.4956042 -0.445079E-05  0.137E-03   10.41       1.2  T
   5  -3768.4956064 -0.215793E-05  0.696E-04   10.41       2.4  T
   6  -3768.4956066 -0.199967E-06  0.234E-04   10.40       7.2  T
   7  -3768.4956067 -0.707287E-07  0.160E-04   10.40      10.5  T
     SCC iter.                  ...        8 min, 34.572 sec
     gradient                   ...        4 min, 21.961 sec
 * total energy  : -3715.8840376 Eh     change    :  -0.7459539E-01 Eh
   gradient norm :     0.2652146 Eh/a0  converged?    E=F G=F D=F
   time step     :     0.3025000 fs     power     :   0.2576833E-05
   step length   :     0.3015182 a0     speed     :   0.2411033E-01

........................................................................
.............................. CYCLE    8 ..............................
........................................................................

 iter      E             dE          RMSdq      gap      omega  full diag
   1  -3769.5987999 -0.376960E+04  0.306E-02   10.42       0.0  T
   2  -3769.5992620 -0.462048E-03  0.163E-02   10.42       1.0  T
   3  -3769.5992769 -0.148906E-04  0.580E-03   10.42       1.0  T
   4  -3769.5992810 -0.409789E-05  0.134E-03   10.41       1.3  T
   5  -3769.5992823 -0.136502E-05  0.770E-04   10.41       2.2  T
   6  -3769.5992826 -0.237463E-06  0.224E-04   10.41       7.5  T
   7  -3769.5992826 -0.626887E-07  0.161E-04   10.41      10.5  T
     SCC iter.                  ...        8 min, 48.205 sec
     gradient                   ...        4 min, 21.737 sec
 * total energy  : -3715.9399744 Eh     change    :  -0.5593687E-01 Eh
   gradient norm :     0.2426552 Eh/a0  converged?    E=F G=F D=F
   time step     :     0.3327500 fs     power     :   0.1489689E-05
   step length   :     0.3456762 a0     speed     :   0.2512849E-01

........................................................................
.............................. CYCLE    9 ..............................
........................................................................

 iter      E             dE          RMSdq      gap      omega  full diag
   1  -3770.7331566 -0.377073E+04  0.325E-02   10.43       0.0  T
   2  -3770.7335365 -0.379883E-03  0.175E-02   10.42       1.0  T
   3  -3770.7335553 -0.188198E-04  0.539E-03   10.42       1.0  T
   4  -3770.7335587 -0.340350E-05  0.130E-03   10.42       1.3  T
   5  -3770.7335593 -0.509437E-06  0.755E-04   10.42       2.2  T
   6  -3770.7335595 -0.225373E-06  0.179E-04   10.42       9.4  T
     SCC iter.                  ...        7 min, 23.534 sec
     gradient                   ...        4 min, 21.513 sec
 * total energy  : -3715.9746344 Eh     change    :  -0.3465997E-01 Eh
   gradient norm :     0.2505510 Eh/a0  converged?    E=F G=F D=F
   time step     :     0.3660250 fs     power     :   0.5661752E-06
   step length   :     0.3781964 a0     speed     :   0.2499319E-01

........................................................................
.............................. CYCLE   10 ..............................
........................................................................

 iter      E             dE          RMSdq      gap      omega  full diag
   1  -3771.7850119 -0.377179E+04  0.333E-02   10.43       0.0  T
   2  -3771.7852566 -0.244638E-03  0.185E-02   10.43       1.0  T
   3  -3771.7852726 -0.160710E-04  0.474E-03   10.43       1.0  T
   4  -3771.7852809 -0.829709E-05  0.146E-03   10.43       1.2  T
   5  -3771.7852820 -0.109964E-05  0.824E-04   10.43       2.0  T
   6  -3771.7852822 -0.158029E-06  0.155E-04   10.43      10.9  T
   7  -3771.7852822 -0.274663E-07  0.118E-04   10.43      14.2  T
     SCC iter.                  ...        8 min, 39.497 sec
     gradient                   ...        4 min, 22.958 sec
 * total energy  : -3715.9916542 Eh     change    :  -0.1701981E-01 Eh
   gradient norm :     0.2600935 Eh/a0  converged?    E=F G=F D=F
   time step     :     0.4026275 fs     power     :  -0.3994935E-07
   step length   :     0.3964610 a0     speed     :   0.2381838E-01

........................................................................
.............................. CYCLE   11 ..............................
........................................................................
 * reset velocities

 iter      E             dE          RMSdq      gap      omega  full diag
   1  -3771.7664449 -0.377177E+04  0.105E-03   10.43       0.0  T
   2  -3771.7664458 -0.842665E-06  0.642E-04   10.43       2.6  T
   3  -3771.7664458 -0.119280E-07  0.271E-04   10.43       6.2  T
     SCC iter.                  ...        3 min, 41.885 sec
     gradient                   ...        4 min, 20.037 sec
 * total energy  : -3715.9941935 Eh     change    :  -0.2539262E-02 Eh
   gradient norm :     0.2538657 Eh/a0  converged?    E=F G=F D=F
   time step     :     0.2013138 fs     power     :   0.1653689E-06
   step length   :     0.0098829 a0     speed     :   0.1187484E-02

........................................................................
.............................. CYCLE   12 ..............................
........................................................................

 iter      E             dE          RMSdq      gap      omega  full diag
   1  -3771.7292529 -0.377173E+04  0.210E-03   10.43       0.0  T
   2  -3771.7292561 -0.316146E-05  0.129E-03   10.43       1.3  T
   3  -3771.7292561 -0.278142E-07  0.522E-04   10.43       3.2  T
   4  -3771.7292562 -0.827126E-07  0.137E-04   10.43      12.3  T
     SCC iter.                  ...        4 min, 58.683 sec
     gradient                   ...        4 min, 19.124 sec
 * total energy  : -3715.9990323 Eh     change    :  -0.4838828E-02 Eh
   gradient norm :     0.2417511 Eh/a0  converged?    E=F G=F D=F
   time step     :     0.2013138 fs     power     :   0.3111119E-06
   step length   :     0.0195290 a0     speed     :   0.2346510E-02

........................................................................
.............................. CYCLE   13 ..............................
........................................................................

 iter      E             dE          RMSdq      gap      omega  full diag
   1  -3771.6746543 -0.377167E+04  0.302E-03   10.43       0.0  T
   2  -3771.6746614 -0.711698E-05  0.186E-03   10.43       1.0  T
   3  -3771.6746615 -0.102597E-06  0.786E-04   10.43       2.1  T
   4  -3771.6746617 -0.186283E-06  0.209E-04   10.43       8.1  T
     SCC iter.                  ...        4 min, 54.935 sec
     gradient                   ...        4 min, 19.016 sec
 * total energy  : -3716.0057189 Eh     change    :  -0.6686633E-02 Eh
   gradient norm :     0.2242114 Eh/a0  converged?    E=F G=F D=F
   time step     :     0.2013138 fs     power     :   0.4239188E-06
   step length   :     0.0287132 a0     speed     :   0.3450035E-02

........................................................................
.............................. CYCLE   14 ..............................
........................................................................

 iter      E             dE          RMSdq      gap      omega  full diag
   1  -3771.6040830 -0.377160E+04  0.390E-03   10.43       0.0  T
   2  -3771.6040949 -0.119005E-04  0.240E-03   10.43       1.0  T
   3  -3771.6040951 -0.177062E-06  0.102E-03   10.43       1.7  T
   4  -3771.6040954 -0.310181E-06  0.271E-04   10.43       6.2  T
   5  -3771.6040955 -0.915265E-07  0.648E-05   10.43      25.9  T
     SCC iter.                  ...        6 min, 17.062 sec
     gradient                   ...        4 min, 21.107 sec
 * total energy  : -3716.0136393 Eh     change    :  -0.7920306E-02 Eh
   gradient norm :     0.2020104 Eh/a0  converged?    E=F G=F D=F
   time step     :     0.2013138 fs     power     :   0.4941487E-06
   step length   :     0.0372247 a0     speed     :   0.4472737E-02

........................................................................
.............................. CYCLE   15 ..............................
........................................................................

 iter      E             dE          RMSdq      gap      omega  full diag
   1  -3771.5194784 -0.377152E+04  0.467E-03   10.43       0.0  T
   2  -3771.5194955 -0.171759E-04  0.288E-03   10.43       1.0  T
   3  -3771.5194958 -0.260571E-06  0.122E-03   10.43       1.4  T
   4  -3771.5194962 -0.432573E-06  0.324E-04   10.43       5.2  T
   5  -3771.5194964 -0.130790E-06  0.772E-05   10.43      21.8  T
     SCC iter.                  ...        6 min, 11.681 sec
     gradient                   ...        4 min, 21.791 sec
 * total energy  : -3716.0220854 Eh     change    :  -0.8446149E-02 Eh
   gradient norm :     0.1761920 Eh/a0  converged?    E=F G=F D=F
   time step     :     0.2013138 fs     power     :   0.5168369E-06
   step length   :     0.0448747 a0     speed     :   0.5391912E-02

........................................................................
.............................. CYCLE   16 ..............................
........................................................................

 iter      E             dE          RMSdq      gap      omega  full diag
   1  -3771.4233429 -0.377142E+04  0.530E-03   10.43       0.0  T
   2  -3771.4233652 -0.222751E-04  0.327E-03   10.43       1.0  T
   3  -3771.4233655 -0.342722E-06  0.139E-03   10.43       1.2  T
   4  -3771.4233661 -0.549857E-06  0.369E-04   10.43       4.6  T
   5  -3771.4233662 -0.168629E-06  0.879E-05   10.43      19.1  T
     SCC iter.                  ...        6 min,  8.096 sec
     gradient                   ...        4 min, 21.520 sec
 * total energy  : -3716.0303370 Eh     change    :  -0.8251601E-02 Eh
   gradient norm :     0.1483282 Eh/a0  converged?    E=F G=F D=F
   time step     :     0.2013138 fs     power     :   0.4926416E-06
   step length   :     0.0514969 a0     speed     :   0.6187605E-02

........................................................................
.............................. CYCLE   17 ..............................
........................................................................

 iter      E             dE          RMSdq      gap      omega  full diag
   1  -3771.3073736 -0.377131E+04  0.641E-03   10.43       0.0  T
   2  -3771.3074063 -0.327071E-04  0.396E-03   10.43       1.0  T
   3  -3771.3074068 -0.507005E-06  0.168E-03   10.43       1.0  T
   4  -3771.3074076 -0.787471E-06  0.447E-04   10.43       3.8  T
   5  -3771.3074079 -0.245260E-06  0.105E-04   10.43      16.0  T
     SCC iter.                  ...        6 min, 12.784 sec
     gradient                   ...        4 min, 20.899 sec
 * total energy  : -3716.0384611 Eh     change    :  -0.8124074E-02 Eh
   gradient norm :     0.1179913 Eh/a0  converged?    E=F G=F D=F
   time step     :     0.2214451 fs     power     :   0.4191247E-06
   step length   :     0.0632499 a0     speed     :   0.6908902E-02

........................................................................
.............................. CYCLE   18 ..............................
........................................................................

 iter      E             dE          RMSdq      gap      omega  full diag
   1  -3771.1737703 -0.377117E+04  0.745E-03   10.43       0.0  T
   2  -3771.1738145 -0.442121E-04  0.462E-03   10.43       1.0  T
   3  -3771.1738152 -0.685817E-06  0.195E-03   10.43       1.0  T
   4  -3771.1738162 -0.104124E-05  0.520E-04   10.43       3.2  T
   5  -3771.1738165 -0.329265E-06  0.121E-04   10.43      13.9  T
   6  -3771.1738166 -0.105406E-07  0.821E-05   10.43      20.5  T
     SCC iter.                  ...        7 min, 26.803 sec
     gradient                   ...        4 min, 19.605 sec
 * total energy  : -3716.0454744 Eh     change    :  -0.7013362E-02 Eh
   gradient norm :     0.0912932 Eh/a0  converged?    E=F G=F D=F
   time step     :     0.2435896 fs     power     :   0.2997695E-06
   step length   :     0.0754406 a0     speed     :   0.7491374E-02

........................................................................
.............................. CYCLE   19 ..............................
........................................................................

 iter      E             dE          RMSdq      gap      omega  full diag
   1  -3771.0309704 -0.377103E+04  0.816E-03   10.43       0.0  T
   2  -3771.0310229 -0.525003E-04  0.510E-03   10.43       1.0  T
   3  -3771.0310237 -0.774891E-06  0.212E-03   10.43       1.0  T
   4  -3771.0310249 -0.123091E-05  0.566E-04   10.43       3.0  T
   5  -3771.0310253 -0.387372E-06  0.125E-04   10.43      13.5  T
   6  -3771.0310253 -0.924592E-08  0.799E-05   10.43      21.1  T
     SCC iter.                  ...        7 min, 23.519 sec
     gradient                   ...        4 min, 20.124 sec
 * total energy  : -3716.0504639 Eh     change    :  -0.4989428E-02 Eh
   gradient norm :     0.0814338 Eh/a0  converged?    E=F G=F D=F
   time step     :     0.2679486 fs     power     :   0.1589706E-06
   step length   :     0.0866864 a0     speed     :   0.7825541E-02

........................................................................
.............................. CYCLE   20 ..............................
........................................................................

 iter      E             dE          RMSdq      gap      omega  full diag
   1  -3770.8972689 -0.377090E+04  0.819E-03   10.44       0.0  T
   2  -3770.8973190 -0.500531E-04  0.517E-03   10.44       1.0  T
   3  -3770.8973196 -0.626706E-06  0.206E-03   10.44       1.0  T
   4  -3770.8973209 -0.127083E-05  0.557E-04   10.44       3.0  T
   5  -3770.8973213 -0.371674E-06  0.125E-04   10.44      13.5  T
   6  -3770.8973213 -0.733780E-08  0.738E-05   10.44      22.8  T
     SCC iter.                  ...        7 min, 24.152 sec
     gradient                   ...        4 min, 20.539 sec
 * total energy  : -3716.0532385 Eh     change    :  -0.2774648E-02 Eh
   gradient norm :     0.0947290 Eh/a0  converged?    E=F G=F D=F
   time step     :     0.2947435 fs     power     :   0.4785144E-07
   step length   :     0.0943925 a0     speed     :   0.7746553E-02
 * RMSD in coord.:     0.0374283 a0     energy gain  -0.7066155E+00 Eh

........................................................................
.............................. CYCLE   21 ..............................
........................................................................

 iter      E             dE          RMSdq      gap      omega  full diag
   1  -3770.8160660 -0.377082E+04  0.582E-03   10.44       0.0  T
   2  -3770.8160877 -0.217115E-04  0.370E-03   10.44       1.0  T
   3  -3770.8160879 -0.133955E-06  0.135E-03   10.44       1.2  T
   4  -3770.8160886 -0.712105E-06  0.369E-04   10.44       4.6  T
   5  -3770.8160888 -0.164515E-06  0.904E-05   10.44      18.6  T
     SCC iter.                  ...        6 min,  7.502 sec
     gradient                   ...        4 min, 20.097 sec
 * total energy  : -3716.0545504 Eh     change    :  -0.1311845E-02 Eh
   gradient norm :     0.1111115 Eh/a0  converged?    E=F G=F D=F
   time step     :     0.2500000 fs     power     :   0.2792433E-07
   step length   :     0.0748883 a0     speed     :   0.7245841E-02

........................................................................
.............................. CYCLE   22 ..............................
........................................................................

 iter      E             dE          RMSdq      gap      omega  full diag
   1  -3770.7699163 -0.377077E+04  0.480E-03   10.45       0.0  T
   2  -3770.7699265 -0.101639E-04  0.306E-03   10.45       1.0  T
   3  -3770.7699264  0.111001E-06  0.877E-04   10.45       1.9  T
   4  -3770.7699269 -0.553749E-06  0.252E-04   10.45       6.7  T
     SCC iter.                  ...        4 min, 57.075 sec
     gradient                   ...        4 min, 20.764 sec
 * total energy  : -3716.0561393 Eh     change    :  -0.1588915E-02 Eh
   gradient norm :     0.1229982 Eh/a0  converged?    E=F G=F D=F
   time step     :     0.2500000 fs     power     :   0.6090834E-07
   step length   :     0.0696993 a0     speed     :   0.6743784E-02

........................................................................
.............................. CYCLE   23 ..............................
........................................................................

 iter      E             dE          RMSdq      gap      omega  full diag
   1  -3770.7581547 -0.377076E+04  0.419E-03   10.45       0.0  T
   2  -3770.7581578 -0.311809E-05  0.262E-03   10.45       1.0  T
   3  -3770.7581577  0.124700E-06  0.404E-04   10.45       4.2  T
   4  -3770.7581580 -0.339668E-06  0.150E-04   10.45      11.2  T
     SCC iter.                  ...        4 min, 59.146 sec
     gradient                   ...        4 min, 21.150 sec
 * total energy  : -3716.0586729 Eh     change    :  -0.2533663E-02 Eh
   gradient norm :     0.1278951 Eh/a0  converged?    E=F G=F D=F
   time step     :     0.2500000 fs     power     :   0.1215332E-06
   step length   :     0.0661367 a0     speed     :   0.6399082E-02

........................................................................
.............................. CYCLE   24 ..............................
........................................................................

 iter      E             dE          RMSdq      gap      omega  full diag
   1  -3770.7783743 -0.377078E+04  0.410E-03   10.46       0.0  T
   2  -3770.7783748 -0.498167E-06  0.247E-03   10.46       1.0  T
   3  -3770.7783749 -0.933501E-07  0.182E-04   10.46       9.2  T
   4  -3770.7783750 -0.463738E-07  0.102E-04   10.46      16.5  T
     SCC iter.                  ...        4 min, 55.724 sec
     gradient                   ...        4 min, 19.498 sec
 * total energy  : -3716.0623574 Eh     change    :  -0.3684445E-02 Eh
   gradient norm :     0.1257220 Eh/a0  converged?    E=F G=F D=F
   time step     :     0.2500000 fs     power     :   0.1859449E-06
   step length   :     0.0647818 a0     speed     :   0.6267983E-02

........................................................................
.............................. CYCLE   25 ..............................
........................................................................

 iter      E             dE          RMSdq      gap      omega  full diag
   1  -3770.8272335 -0.377083E+04  0.443E-03   10.47       0.0  T
   2  -3770.8272348 -0.129502E-05  0.258E-03   10.47       1.0  T
   3  -3770.8272348 -0.283903E-07  0.357E-04   10.47       4.7  T
   4  -3770.8272350 -0.147383E-06  0.116E-04   10.47      14.5  T
     SCC iter.                  ...        5 min,  3.795 sec
     gradient                   ...        4 min, 20.823 sec
 * total energy  : -3716.0670337 Eh     change    :  -0.4676332E-02 Eh
   gradient norm :     0.1174506 Eh/a0  converged?    E=F G=F D=F
   time step     :     0.2500000 fs     power     :   0.2365833E-06
   step length   :     0.0654633 a0     speed     :   0.6333924E-02

........................................................................
.............................. CYCLE   26 ..............................
........................................................................

 iter      E             dE          RMSdq      gap      omega  full diag
   1  -3770.9097816 -0.377091E+04  0.551E-03   10.47       0.0  T
   2  -3770.9097871 -0.549970E-05  0.314E-03   10.47       1.0  T
   3  -3770.9097870  0.115803E-06  0.755E-04   10.47       2.2  T
   4  -3770.9097875 -0.465605E-06  0.172E-04   10.47       9.8  T
     SCC iter.                  ...        4 min, 57.831 sec
     gradient                   ...        4 min, 20.725 sec
 * total energy  : -3716.0728796 Eh     change    :  -0.5845864E-02 Eh
   gradient norm :     0.1031856 Eh/a0  converged?    E=F G=F D=F
   time step     :     0.2750000 fs     power     :   0.2630731E-06
   step length   :     0.0748876 a0     speed     :   0.6587072E-02

........................................................................
.............................. CYCLE   27 ..............................
........................................................................

 iter      E             dE          RMSdq      gap      omega  full diag
   1  -3771.0275398 -0.377103E+04  0.680E-03   10.48       0.0  T
   2  -3771.0275528 -0.130683E-04  0.385E-03   10.48       1.0  T
   3  -3771.0275527  0.173860E-06  0.113E-03   10.48       1.5  T
   4  -3771.0275535 -0.789427E-06  0.247E-04   10.48       6.8  T
   5  -3771.0275536 -0.981495E-07  0.119E-04   10.48      14.2  T
     SCC iter.                  ...        6 min, 11.758 sec
     gradient                   ...        4 min, 19.928 sec
 * total energy  : -3716.0793718 Eh     change    :  -0.6492185E-02 Eh
   gradient norm :     0.0852765 Eh/a0  converged?    E=F G=F D=F
   time step     :     0.3025000 fs     power     :   0.2552705E-06
   step length   :     0.0870594 a0     speed     :   0.6961544E-02

........................................................................
.............................. CYCLE   28 ..............................
........................................................................

 iter      E             dE          RMSdq      gap      omega  full diag
   1  -3771.1781001 -0.377118E+04  0.807E-03   10.49       0.0  T
   2  -3771.1781224 -0.222743E-04  0.455E-03   10.49       1.0  T
   3  -3771.1781222  0.171451E-06  0.142E-03   10.49       1.2  T
   4  -3771.1781232 -0.103013E-05  0.315E-04   10.49       5.3  T
   5  -3771.1781234 -0.161432E-06  0.130E-04   10.49      12.9  T
   6  -3771.1781234 -0.173632E-07  0.797E-05   10.49      21.1  T
     SCC iter.                  ...        7 min, 23.879 sec
     gradient                   ...        4 min, 20.547 sec
 * total energy  : -3716.0857201 Eh     change    :  -0.6348304E-02 Eh
   gradient norm :     0.0702024 Eh/a0  converged?    E=F G=F D=F
   time step     :     0.3327500 fs     power     :   0.2136756E-06
   step length   :     0.1013106 a0     speed     :   0.7364646E-02

........................................................................
.............................. CYCLE   29 ..............................
........................................................................

 iter      E             dE          RMSdq      gap      omega  full diag
   1  -3771.3502709 -0.377135E+04  0.893E-03   10.50       0.0  T
   2  -3771.3502984 -0.274871E-04  0.501E-03   10.50       1.0  T
   3  -3771.3502983  0.145578E-06  0.153E-03   10.50       1.1  T
   4  -3771.3502993 -0.106653E-05  0.347E-04   10.50       4.9  T
   5  -3771.3502995 -0.194208E-06  0.130E-04   10.50      12.9  T
   6  -3771.3502996 -0.137188E-07  0.751E-05   10.50      22.4  T
     SCC iter.                  ...        7 min, 21.712 sec
     gradient                   ...        4 min, 20.099 sec
 * total energy  : -3716.0912507 Eh     change    :  -0.5530629E-02 Eh
   gradient norm :     0.0674538 Eh/a0  converged?    E=F G=F D=F
   time step     :     0.3660250 fs     power     :   0.1577596E-06
   step length   :     0.1161380 a0     speed     :   0.7675007E-02

........................................................................
.............................. CYCLE   30 ..............................
........................................................................

 iter      E             dE          RMSdq      gap      omega  full diag
   1  -3771.5203432 -0.377152E+04  0.899E-03   10.51       0.0  T
   2  -3771.5203655 -0.223000E-04  0.503E-03   10.51       1.0  T
   3  -3771.5203655  0.229602E-08  0.133E-03   10.51       1.3  T
   4  -3771.5203662 -0.722736E-06  0.304E-04   10.51       5.5  T
   5  -3771.5203664 -0.142142E-06  0.125E-04   10.51      13.5  T
     SCC iter.                  ...        6 min, 17.077 sec
     gradient                   ...        4 min, 19.674 sec
 * total energy  : -3716.0960271 Eh     change    :  -0.4776423E-02 Eh
   gradient norm :     0.0755470 Eh/a0  converged?    E=F G=F D=F
   time step     :     0.4026275 fs     power     :   0.1218866E-06
   step length   :     0.1293549 a0     speed     :   0.7771317E-02

........................................................................
.............................. CYCLE   31 ..............................
........................................................................

 iter      E             dE          RMSdq      gap      omega  full diag
   1  -3771.6609889 -0.377166E+04  0.838E-03   10.52       0.0  T
   2  -3771.6609991 -0.101987E-04  0.472E-03   10.51       1.0  T
   3  -3771.6609994 -0.282037E-06  0.855E-04   10.51       2.0  T
   4  -3771.6609996 -0.213744E-06  0.196E-04   10.51       8.6  T
     SCC iter.                  ...        4 min, 57.319 sec
     gradient                   ...        4 min, 20.753 sec
 * total energy  : -3716.1009502 Eh     change    :  -0.4923038E-02 Eh
   gradient norm :     0.0816428 Eh/a0  converged?    E=F G=F D=F
   time step     :     0.4428903 fs     power     :   0.1224720E-06
   step length   :     0.1414346 a0     speed     :   0.7724577E-02

........................................................................
.............................. CYCLE   32 ..............................
........................................................................

 iter      E             dE          RMSdq      gap      omega  full diag
   1  -3771.7494373 -0.377175E+04  0.774E-03   10.52       0.0  T
   2  -3771.7494400 -0.272633E-05  0.453E-03   10.52       1.0  T
   3  -3771.7494399  0.145638E-06  0.624E-04   10.52       2.7  T
   4  -3771.7494406 -0.700709E-06  0.187E-04   10.52       9.0  T
     SCC iter.                  ...        4 min, 56.028 sec
     gradient                   ...        4 min, 20.485 sec
 * total energy  : -3716.1069136 Eh     change    :  -0.5963410E-02 Eh
   gradient norm :     0.0775162 Eh/a0  converged?    E=F G=F D=F
   time step     :     0.4871793 fs     power     :   0.1408890E-06
   step length   :     0.1556040 a0     speed     :   0.7725862E-02

........................................................................
.............................. CYCLE   33 ..............................
........................................................................

 iter      E             dE          RMSdq      gap      omega  full diag
   1  -3771.7711500 -0.377177E+04  0.773E-03   10.53       0.0  T
   2  -3771.7711605 -0.104954E-04  0.484E-03   10.53       1.0  T
   3  -3771.7711591  0.141498E-05  0.114E-03   10.53       1.5  T
   4  -3771.7711617 -0.262842E-05  0.228E-04   10.53       7.4  T
   5  -3771.7711618 -0.366804E-07  0.129E-04   10.53      13.0  T
   6  -3771.7711618 -0.973705E-08  0.575E-05   10.53      29.2  T
     SCC iter.                  ...        7 min, 27.094 sec
     gradient                   ...        4 min, 20.371 sec
 * total energy  : -3716.1137850 Eh     change    :  -0.6871387E-02 Eh
   gradient norm :     0.0647805 Eh/a0  converged?    E=F G=F D=F
   time step     :     0.5358972 fs     power     :   0.1418270E-06
   step length   :     0.1742091 a0     speed     :   0.7863292E-02

........................................................................
.............................. CYCLE   34 ..............................
........................................................................

 iter      E             dE          RMSdq      gap      omega  full diag
   1  -3771.7291020 -0.377173E+04  0.832E-03   10.53       0.0  T
   2  -3771.7291320 -0.300139E-04  0.542E-03   10.54       1.0  T
   3  -3771.7291314  0.616959E-06  0.167E-03   10.54       1.0  T
   4  -3771.7291338 -0.238127E-05  0.402E-04   10.54       4.2  T
   5  -3771.7291340 -0.221258E-06  0.160E-04   10.54      10.5  T
   6  -3771.7291340 -0.188543E-07  0.855E-05   10.54      19.7  T
     SCC iter.                  ...        7 min, 22.231 sec
     gradient                   ...        4 min, 21.000 sec
 * total energy  : -3716.1203731 Eh     change    :  -0.6588159E-02 Eh
   gradient norm :     0.0576221 Eh/a0  converged?    E=F G=F D=F
   time step     :     0.5894869 fs     power     :   0.1112489E-06
   step length   :     0.1964972 a0     speed     :   0.8063010E-02

........................................................................
.............................. CYCLE   35 ..............................
........................................................................

 iter      E             dE          RMSdq      gap      omega  full diag
   1  -3771.6617559 -0.377166E+04  0.887E-03   10.55       0.0  T
   2  -3771.6617905 -0.346260E-04  0.569E-03   10.55       1.0  T
   3  -3771.6617904  0.106657E-06  0.160E-03   10.55       1.1  T
   4  -3771.6617920 -0.160781E-05  0.497E-04   10.55       3.4  T
   5  -3771.6617923 -0.304498E-06  0.178E-04   10.55       9.4  T
   6  -3771.6617924 -0.184746E-07  0.809E-05   10.55      20.8  T
     SCC iter.                  ...        7 min, 25.181 sec
     gradient                   ...        4 min, 19.828 sec
 * total energy  : -3716.1261280 Eh     change    :  -0.5754888E-02 Eh
   gradient norm :     0.0634750 Eh/a0  converged?    E=F G=F D=F
   time step     :     0.6484356 fs     power     :   0.8431582E-07
   step length   :     0.2183040 a0     speed     :   0.8143478E-02

........................................................................
.............................. CYCLE   36 ..............................
........................................................................

 iter      E             dE          RMSdq      gap      omega  full diag
   1  -3771.6306129 -0.377163E+04  0.992E-03   10.57       0.0  T
   2  -3771.6306283 -0.154099E-04  0.596E-03   10.57       1.0  T
   3  -3771.6306291 -0.796772E-06  0.896E-04   10.57       1.9  T
   4  -3771.6306295 -0.444719E-06  0.322E-04   10.57       5.2  T
     SCC iter.                  ...        5 min,  1.253 sec
     gradient                   ...        4 min, 20.028 sec
 * total energy  : -3716.1321696 Eh     change    :  -0.6041612E-02 Eh
   gradient norm :     0.0632881 Eh/a0  converged?    E=F G=F D=F
   time step     :     0.7132792 fs     power     :   0.8666486E-07
   step length   :     0.2390884 a0     speed     :   0.8108004E-02

........................................................................
.............................. CYCLE   37 ..............................
........................................................................

 iter      E             dE          RMSdq      gap      omega  full diag
   1  -3771.6812860 -0.377168E+04  0.120E-02   10.59       0.0  T
   2  -3771.6812940 -0.806053E-05  0.695E-03   10.59       1.0  T
   3  -3771.6812939  0.162420E-06  0.122E-03   10.59       1.4  T
   4  -3771.6812959 -0.202717E-05  0.347E-04   10.59       4.9  T
   5  -3771.6812959 -0.153495E-07  0.124E-04   10.59      13.6  T
   6  -3771.6812959 -0.610362E-08  0.316E-05   10.59      53.2  T
     SCC iter.                  ...        7 min, 27.026 sec
     gradient                   ...        4 min, 19.897 sec
 * total energy  : -3716.1387661 Eh     change    :  -0.6596517E-02 Eh
   gradient norm :     0.0518081 Eh/a0  converged?    E=F G=F D=F
   time step     :     0.7846071 fs     power     :   0.7986971E-07
   step length   :     0.2642026 a0     speed     :   0.8145165E-02

........................................................................
.............................. CYCLE   38 ..............................
........................................................................

 iter      E             dE          RMSdq      gap      omega  full diag
   1  -3771.8118986 -0.377181E+04  0.132E-02   10.62       0.0  T
   2  -3771.8119214 -0.228067E-04  0.765E-03   10.62       1.0  T
   3  -3771.8119203  0.109373E-05  0.167E-03   10.62       1.0  T
   4  -3771.8119236 -0.327688E-05  0.357E-04   10.62       4.7  T
   5  -3771.8119237 -0.106971E-06  0.176E-04   10.62       9.6  T
   6  -3771.8119237 -0.803175E-08  0.563E-05   10.62      29.9  T
     SCC iter.                  ...        7 min, 26.388 sec
     gradient                   ...        4 min, 22.563 sec
 * total energy  : -3716.1442448 Eh     change    :  -0.5478683E-02 Eh
   gradient norm :     0.0533754 Eh/a0  converged?    E=F G=F D=F
   time step     :     0.8630678 fs     power     :   0.4629577E-07
   step length   :     0.2920788 a0     speed     :   0.8185972E-02

........................................................................
.............................. CYCLE   39 ..............................
........................................................................

 iter      E             dE          RMSdq      gap      omega  full diag
   1  -3771.9460880 -0.377195E+04  0.119E-02   10.65       0.0  T
   2  -3771.9461018 -0.138684E-04  0.688E-03   10.65       1.0  T
   3  -3771.9461023 -0.425885E-06  0.998E-04   10.65       1.7  T
   4  -3771.9461030 -0.718023E-06  0.270E-04   10.65       6.2  T
     SCC iter.                  ...        5 min,  0.513 sec
     gradient                   ...        4 min, 27.029 sec
 * total energy  : -3716.1492319 Eh     change    :  -0.4987127E-02 Eh
   gradient norm :     0.0578382 Eh/a0  converged?    E=F G=F D=F
   time step     :     0.9493746 fs     power     :   0.4245345E-07
   step length   :     0.3155554 a0     speed     :   0.8039946E-02

........................................................................
.............................. CYCLE   40 ..............................
........................................................................

 iter      E             dE          RMSdq      gap      omega  full diag
   1  -3772.0152555 -0.377202E+04  0.115E-02   10.67       0.0  T
   2  -3772.0152711 -0.156111E-04  0.687E-03   10.67       1.0  T
   3  -3772.0152691  0.194520E-05  0.158E-03   10.67       1.1  T
   4  -3772.0152737 -0.455786E-05  0.338E-04   10.67       5.0  T
   5  -3772.0152737 -0.407604E-07  0.185E-04   10.67       9.1  T
   6  -3772.0152737 -0.196287E-07  0.739E-05   10.67      22.8  T
     SCC iter.                  ...        7 min, 30.470 sec
     gradient                   ...        4 min, 22.563 sec
 * total energy  : -3716.1550618 Eh     change    :  -0.5829820E-02 Eh
   gradient norm :     0.0493229 Eh/a0  converged?    E=F G=F D=F
   time step     :     1.0443120 fs     power     :   0.4379408E-07
   step length   :     0.3433001 a0     speed     :   0.7951678E-02

........................................................................
.............................. CYCLE   41 ..............................
........................................................................

 iter      E             dE          RMSdq      gap      omega  full diag
   1  -3772.0376388 -0.377204E+04  0.125E-02   10.69       0.0  T
   2  -3772.0376689 -0.301161E-04  0.773E-03   10.69       1.0  T
   3  -3772.0376669  0.195364E-05  0.173E-03   10.69       1.0  T
   4  -3772.0376719 -0.496050E-05  0.432E-04   10.69       3.9  T
   5  -3772.0376721 -0.174295E-06  0.233E-04   10.69       7.2  T
   6  -3772.0376721 -0.397695E-07  0.109E-04   10.70      15.4  T
     SCC iter.                  ...        7 min, 19.559 sec
     gradient                   ...        4 min, 21.603 sec
 * total energy  : -3716.1600561 Eh     change    :  -0.4994304E-02 Eh
   gradient norm :     0.0498005 Eh/a0  converged?    E=F G=F D=F
   time step     :     1.1487432 fs     power     :   0.2202383E-07
   step length   :     0.3755139 a0     speed     :   0.7907116E-02

........................................................................
.............................. CYCLE   42 ..............................
........................................................................

 iter      E             dE          RMSdq      gap      omega  full diag
   1  -3772.1061306 -0.377211E+04  0.141E-02   10.73       0.0  T
   2  -3772.1061391 -0.848656E-05  0.823E-03   10.73       1.0  T
   3  -3772.1061394 -0.306070E-06  0.101E-03   10.73       1.7  T
   4  -3772.1061406 -0.118907E-05  0.325E-04   10.73       5.2  T
   5  -3772.1061407 -0.285390E-07  0.159E-04   10.73      10.6  T
   6  -3772.1061407 -0.125169E-07  0.525E-05   10.73      32.0  T
     SCC iter.                  ...        7 min, 27.582 sec
     gradient                   ...        4 min, 22.294 sec
 * total energy  : -3716.1641094 Eh     change    :  -0.4053308E-02 Eh
   gradient norm :     0.0467543 Eh/a0  converged?    E=F G=F D=F
   time step     :     1.2500000 fs     power     :   0.8902532E-08
   step length   :     0.3994567 a0     speed     :   0.7729916E-02
 * RMSD in coord.:     0.0597950 a0     energy gain  -0.1108709E+00 Eh

........................................................................
.............................. CYCLE   43 ..............................
........................................................................

 iter      E             dE          RMSdq      gap      omega  full diag
   1  -3772.1199675 -0.377212E+04  0.239E-03   10.74       0.0  T
   2  -3772.1199678 -0.272061E-06  0.138E-03   10.74       1.2  T
   3  -3772.1199678  0.139134E-07  0.205E-04   10.74       8.2  T
   4  -3772.1199679 -0.589275E-07  0.519E-05   10.74      32.4  T
     SCC iter.                  ...        5 min,  3.548 sec
     gradient                   ...        4 min, 24.467 sec
 * total energy  : -3716.1646822 Eh     change    :  -0.5728710E-03 Eh
   gradient norm :     0.0471173 Eh/a0  converged?    E=F G=F D=F
   time step     :     0.2500000 fs     power     :   0.2616749E-07
   step length   :     0.0731732 a0     speed     :   0.7079899E-02

........................................................................
.............................. CYCLE   44 ..............................
........................................................................

 iter      E             dE          RMSdq      gap      omega  full diag
   1  -3772.1329042 -0.377213E+04  0.228E-03   10.74       0.0  T
   2  -3772.1329047 -0.506379E-06  0.134E-03   10.74       1.3  T
   3  -3772.1329047  0.213113E-07  0.230E-04   10.74       7.3  T
   4  -3772.1329048 -0.666755E-07  0.490E-05   10.74      34.3  T
     SCC iter.                  ...        4 min, 51.168 sec
     gradient                   ...        4 min, 20.471 sec
 * total energy  : -3716.1655209 Eh     change    :  -0.8386380E-03 Eh
   gradient norm :     0.0437630 Eh/a0  converged?    E=F G=F D=F
   time step     :     0.2500000 fs     power     :   0.4026277E-07
   step length   :     0.0680322 a0     speed     :   0.6582483E-02

........................................................................
.............................. CYCLE   45 ..............................
........................................................................

 iter      E             dE          RMSdq      gap      omega  full diag
   1  -3772.1433680 -0.377214E+04  0.243E-03   10.75       0.0  T
   2  -3772.1433688 -0.796216E-06  0.146E-03   10.75       1.2  T
   3  -3772.1433688  0.799764E-08  0.253E-04   10.75       6.6  T
   4  -3772.1433688 -0.683790E-07  0.609E-05   10.75      27.6  T
     SCC iter.                  ...        5 min,  4.363 sec
     gradient                   ...        4 min, 23.458 sec
 * total energy  : -3716.1665055 Eh     change    :  -0.9846395E-03 Eh
   gradient norm :     0.0377468 Eh/a0  converged?    E=F G=F D=F
   time step     :     0.2500000 fs     power     :   0.4652509E-07
   step length   :     0.0642574 a0     speed     :   0.6217250E-02

........................................................................
.............................. CYCLE   46 ..............................
........................................................................

 iter      E             dE          RMSdq      gap      omega  full diag
   1  -3772.1497298 -0.377215E+04  0.267E-03   10.76       0.0  T
   2  -3772.1497307 -0.976124E-06  0.162E-03   10.76       1.0  T
   3  -3772.1497308 -0.116556E-07  0.264E-04   10.76       6.4  T
   4  -3772.1497308 -0.704690E-07  0.726E-05   10.76      23.2  T
     SCC iter.                  ...        4 min, 56.088 sec
     gradient                   ...        4 min, 20.993 sec
 * total energy  : -3716.1674772 Eh     change    :  -0.9717094E-03 Eh
   gradient norm :     0.0307278 Eh/a0  converged?    E=F G=F D=F
   time step     :     0.2500000 fs     power     :   0.4397216E-07
   step length   :     0.0614830 a0     speed     :   0.5948808E-02

........................................................................
.............................. CYCLE   47 ..............................
........................................................................

 iter      E             dE          RMSdq      gap      omega  full diag
   1  -3772.1503796 -0.377215E+04  0.286E-03   10.76       0.0  T
   2  -3772.1503806 -0.963466E-06  0.173E-03   10.76       1.0  T
   3  -3772.1503806 -0.266955E-07  0.263E-04   10.76       6.4  T
   4  -3772.1503807 -0.772770E-07  0.818E-05   10.76      20.6  T
     SCC iter.                  ...        4 min, 55.560 sec
     gradient                   ...        4 min, 22.618 sec
 * total energy  : -3716.1683006 Eh     change    :  -0.8233528E-03 Eh
   gradient norm :     0.0251756 Eh/a0  converged?    E=F G=F D=F
   time step     :     0.2500000 fs     power     :   0.3485590E-07
   step length   :     0.0592526 a0     speed     :   0.5733004E-02

........................................................................
.............................. CYCLE   48 ..............................
........................................................................

 iter      E             dE          RMSdq      gap      omega  full diag
   1  -3772.1434685 -0.377214E+04  0.319E-03   10.77       0.0  T
   2  -3772.1434694 -0.946784E-06  0.191E-03   10.77       1.0  T
   3  -3772.1434694 -0.267050E-07  0.290E-04   10.77       5.8  T
   4  -3772.1434696 -0.117565E-06  0.968E-05   10.77      17.4  T
     SCC iter.                  ...        4 min, 57.042 sec
     gradient                   ...        4 min, 21.488 sec
 * total energy  : -3716.1689632 Eh     change    :  -0.6626143E-03 Eh
   gradient norm :     0.0237139 Eh/a0  converged?    E=F G=F D=F
   time step     :     0.2750000 fs     power     :   0.2248044E-07
   step length   :     0.0627595 a0     speed     :   0.5520291E-02

........................................................................
.............................. CYCLE   49 ..............................
........................................................................

 iter      E             dE          RMSdq      gap      omega  full diag
   1  -3772.1283451 -0.377213E+04  0.327E-03   10.77       0.0  T
   2  -3772.1283459 -0.826017E-06  0.193E-03   10.77       1.0  T
   3  -3772.1283459  0.516138E-09  0.322E-04   10.77       5.2  T
   4  -3772.1283461 -0.169633E-06  0.103E-04   10.77      16.4  T
     SCC iter.                  ...        4 min, 57.989 sec
     gradient                   ...        4 min, 21.854 sec
 * total energy  : -3716.1694524 Eh     change    :  -0.4892317E-03 Eh
   gradient norm :     0.0267750 Eh/a0  converged?    E=F G=F D=F
   time step     :     0.3025000 fs     power     :   0.1343032E-07
   step length   :     0.0655210 a0     speed     :   0.5239264E-02

........................................................................
.............................. CYCLE   50 ..............................
........................................................................

 iter      E             dE          RMSdq      gap      omega  full diag
   1  -3772.1072326 -0.377211E+04  0.314E-03   10.77       0.0  T
   2  -3772.1072334 -0.791911E-06  0.182E-03   10.77       1.0  T
   3  -3772.1072334  0.187729E-07  0.334E-04   10.77       5.0  T
   4  -3772.1072336 -0.177572E-06  0.952E-05   10.77      17.7  T
     SCC iter.                  ...        4 min, 54.765 sec
     gradient                   ...        4 min, 22.409 sec
 * total energy  : -3716.1698793 Eh     change    :  -0.4268279E-03 Eh
   gradient norm :     0.0306586 Eh/a0  converged?    E=F G=F D=F
   time step     :     0.3327500 fs     power     :   0.1140569E-07
   step length   :     0.0674274 a0     speed     :   0.4901548E-02

........................................................................
.............................. CYCLE   51 ..............................
........................................................................

 iter      E             dE          RMSdq      gap      omega  full diag
   1  -3772.0835371 -0.377208E+04  0.301E-03   10.78       0.0  T
   2  -3772.0835380 -0.892969E-06  0.172E-03   10.78       1.0  T
   3  -3772.0835380  0.149726E-07  0.324E-04   10.78       5.2  T
   4  -3772.0835382 -0.137219E-06  0.806E-05   10.78      20.9  T
     SCC iter.                  ...        5 min,  0.958 sec
     gradient                   ...        4 min, 19.868 sec
 * total energy  : -3716.1703970 Eh     change    :  -0.5177791E-03 Eh
   gradient norm :     0.0324671 Eh/a0  converged?    E=F G=F D=F
   time step     :     0.3660250 fs     power     :   0.1495269E-07
   step length   :     0.0693702 a0     speed     :   0.4584347E-02

........................................................................
.............................. CYCLE   52 ..............................
........................................................................

 iter      E             dE          RMSdq      gap      omega  full diag
   1  -3772.0611119 -0.377206E+04  0.306E-03   10.78       0.0  T
   2  -3772.0611129 -0.103839E-05  0.176E-03   10.78       1.0  T
   3  -3772.0611129  0.475166E-08  0.303E-04   10.78       5.5  T
   4  -3772.0611130 -0.905948E-07  0.669E-05   10.78      25.1  T
     SCC iter.                  ...        4 min, 55.286 sec
     gradient                   ...        4 min, 20.925 sec
 * total energy  : -3716.1711044 Eh     change    :  -0.7073121E-03 Eh
   gradient norm :     0.0311977 Eh/a0  converged?    E=F G=F D=F
   time step     :     0.4026275 fs     power     :   0.1997248E-07
   step length   :     0.0722366 a0     speed     :   0.4339794E-02

........................................................................
.............................. CYCLE   53 ..............................
........................................................................

 iter      E             dE          RMSdq      gap      omega  full diag
   1  -3772.0442781 -0.377204E+04  0.337E-03   10.78       0.0  T
   2  -3772.0442791 -0.107327E-05  0.196E-03   10.78       1.0  T
   3  -3772.0442792 -0.723730E-08  0.279E-04   10.78       6.0  T
   4  -3772.0442792 -0.682689E-07  0.608E-05   10.78      27.6  T
     SCC iter.                  ...        4 min, 55.720 sec
     gradient                   ...        4 min, 22.446 sec
 * total energy  : -3716.1719850 Eh     change    :  -0.8806302E-03 Eh
   gradient norm :     0.0273614 Eh/a0  converged?    E=F G=F D=F
   time step     :     0.4428903 fs     power     :   0.2226285E-07
   step length   :     0.0765570 a0     speed     :   0.4181226E-02

........................................................................
.............................. CYCLE   54 ..............................
........................................................................

 iter      E             dE          RMSdq      gap      omega  full diag
   1  -3772.0376255 -0.377204E+04  0.377E-03   10.78       0.0  T
   2  -3772.0376264 -0.906544E-06  0.222E-03   10.78       1.0  T
   3  -3772.0376264 -0.752107E-08  0.273E-04   10.78       6.2  T
   4  -3772.0376265 -0.964806E-07  0.770E-05   10.78      21.8  T
     SCC iter.                  ...        4 min, 54.321 sec
     gradient                   ...        4 min, 20.213 sec
 * total energy  : -3716.1729086 Eh     change    :  -0.9235875E-03 Eh
   gradient norm :     0.0231348 Eh/a0  converged?    E=F G=F D=F
   time step     :     0.4871793 fs     power     :   0.1969615E-07
   step length   :     0.0823066 a0     speed     :   0.4086589E-02

........................................................................
.............................. CYCLE   55 ..............................
........................................................................

 iter      E             dE          RMSdq      gap      omega  full diag
   1  -3772.0445456 -0.377204E+04  0.399E-03   10.79       0.0  T
   2  -3772.0445463 -0.762697E-06  0.236E-03   10.79       1.0  T
   3  -3772.0445463  0.228492E-07  0.316E-04   10.79       5.3  T
   4  -3772.0445465 -0.181059E-06  0.102E-04   10.79      16.6  T
     SCC iter.                  ...        4 min, 54.629 sec
     gradient                   ...        4 min, 22.623 sec
 * total energy  : -3716.1737204 Eh     change    :  -0.8118208E-03 Eh
   gradient norm :     0.0217372 Eh/a0  converged?    E=F G=F D=F
   time step     :     0.5358972 fs     power     :   0.1393370E-07
   step length   :     0.0887129 a0     speed     :   0.4004240E-02

........................................................................
.............................. CYCLE   56 ..............................
........................................................................

 iter      E             dE          RMSdq      gap      omega  full diag
   1  -3772.0635295 -0.377206E+04  0.384E-03   10.79       0.0  T
   2  -3772.0635306 -0.108162E-05  0.226E-03   10.79       1.0  T
   3  -3772.0635306  0.187779E-07  0.360E-04   10.79       4.7  T
   4  -3772.0635308 -0.194684E-06  0.112E-04   10.79      15.0  T
     SCC iter.                  ...        4 min, 56.279 sec
     gradient                   ...        4 min, 20.750 sec
 * total energy  : -3716.1743909 Eh     change    :  -0.6705384E-03 Eh
   gradient norm :     0.0237250 Eh/a0  converged?    E=F G=F D=F
   time step     :     0.5894869 fs     power     :   0.9661821E-08
   step length   :     0.0945344 a0     speed     :   0.3879100E-02

........................................................................
.............................. CYCLE   57 ..............................
........................................................................

 iter      E             dE          RMSdq      gap      omega  full diag
   1  -3772.0871742 -0.377209E+04  0.349E-03   10.80       0.0  T
   2  -3772.0871757 -0.152874E-05  0.205E-03   10.80       1.0  T
   3  -3772.0871757 -0.243376E-07  0.370E-04   10.80       4.5  T
   4  -3772.0871759 -0.117273E-06  0.104E-04   10.80      16.1  T
     SCC iter.                  ...        4 min, 54.308 sec
     gradient                   ...        4 min, 21.700 sec
 * total energy  : -3716.1750747 Eh     change    :  -0.6838122E-03 Eh
   gradient norm :     0.0260882 Eh/a0  converged?    E=F G=F D=F
   time step     :     0.6484356 fs     power     :   0.1004699E-07
   step length   :     0.0998262 a0     speed     :   0.3723856E-02

........................................................................
.............................. CYCLE   58 ..............................
........................................................................

 iter      E             dE          RMSdq      gap      omega  full diag
   1  -3772.1059014 -0.377211E+04  0.335E-03   10.80       0.0  T
   2  -3772.1059027 -0.129880E-05  0.196E-03   10.80       1.0  T
   3  -3772.1059027 -0.485998E-07  0.322E-04   10.80       5.2  T
   4  -3772.1059028 -0.673640E-07  0.891E-05   10.80      18.9  T
     SCC iter.                  ...        4 min, 58.780 sec
     gradient                   ...        4 min, 22.542 sec
 * total energy  : -3716.1759834 Eh     change    :  -0.9086300E-03 Eh
   gradient norm :     0.0257932 Eh/a0  converged?    E=F G=F D=F
   time step     :     0.7132792 fs     power     :   0.1381057E-07
   step length   :     0.1063902 a0     speed     :   0.3607921E-02

........................................................................
.............................. CYCLE   59 ..............................
........................................................................

 iter      E             dE          RMSdq      gap      omega  full diag
   1  -3772.1108711 -0.377211E+04  0.370E-03   10.81       0.0  T
   2  -3772.1108719 -0.749370E-06  0.216E-03   10.81       1.0  T
   3  -3772.1108719 -0.684468E-07  0.288E-04   10.81       5.8  T
   4  -3772.1108720 -0.779510E-07  0.987E-05   10.81      17.0  T
     SCC iter.                  ...        4 min, 59.239 sec
     gradient                   ...        4 min, 19.816 sec
 * total energy  : -3716.1771538 Eh     change    :  -0.1170476E-02 Eh
   gradient norm :     0.0220750 Eh/a0  converged?    E=F G=F D=F
   time step     :     0.7846071 fs     power     :   0.1595181E-07
   step length   :     0.1160123 a0     speed     :   0.3576572E-02

........................................................................
.............................. CYCLE   60 ..............................
........................................................................

 iter      E             dE          RMSdq      gap      omega  full diag
   1  -3772.0968321 -0.377210E+04  0.433E-03   10.81       0.0  T
   2  -3772.0968335 -0.137871E-05  0.252E-03   10.81       1.0  T
   3  -3772.0968336 -0.893351E-07  0.399E-04   10.81       4.2  T
   4  -3772.0968337 -0.129497E-06  0.119E-04   10.81      14.2  T
     SCC iter.                  ...        4 min, 55.224 sec
     gradient                   ...        4 min, 22.215 sec
 * total energy  : -3716.1783457 Eh     change    :  -0.1191814E-02 Eh
   gradient norm :     0.0201138 Eh/a0  converged?    E=F G=F D=F
   time step     :     0.8630678 fs     power     :   0.1303137E-07
   step length   :     0.1285705 a0     speed     :   0.3603392E-02

........................................................................
.............................. CYCLE   61 ..............................
........................................................................

 iter      E             dE          RMSdq      gap      omega  full diag
   1  -3772.0684150 -0.377207E+04  0.445E-03   10.81       0.0  T
   2  -3772.0684173 -0.226729E-05  0.256E-03   10.81       1.0  T
   3  -3772.0684174 -0.943987E-07  0.483E-04   10.81       3.5  T
   4  -3772.0684175 -0.137529E-06  0.121E-04   10.81      13.9  T
     SCC iter.                  ...        4 min, 51.397 sec
     gradient                   ...        4 min, 20.579 sec
 * total energy  : -3716.1794710 Eh     change    :  -0.1125365E-02 Eh
   gradient norm :     0.0228503 Eh/a0  converged?    E=F G=F D=F
   time step     :     0.9493746 fs     power     :   0.1129958E-07
   step length   :     0.1414116 a0     speed     :   0.3602986E-02

........................................................................
.............................. CYCLE   62 ..............................
........................................................................

 iter      E             dE          RMSdq      gap      omega  full diag
   1  -3772.0423595 -0.377204E+04  0.422E-03   10.82       0.0  T
   2  -3772.0423613 -0.174211E-05  0.242E-03   10.82       1.0  T
   3  -3772.0423614 -0.976629E-07  0.440E-04   10.82       3.8  T
   4  -3772.0423615 -0.122734E-06  0.118E-04   10.82      14.2  T
     SCC iter.                  ...        4 min, 53.484 sec
     gradient                   ...        4 min, 21.028 sec
 * total energy  : -3716.1808429 Eh     change    :  -0.1371863E-02 Eh
   gradient norm :     0.0211436 Eh/a0  converged?    E=F G=F D=F
   time step     :     1.0443120 fs     power     :   0.1383128E-07
   step length   :     0.1554227 a0     speed     :   0.3599973E-02

........................................................................
.............................. CYCLE   63 ..............................
[...]
  3284   6 C     3286   6 C                                       1.5329855
  3287   6 C     3288   6 C                                       1.5276678
  3287   6 C     3289   6 C                                       1.5356524
  3289   6 C     3290   6 C                                       1.5379542
  3290   6 C     3291   6 C                                       1.5278053
  3290   6 C     3292   6 C                                       1.5349474
  3293   6 C     3294   6 C                                       1.5296365
  3293   6 C     3295   6 C                                       1.5365077
  3295   6 C     3296   6 C                                       1.5359083
  3296   6 C     3297   6 C                                       1.5265430
  3296   6 C     3298   6 C                                       1.5365296
  3298   6 C     3299   6 C                                       1.5375007
  3299   6 C     3300   6 C                                       1.5300308
  3299   6 C     3301   6 C                                       1.5343063
  3302   6 C     3303   6 C                                       1.5300041
  3302   6 C     3304   6 C                                       1.5367972
  3304   6 C     3305   6 C                                       1.5320251
  3305   6 C     3306   6 C                                       1.5303434
  3305   6 C     3307   6 C                                       1.5362287
  3307   6 C     3308   6 C                                       1.5360367
  3308   6 C     3309   6 C                                       1.5278685
  3308   6 C     3310   6 C                                       1.5370067
  3310   6 C     3311   6 C                                       1.5377402
  3311   6 C     3312   6 C                                       1.5263706
  3311   6 C     3313   6 C                                       1.5339903
  3313   6 C     3314   6 C                                       1.5344161
  3314   6 C     3315   6 C                                       1.5291867
  3316   6 C     3317   6 C                                       1.5338037
  3317   6 C     3318   6 C                                       1.5289762
  3317   6 C     3319   6 C                                       1.5337510
  3319   6 C     3320   6 C                                       1.5327768
  3320   6 C     3321   6 C                                       1.5294814
  3320   6 C     3322   6 C                                       1.5354937
  3322   6 C     3323   6 C                                       1.5321509
  3323   6 C     3324   6 C                                       1.5269191
  3323   6 C     3325   6 C                                       1.5389605
  3325   6 C     3326   6 C                                       1.5386709
  3326   6 C     3327   6 C                                       1.5298642
  3326   6 C     3328   6 C                                       1.5359042
  3328   6 C     3329   6 C                                       1.5335139
  3329   6 C     3330   6 C                                       1.5282701
  3329   6 C     3331   6 C                                       1.5363864
  3331   6 C     3332   6 C                                       1.5334627
  3332   6 C     3333   6 C                                       1.5288308
  3332   6 C     3334   6 C                                       1.5362759
  3334   6 C     3335   6 C                                       1.5335815
  3335   6 C     3336   6 C                                       1.5292164
  3335   6 C     3337   6 C                                       1.5366027
  3337   6 C     3338   6 C                                       1.5338234
  3338   6 C     3339   6 C                                       1.5275974
  3338   6 C     3340   6 C                                       1.5380627
  3340   6 C     3341   6 C                                       1.5350712
  3341   6 C     3342   6 C                                       1.5283804
  3341   6 C     3343   6 C                                       1.5339536
  3343   6 C     3344   6 C                                       1.5336631
  3344   6 C     3345   6 C                                       1.5266624
  3344   6 C     3346   6 C                                       1.5365005
  3346   6 C     3347   6 C                                       1.5359105
  3347   6 C     3348   6 C                                       1.5274024
  3347   6 C     3349   6 C                                       1.5330442
  3349   6 C     3350   6 C                                       1.5337099
  3350   6 C     3351   6 C                                       1.5297408
  3350   6 C     3352   6 C                                       1.5361668
  3352   6 C     3353   6 C                                       1.5271852
  3353   6 C     3354   6 C                                       1.5236619
  3265   6 C     3355   1 H                                       1.0889525
  3265   6 C     3356   1 H                                       1.0873592
  3265   6 C     3357   1 H                                       1.0885292
  3354   6 C     3358   1 H                                       1.0885093
  3354   6 C     3359   1 H                                       1.0883665
  3354   6 C     3360   1 H                                       1.0872826
  3352   6 C     3361   1 H                                       1.0940333
  3352   6 C     3362   1 H                                       1.0927512
  3349   6 C     3363   1 H                                       1.0922073
  3349   6 C     3364   1 H                                       1.0935630
  3347   6 C     3365   1 H                                       1.0928893
  3348   6 C     3366   1 H                                       1.0879032
  3348   6 C     3367   1 H                                       1.0873143
  3348   6 C     3368   1 H                                       1.0886849
  3346   6 C     3369   1 H                                       1.0926611
  3346   6 C     3370   1 H                                       1.0921139
  3343   6 C     3371   1 H                                       1.0927687
  3343   6 C     3372   1 H                                       1.0928054
  3350   6 C     3373   1 H                                       1.0965650
  3351   6 C     3374   1 H                                       1.0879285
  3351   6 C     3375   1 H                                       1.0872933
  3351   6 C     3376   1 H                                       1.0876365
  3344   6 C     3377   1 H                                       1.0950629
  3345   6 C     3378   1 H                                       1.0869424
  3345   6 C     3379   1 H                                       1.0858085
  3345   6 C     3380   1 H                                       1.0874225
  3341   6 C     3381   1 H                                       1.0935968
  3342   6 C     3382   1 H                                       1.0882889
  3342   6 C     3383   1 H                                       1.0892774
  3342   6 C     3384   1 H                                       1.0877650
  3340   6 C     3385   1 H                                       1.0912522
  3340   6 C     3386   1 H                                       1.0928325
  3338   6 C     3387   1 H                                       1.0940604
  3339   6 C     3388   1 H                                       1.0886000
  3339   6 C     3389   1 H                                       1.0870301
  3339   6 C     3390   1 H                                       1.0882083
  3337   6 C     3391   1 H                                       1.0922350
  3337   6 C     3392   1 H                                       1.0940019
  3335   6 C     3393   1 H                                       1.0936463
  3336   6 C     3394   1 H                                       1.0886324
  3336   6 C     3395   1 H                                       1.0866667
  3336   6 C     3396   1 H                                       1.0884048
  3334   6 C     3397   1 H                                       1.0916833
  3334   6 C     3398   1 H                                       1.0933117
  3332   6 C     3399   1 H                                       1.0938696
  3333   6 C     3400   1 H                                       1.0878134
  3333   6 C     3401   1 H                                       1.0875870
  3333   6 C     3402   1 H                                       1.0871339
  3331   6 C     3403   1 H                                       1.0915942
  3331   6 C     3404   1 H                                       1.0926781
  3329   6 C     3405   1 H                                       1.0904309
  3330   6 C     3406   1 H                                       1.0875430
  3330   6 C     3407   1 H                                       1.0880345
  3330   6 C     3408   1 H                                       1.0887118
  3328   6 C     3409   1 H                                       1.0925894
  3328   6 C     3410   1 H                                       1.0940005
  3326   6 C     3411   1 H                                       1.0948853
  3327   6 C     3412   1 H                                       1.0883291
  3327   6 C     3413   1 H                                       1.0883311
  3327   6 C     3414   1 H                                       1.0880603
  3325   6 C     3415   1 H                                       1.0917395
  3325   6 C     3416   1 H                                       1.0923064
  3323   6 C     3417   1 H                                       1.0921914
  3324   6 C     3418   1 H                                       1.0888256
  3324   6 C     3419   1 H                                       1.0873547
  3324   6 C     3420   1 H                                       1.0882021
  3322   6 C     3421   1 H                                       1.0936883
  3322   6 C     3422   1 H                                       1.0935511
  3320   6 C     3423   1 H                                       1.0945811
  3321   6 C     3424   1 H                                       1.0881527
  3321   6 C     3425   1 H                                       1.0855961
  3321   6 C     3426   1 H                                       1.0880714
  3319   6 C     3427   1 H                                       1.0915394
  3319   6 C     3428   1 H                                       1.0936405
  3317   6 C     3429   1 H                                       1.0925479
  3318   6 C     3430   1 H                                       1.0875695
  3318   6 C     3431   1 H                                       1.0878676
  3318   6 C     3432   1 H                                       1.0887467
  3316   6 C     3433   1 H                                       1.0901934
  3316   6 C     3434   1 H                                       1.0929736
  3314   6 C     3435   1 H                                       1.0938588
  3315   6 C     3436   1 H                                       1.0879155
  3315   6 C     3437   1 H                                       1.0887757
  3315   6 C     3438   1 H                                       1.0875166
  3313   6 C     3439   1 H                                       1.0941910
  3313   6 C     3440   1 H                                       1.0929242
  3311   6 C     3441   1 H                                       1.0914408
  3312   6 C     3442   1 H                                       1.0864976
  3312   6 C     3443   1 H                                       1.0885746
  3312   6 C     3444   1 H                                       1.0878574
  3310   6 C     3445   1 H                                       1.0933027
  3310   6 C     3446   1 H                                       1.0928318
  3308   6 C     3447   1 H                                       1.0946747
  3309   6 C     3448   1 H                                       1.0880527
  3309   6 C     3449   1 H                                       1.0862394
  3309   6 C     3450   1 H                                       1.0883950
  3307   6 C     3451   1 H                                       1.0917321
  3307   6 C     3452   1 H                                       1.0944209
  3305   6 C     3453   1 H                                       1.0920673
  3306   6 C     3454   1 H                                       1.0889939
  3306   6 C     3455   1 H                                       1.0870541
  3306   6 C     3456   1 H                                       1.0886724
  3304   6 C     3457   1 H                                       1.0914756
  3304   6 C     3458   1 H                                       1.0941905
  3302   6 C     3459   1 H                                       1.0937230
  3303   6 C     3460   1 H                                       1.0878090
  3303   6 C     3461   1 H                                       1.0885983
  3303   6 C     3462   1 H                                       1.0882533
  3301   6 C     3463   1 H                                       1.0908337
  3301   6 C     3464   1 H                                       1.0928104
  3299   6 C     3465   1 H                                       1.0931656
  3300   6 C     3466   1 H                                       1.0888736
  3300   6 C     3467   1 H                                       1.0882585
  3300   6 C     3468   1 H                                       1.0873392
  3298   6 C     3469   1 H                                       1.0921990
  3298   6 C     3470   1 H                                       1.0937278
  3296   6 C     3471   1 H                                       1.0928502
  3297   6 C     3472   1 H                                       1.0886553
  3297   6 C     3473   1 H                                       1.0870207
  3297   6 C     3474   1 H                                       1.0871635
  3295   6 C     3475   1 H                                       1.0890082
  3295   6 C     3476   1 H                                       1.0947997
  3293   6 C     3477   1 H                                       1.0969326
  3294   6 C     3478   1 H                                       1.0884037
  3294   6 C     3479   1 H                                       1.0870223
  3294   6 C     3480   1 H                                       1.0882187
  3292   6 C     3481   1 H                                       1.0928568
  3292   6 C     3482   1 H                                       1.0914107
  3290   6 C     3483   1 H                                       1.0930766
  3291   6 C     3484   1 H                                       1.0878002
  3291   6 C     3485   1 H                                       1.0855045
  3291   6 C     3486   1 H                                       1.0871245
  3289   6 C     3487   1 H                                       1.0926171
  3289   6 C     3488   1 H                                       1.0933616
  3287   6 C     3489   1 H                                       1.0946979
  3288   6 C     3490   1 H                                       1.0874325
  3288   6 C     3491   1 H                                       1.0873743
  3288   6 C     3492   1 H                                       1.0882953
  3286   6 C     3493   1 H                                       1.0903483
  3286   6 C     3494   1 H                                       1.0926256
  3284   6 C     3495   1 H                                       1.0942322
  3285   6 C     3496   1 H                                       1.0869845
  3285   6 C     3497   1 H                                       1.0890087
  3285   6 C     3498   1 H                                       1.0889126
  3283   6 C     3499   1 H                                       1.0942166
  3283   6 C     3500   1 H                                       1.0943309
  3281   6 C     3501   1 H                                       1.0923163
  3282   6 C     3502   1 H                                       1.0873126
  3282   6 C     3503   1 H                                       1.0874793
  3282   6 C     3504   1 H                                       1.0871491
  3280   6 C     3505   1 H                                       1.0906315
  3280   6 C     3506   1 H                                       1.0916354
  3278   6 C     3507   1 H                                       1.0949387
  3279   6 C     3508   1 H                                       1.0882194
  3279   6 C     3509   1 H                                       1.0879394
  3279   6 C     3510   1 H                                       1.0882896
  3277   6 C     3511   1 H                                       1.0926938
  3277   6 C     3512   1 H                                       1.0943675
  3275   6 C     3513   1 H                                       1.0922996
  3276   6 C     3514   1 H                                       1.0863061
  3276   6 C     3515   1 H                                       1.0865608
  3276   6 C     3516   1 H                                       1.0880859
  3274   6 C     3517   1 H                                       1.0938994
  3274   6 C     3518   1 H                                       1.0942260
  3272   6 C     3519   1 H                                       1.0926914
  3273   6 C     3520   1 H                                       1.0878270
  3273   6 C     3521   1 H                                       1.0873857
  3273   6 C     3522   1 H                                       1.0880463
  3271   6 C     3523   1 H                                       1.0911167
  3271   6 C     3524   1 H                                       1.0926673
  3269   6 C     3525   1 H                                       1.0934866
  3270   6 C     3526   1 H                                       1.0887328
  3270   6 C     3527   1 H                                       1.0885026
  3270   6 C     3528   1 H                                       1.0873790
  3268   6 C     3529   1 H                                       1.0914657
  3268   6 C     3530   1 H                                       1.0931985
  3266   6 C     3531   1 H                                       1.0965369
  3267   6 C     3532   1 H                                       1.0878466
  3267   6 C     3533   1 H                                       1.0879580
  3267   6 C     3534   1 H                                       1.0877096
  3353   6 C     3535   1 H                                       1.0900217
  3353   6 C     3536   1 H                                       1.0910263

 * 2 distinct bonds (by element types)

   Z      Z             #   av. dist./Å        max./Å        min./Å
   1 H    6 C        2366     1.0902968     1.0983870     1.0833098
   6 C    6 C        1106     1.5323924     1.5401314     1.5224844


optimized geometry written to: xtbopt.xyz


           -------------------------------------------------
          | TOTAL ENERGY            -3716.249884475943 Eh   |
          | GRADIENT NORM               0.000842253617 Eh/α |
          | HOMO-LUMO GAP              11.025665864033 eV   |
           -------------------------------------------------

------------------------------------------------------------------------
 * finished run on 2024/06/24 at 13:49:54.649     
------------------------------------------------------------------------
 total:
 * wall-time:     3 d, 21 h, 14 min, 29.274 sec
 *  cpu-time:    21 d,  5 h, 50 min, 57.568 sec
 * ratio c/w:     5.468 speedup
 SCF:
 * wall-time:     0 d,  0 h,  8 min, 32.599 sec
 *  cpu-time:     0 d,  0 h, 46 min,  7.376 sec
 * ratio c/w:     5.399 speedup
 ANC optimizer:
 * wall-time:     3 d, 21 h,  4 min, 28.772 sec
 *  cpu-time:    21 d,  5 h,  3 min,  5.116 sec
 * ratio c/w:     5.469 speedup

