3864
 energy: -5104.243099000631 gnorm: 0.000809679654 xtb: 6.6.1 (8d0f1dd)
C           49.27391994725956       34.04885227924658       38.62425182026026
C           48.07931014352381       33.87323419144611       37.93236074738378
C           47.64540814150681       32.57618329018799       37.69889213097809
C           48.37849755529732       31.49203294294452       38.15209758706241
C           49.55744485890399       31.68270733854196       38.84913925412464
C           50.00559848251145       32.97117361325948       39.08439107292931
C           47.35923873036798       35.10071699358618       37.41816376985109
C           48.06465914351983       35.56430106286259       36.13793018237294
C           45.86484356348365       34.85180497339893       37.18872686787185
C           45.04509353647017       36.11623839664033       36.87661444117415
C           43.71734160897223       35.70214029811725       36.29207632531244
C           43.46993182226341       35.88882883972498       34.93744002528425
C           42.27139386807799       35.49579049950471       34.36900015969046
C           41.29536890662398       34.90402438068887       35.15160829175458
C           41.53096230690203       34.71062003364691       36.50209894861010
C           42.73028405582600       35.10468878969041       37.06723955203177
C           44.86843161695631       37.02496411274156       38.09854911855430
C           43.99414989876660       38.24761349895432       37.77922653785961
C           44.44693993065810       38.93071239870082       36.51185149441167
C           43.54791741410502       39.18358123988665       35.48493952030716
C           43.95255817895959       39.82888039854549       34.32797446210978
C           45.26650907301092       40.23744694410946       34.18385594460244
C           46.17232683806913       39.99707300261819       35.20403651528796
C           45.76525443780297       39.34897810780695       36.35532734797705
C           44.02339851990602       39.28690930894423       38.91062626417283
C           43.31197118610012       38.87181073163735       40.20865055493372
C           43.95622630539985       39.61034797481374       41.35617581402840
C           43.89998912880117       40.99816599753709       41.43382806938533
C           44.52960729510635       41.67495373957211       42.46307031147361
C           45.24023872980290       40.97601853613634       43.42406399034373
C           45.31987474881147       39.59665542812959       43.34886425065191
C           44.67845933249114       38.92086800441289       42.32250017824698
C           41.80483513759351       39.14983440360942       40.12807679827540
C           41.05403318353627       38.55779083679882       41.32778698669906
C           41.22097056067025       37.05525949832693       41.34795440843135
C           41.86632808999433       36.42582714714520       42.40573060969454
C           42.02603117387753       35.05098647317081       42.42521697391358
C           41.52907009978652       34.27644356380392       41.39235420697324
C           40.88440664668659       34.89090064691096       40.33329203838353
C           40.73970438917957       36.26649497145070       40.30844415482559
C           39.55103901231632       38.88385902325911       41.32140695851675
C           39.16180615496625       40.37090708446499       41.38873302369807
C           37.66903904495874       40.47482620317682       41.18101124506177
C           37.15678860238260       41.11475909623409       40.05934509080331
C           35.79098688167222       41.21572580168000       39.85840356802343
C           34.91142894126849       40.67045347003379       40.77774764498260
C           35.40869028701609       40.02353134481063       41.89676517692400
C           36.77416295940823       39.92888162258909       42.09519485975050
C           39.57497545220953       41.05296575959252       42.70048397812609
C           39.08860256235077       42.51052151087344       42.75165740113027
C           39.65269634770366       43.33163440237050       41.61914014791274
C           41.02291718914746       43.41507222962845       41.39835226767219
C           41.52826325208018       44.19288845393357       40.37204879061650
C           40.67347238517560       44.92605562243283       39.56632723401355
C           39.30779145610124       44.86373734373514       39.78398060264369
C           38.80494334131968       44.06362302307685       40.79573940257069
C           39.44650113062496       43.16054723783623       44.09697844165189
C           38.94804191434731       44.61080116190064       44.22144247079903
C           39.69721153062807       45.32433670342184       45.31919374176722
C           40.48692764871775       46.42750970654689       45.02279807905448
C           41.15136569461754       47.11935880971306       46.01945083635069
C           41.03269956137103       46.71664036027197       47.33797886539823
C           40.26981275766303       45.60235190199044       47.64135966855244
C           39.61106152083731       44.90814779853280       46.64248618988379
C           37.43532846920235       44.69719253517665       44.47350568657099
C           36.90486589764907       46.14440563618946       44.37612553553922
C           35.72942571826988       46.32322234288799       45.30238388314523
C           34.56232699457919       45.58510456611435       45.13886235782530
C           33.47922667198374       45.78019157079824       45.97577748102085
C           33.54680272147022       46.70821882350376       47.00155770536098
C           34.71342383231818       47.42693442382660       47.19710001357807
C           35.79320842112096       47.22880717222555       46.35503613038618
C           36.56265932975578       46.48767226895163       42.91662460972069
C           36.20231411227159       47.96220466162459       42.64260890105523
C           36.44079710508230       48.27065554917805       41.18337966679698
C           35.74323060436042       47.59177814031006       40.18979457715984
C           35.95362119474608       47.87676891122742       38.85314782111884
C           36.87058659396178       48.84632629257407       38.48269432234252
C           37.57592085815594       49.52382486482355       39.46054447086485
C           37.35995524741372       49.23729781052032       40.79709557984198
C           34.74803243651002       48.27902399242097       43.02731770787884
C           34.24780392192746       49.66996477810184       42.59746472462876
C           32.78026137839379       49.77666765119927       42.92874370896228
C           31.83879598890250       49.90176168114721       41.91563184378069
C           30.48964415605127       50.00811812409942       42.20603864541269
C           30.06010556368041       49.98948159532432       43.52151716340482
C           30.98859345225267       49.85622678410357       44.54017386419094
C           32.33537414661407       49.74897580405797       44.24644140473283
C           35.04359997693573       50.79705103346367       43.26627214635010
C           34.45938885861889       52.19293450227652       43.00184429499126
C           34.34688055364533       52.48767822304351       41.52854296937124
C           35.46169716048968       52.44895752793905       40.69830376257000
C           35.35540947917900       52.75861308221189       39.35475588620599
C           34.13178863837118       53.11808160911892       38.81596047541606
C           33.01329232043260       53.15506766362655       39.63109096227799
C           33.12304578256811       52.84206918908863       40.97508973973769
C           35.31110710988960       53.27480143595883       43.68631868532464
C           34.59556910636039       54.62972707897864       43.73747741461487
C           33.38808472853642       54.56111128369093       44.64092076879591
C           32.12949323590755       54.89594009025377       44.15822355221982
C           31.01277862920625       54.83143698036515       44.97309088705172
C           31.13784127816141       54.43352647629768       46.29280529858723
C           32.38883264657838       54.11251572342220       46.79123596037790
C           33.50157144184246       54.17936872533972       45.97332818512327
C           35.54229981030475       55.73888615641938       44.22298074951730
C           36.60478765506104       56.15021649601887       43.18473019714417
C           38.01294959909857       55.85349053624375       43.63889782071302
C           38.48461366883807       56.37840135374377       44.83769039930785
C           39.80341474042280       56.20729818426953       45.21333364616278
C           40.67488903452050       55.50451625788227       44.39826598721742
C           40.21361012146243       54.96315391659391       43.21205525837919
C           38.89310267626627       55.14037512158603       42.83492696819689
C           36.56389436028497       57.66063074407492       42.90416839313043
C           35.33824788093450       58.15341837079928       42.11905072665478
C           35.14564326262364       59.61510664837513       42.43792417044148
C           33.98159246535295       60.05168785142837       43.05713226092661
C           33.82400602010875       61.37741867501229       43.42400078190574
C           34.84098123194888       62.28668033745910       43.19207190615973
C           36.00871038571899       61.86300602862858       42.58029066345976
C           36.15581043067372       60.54145762817291       42.19888627454045
C           35.51782464078119       57.90171135886951       40.61589782073764
C           34.39220135575829       58.50763050390611       39.76762785340488
C           33.02736434939039       58.10592529842468       40.27074600651771
C           32.07814756832656       59.07445473337870       40.57144049923100
C           30.80964910791807       58.72139787536719       40.99790206193222
C           30.46553439234060       57.38653132815053       41.11979038956594
C           31.40091921427132       56.41170311819386       40.81610698338709
C           32.67129393036883       56.76787261135274       40.40115454476852
C           34.48206291281290       58.08939637720058       38.28866721082801
C           35.78231466074523       58.48802880313460       37.57103254866382
C           35.84520537180531       57.74743598407393       36.25800992529628
C           36.76356848201787       56.72257263343970       36.07297884001224
C           36.82592194415484       56.02641156151609       34.87870281132313
C           35.96003357137263       56.34330743490418       33.84695130026369
C           35.03062793812721       57.35503865617709       34.02260445791664
C           34.97373019545867       58.04903285649436       35.21774385535183
C           35.92167923120980       60.01075719143124       37.37537054774527
C           37.25115144801496       60.55914655969408       37.91878551410142
C           37.21635686808852       62.06687501019802       37.89990461488355
C           37.31669639284053       62.79126828297085       36.71780093045953
C           37.25685528020055       64.17342320477930       36.72581026905855
C           37.07826984253047       64.85729233023095       37.91638005039194
C           36.96144241146258       64.14658514837770       39.09807752726967
C           37.03660049948287       62.76574529935424       39.08667427651201
C           38.45165961435482       60.00242781828507       37.14653371439362
C           39.78398853386899       60.41120850711579       37.78726703166794
H           47.47456359428111       35.88787869286602       38.17098089069054
H           45.74675046664253       34.17016959465867       36.34219254396489
H           45.45021813323801       34.36232190042148       38.07298354441874
H           45.57253434839605       36.68378702399145       36.10490421484168
H           44.41175449334296       36.45618318776956       38.90943408458301
H           45.84902851458789       37.35875218396077       38.44159127167902
H           42.96394813318970       37.90582517148588       37.63265108724636
H           45.06756595384125       39.50708786596147       39.14009083367967
H           43.56043223748606       40.20721082266390       38.54715433536752
H           43.45465596639553       37.79845295911559       40.36576651804775
H           41.40987486090721       38.72202728740336       39.20453843169926
H           41.49524921961349       38.96476902435808       42.24318265429964
H           39.10594783045983       38.47243049521154       40.41172859812927
H           39.09547499763777       38.36220758648297       42.16694875948122
H           39.64799809664842       40.90128450413565       40.56386306509454
H           39.15352280089905       40.50797226184402       43.54778304036868
H           40.66029466973507       41.02182806401238       42.79866783677409
H           37.99774110986341       42.50145864366393       42.65176905426951
H           39.03227747997751       42.55843571863532       44.90786047132189
H           40.53383926871432       43.16018662675629       44.20359656499021
H           39.17072083325638       45.11988957119325       43.27738842099538
H           37.70185241705450       46.81972271951146       44.70832192127281
H           37.43672452308633       46.24160533947512       42.30704391942125
H           35.74172385786522       45.85053480507825       42.58174393742298
H           36.86742453213361       48.59141341255604       43.24230724213027
H           34.08953359867105       47.53476065659671       42.57165197533872
H           34.64018812332063       48.18608794342376       44.10754275821744
H           34.36251480307299       49.76573120217091       41.51148112024703
H           35.05516044195244       50.62437760738476       44.34499075472784
H           36.06922578882547       50.76105963432779       42.89931471967203
H           33.45394924873654       52.22792388248416       43.43822319578767
H           35.53576716820637       52.96117579736566       44.70655577653914
H           36.25859453374364       53.38465808591524       43.15640756296096
H           34.25161646363131       54.88433949000615       42.72798314054148
H           34.93812597538638       56.60901812612646       44.49129413277825
H           36.03385898525900       55.39667127356316       45.13487302917078
H           36.41665293612521       55.61534269765929       42.24831521339747
H           36.60069854209029       58.18211735894476       43.86229961140213
H           37.46564663650216       57.93637072658478       42.35269716457577
H           34.44825728014773       57.61282914974285       42.45738869813276
H           36.46870845920552       58.33671455783737       40.30430482728462
H           35.56967463874671       56.82546683025457       40.44117818219242
H           34.47040228310065       59.59825840859921       39.83471878762176
H           34.38367138631155       57.00206659658188       38.23087202525131
H           33.63000427816954       58.51977993024951       37.75627516799751
H           36.61206604924921       58.13618907841431       38.18844901019376
H           35.84760970499246       60.26020408629390       36.31527328405902
H           35.10579315997487       60.52701993651102       37.88562271808391
H           49.63658481082657       35.05134509378472       38.79586497548266
H           50.93064480420658       33.13552418307409       39.61923630523757
H           50.12505172601013       30.83364373736155       39.20255754376867
H           48.02427487729549       30.49006840162031       37.95425311847630
H           46.72927145484422       32.39240248874182       37.15964830609850
H           44.22503073584154       36.35360677072158       34.31827727558254
H           42.09817268447159       35.65194332426889       33.31354863797272
H           40.35748687928477       34.59537684231971       34.71247683270628
H           40.77125200051216       34.24746803218669       37.11563278250711
H           42.89315296431896       34.94819497475814       38.12341695882213
H           42.51951425627979       38.86388870852881       35.58578072630263
H           43.23799089890205       40.01032867949608       33.53676982748467
H           45.58927081014283       40.74031070325552       33.28335603393113
H           47.19756813440009       40.31961797965877       35.09420616673404
H           46.48472708379257       39.15860419452864       37.13744837314140
H           43.36928665319085       41.55701913598370       40.67651784730017
H           44.47422880637410       42.75298179948037       42.51737971282533
H           45.72465771755254       41.50735130491287       44.22792056499558
H           45.88294760196128       39.04968394736859       44.09224122701798
H           44.73898089337693       37.84236362169241       42.26917433910935
H           41.64193353104577       40.22747708415978       40.08981232524180
H           42.24794571559396       37.02445050954849       43.22062081767474
H           42.53728636075328       34.56705368998015       43.24347834026231
H           41.64793703415161       33.20271337624854       41.41663281989063
H           40.48925753636546       34.29440282562899       39.52318101779077
H           40.24163029989961       36.72330152243642       39.46531706354498
H           37.83582377567594       41.54621242123312       39.33659246009835
H           35.41184358593798       41.72150675937754       38.98140182551163
H           33.84460751923691       40.74725662354265       40.62207984550983
H           34.72968991211976       39.59234833069066       42.61883016169809
H           37.14261934319835       39.42097413852713       42.97441270030716
H           41.70486985861637       42.86828555010483       42.03270556518805
H           42.59353300761650       44.23268892668498       40.19315412319413
H           41.07198958314907       45.54238445652027       38.77316998806319
H           38.63081182091390       45.44067408131609       39.16809433710705
H           37.73552832700453       44.00979340730662       40.94974499889204
H           40.57932493110858       46.75401614494172       43.99686040652898
H           41.75548143063174       47.97670295480413       45.76196501616432
H           41.53140024509166       47.26369027984677       48.12557562635797
H           40.18207303671996       45.27803000986290       48.66740849791970
H           39.01808893112681       44.04066510379629       46.89645541230523
H           36.90259576977898       44.07302018882824       43.75471742205585
H           37.21159420325371       44.30382002754847       45.46789036718263
H           34.49400454099865       44.85127734113436       44.34963702201190
H           32.57696150655075       45.20474973435958       45.82711374861283
H           32.69722562475832       46.86431316465732       47.65098784185403
H           34.78164199541632       48.14534657603697       48.00189503810270
H           36.69953596787345       47.79399716113587       46.52031905892775
H           35.02291118338110       46.83358371247869       40.46067003266656
H           35.39951209420039       47.34002250881831       38.09534311918180
H           37.03298309809388       49.06860167088585       37.43762956641447
H           38.29972330191398       50.27647187684000       39.18266155388160
H           37.92516837238162       49.77121077711326       41.54717835586458
H           32.16827340719477       49.92342300183739       40.88552945925539
H           29.77223615119406       50.10853413273273       41.40372458352596
H           29.00791295941018       50.07645882232222       43.75163523765667
H           30.65918864437542       49.83817504597995       45.56940503657979
H           33.04407971477412       49.64229475207507       45.05493670238019
H           36.42422975251836       52.16995087229687       41.10039463012756
H           36.22966755551928       52.71863011349903       38.72074929873267
H           34.04873502209018       53.36772961034021       37.76761867853007
H           32.05351868967122       53.43028619418807       39.21620483971541
H           32.24599633174022       52.86854062730314       41.60818178576374
H           32.02259928930695       55.21580639391315       43.13107651564518
H           30.04159507562817       55.09177622490772       44.57588385002963
H           30.26566465454481       54.37756856175209       46.92881865578382
H           32.49977284795773       53.80564517544516       47.82225821331171
H           34.46633970425930       53.93020339993860       46.38888150064634
H           37.82264391882331       56.94151901858159       45.47989550299748
H           40.14361554222606       56.64087565557980       46.14305294440428
H           41.71030751799799       55.37865442185557       44.67666815111850
H           40.88779642549677       54.41211535733860       42.57346720289136
H           38.54363876614124       54.72724319566864       41.89768262980814
H           33.18796593263257       59.34414057815897       43.25732343431268
H           32.90889876531674       61.69781141008998       43.90233692164805
H           34.72969373500633       63.31916671396028       43.49100925894355
H           36.80919167833813       62.57023593182788       42.41677674104720
H           37.07452402343294       60.22435335702340       41.72491819325159
H           32.33697478290636       60.12014403933805       40.47560242787740
H           30.08704688413376       59.49032169433156       41.23183642293659
H           29.47412916555618       57.10730185257579       41.44644660541306
H           31.13602211574899       55.36659186852931       40.89510690246806
H           33.38515743926151       55.98889545079957       40.17346118136692
H           37.43557974822851       56.46624781614776       36.88007440954204
H           37.54984658400480       55.23395679948077       34.75001816332848
H           36.00540210935050       55.80391847093212       32.91199947386864
H           34.34608410755190       57.60295651686432       33.22389252157764
H           34.24050080004090       58.83300613105683       35.34214468033686
H           36.94406187838059       62.21943538519211       40.01364425889193
H           36.80613689854950       64.66558447702228       40.03280801731968
H           37.02442049239610       65.93715236542559       37.91915482558097
H           37.34327862144707       64.72080682059602       35.79739993453180
H           37.44062970827735       62.27826999929901       35.77514083242986
H           47.92619416112284       34.83480673006645       35.34237725721110
H           47.67768641612888       36.52292536804116       35.80322095032761
H           49.13175821380851       35.67318294418939       36.31684779477848
H           37.33880198705923       60.24264266153337       38.96417987104882
H           38.38777510333208       58.91449854961987       37.11627264223156
H           38.41704923012288       60.35502353447556       36.11561627061291
C           40.98118797490361       59.79199000556324       37.05451679036896
C           39.83747290075497       59.97985567434993       39.23362617672260
C           39.98728996300944       60.91846664656531       40.24751831505618
C           40.04293131570411       60.52553805499441       41.57481997602479
C           39.95734352118718       59.18353798948722       41.90846869816415
C           39.81766112260566       58.23802640021498       40.90537354347589
C           39.75655909716356       58.63462585443180       39.58184245574163
H           40.06095615609686       61.96756975600058       39.99213940028855
H           40.15866503467306       61.27197885431113       42.34866291272176
H           39.99560224065763       58.86889638928529       42.94102513661633
H           39.75983513189559       57.18876875793316       41.15771482371677
H           39.64838246768252       57.88063120564004       38.81521577838266
C           41.23718602391266       60.32422885881534       35.64106385786245
H           41.87680372284280       59.98048619440056       37.64918718377196
H           40.84217674960014       58.71063122802133       36.99337308749838
C           42.43900398652440       59.61371748303171       35.08593726509276
C           43.72009085828899       60.11493411800203       35.27629385433151
C           44.82750488727430       59.41612568885512       34.82687797439289
C           44.66973334323936       58.20004075185085       34.18515222751492
C           43.39692900459529       57.69057553949241       33.98920020637846
C           42.29219085266418       58.39259371128939       34.43736954245695
H           43.85795358609468       61.06620613599631       35.77313508250516
H           45.81549940465005       59.82727903351832       34.97295895091915
H           45.53054925115390       57.64599432169403       33.84032619457685
H           43.26965351483774       56.74391629068887       33.48213168054557
H           41.29977550816726       57.99219925431467       34.27916504864820
H           39.87133477363647       61.50303840659562       37.74937983104761
H           40.37100820303078       60.13784264650382       35.00435748688714
H           41.41282883870259       61.40128589268084       35.67986251519928
C           57.77449199333675       52.10569570976838       53.70045304383070
C           59.10513334268565       52.35470854116572       53.38292302780779
C           60.04049646766231       52.33272811449863       54.40946819347572
C           59.66728713183241       52.05816664210966       55.71255943408838
C           58.34244791962147       51.80145215598696       56.01258105419294
C           57.39815202098140       51.83049184254092       55.00141607391318
C           59.54979539824966       52.55705124249512       51.95588010483745
C           59.40415931535508       51.23370832645719       51.20095431077164
C           58.78163700048344       53.66643045889549       51.23112412756996
C           59.06540467555460       55.06038768527715       51.80632808099120
C           60.54517765657659       55.34696001173333       51.74574524247436
C           61.19675266476669       55.46805009587364       50.52267069043127
C           62.56301687294274       55.67047571347030       50.46833160807480
C           63.30106463636560       55.77165587797452       51.63427943277512
C           62.66117567101141       55.67601879042358       52.85748052761544
C           61.29465424928327       55.46210214500178       52.91031057323796
C           58.28791698648980       56.13691926491840       51.03396141320822
C           56.77500486891825       56.15209007034760       51.31359741712725
C           56.08906884589974       56.88306985818557       50.18419607383879
C           56.07802674380375       58.27023907347472       50.08918023142198
C           55.47413829691767       58.90100071137075       49.01532230163054
C           54.87749356212905       58.15841203613442       48.01069495282547
C           54.89284344212079       56.77654765864074       48.08786346671781
C           55.49256291543713       56.14881529058916       49.16494734168180
C           56.48130665912521       56.74628832149565       52.69280944383919
C           54.98468106420840       56.83561159744126       53.00117383017143
C           54.31406843208783       55.48585861075994       52.98392022124235
C           53.27166506815432       55.24071257722159       52.09771048260615
C           52.61337542515843       54.02398981076015       52.08832895790319
C           52.99559976894511       53.02136345695522       52.96132561153524
C           54.03766802479159       53.25229038221467       53.84312381484757
C           54.68946848256306       54.47398500722185       53.86051449502186
C           54.76568901815283       57.55610458906632       54.34853092110981
C           54.30844362697114       59.01134452089319       54.15645406038788
C           54.50130469088977       59.82030730977981       55.41093986013585
C           55.42213449461376       60.86029829207336       55.42558347835224
C           55.59303231306785       61.64237908144961       56.55357606392684
C           54.83987473357985       61.39823998949930       57.68827619592102
C           53.92508046122328       60.35844584175750       57.68824075198263
C           53.76077479170201       59.57384188990294       56.56126100827425
C           52.84528340237724       59.02127216391333       53.70162933204485
C           52.19242975131936       60.40743704443378       53.63559912357005
C           53.01512789348141       61.42148628053587       52.88692643770227
C           53.25241618785829       62.66698200192716       53.45643145596839
C           53.97084826079668       63.63574912853500       52.77956227207366
C           54.47414533140068       63.36947753029291       51.51811698481269
C           54.26283573030832       62.12697339555334       50.94763784265719
C           53.53604070149063       61.16315926240998       51.62408810170265
C           50.80900451884740       60.22291963391684       52.99623333859847
C           49.92986181489570       61.47451155787131       52.94125245273779
C           49.80749436461647       62.17487411200405       54.26813084893661
C           49.93491239645293       63.55532923625746       54.34985395937751
C           49.76832641287136       64.21689900812254       55.55443561695911
C           49.47960820789707       63.50297269732193       56.70397381070913
C           49.36054424036053       62.12450026186747       56.63897849670439
C           49.51731034302555       61.46940896686143       55.43126431859500
C           48.52567416483836       61.06550222808142       52.45570058695456
C           47.77868608812565       62.21229068801033       51.75680335731022
C           46.28891418165999       62.07329445206393       51.93017844561845
C           45.60490719771356       60.96802161622504       51.43696293191789
C           44.23550812212765       60.85447633332262       51.59190589124844