3258
 energy: -3427.536462414676 gnorm: 0.000701891909 xtb: 6.6.1 (8d0f1dd)
C           96.36194484353798      108.58327291087670      120.59087885176403
C           97.25994470419782      107.38346889986526      120.31266110633379
C           97.80022727223486      107.35181945660088      118.88328166914084
C           96.72360860097830      107.10216933418255      117.82972542569436
C           97.31754713914187      106.96135269418396      116.43028886086792
C           96.25138429420461      106.66175350911990      115.38040761483703
C           96.84659312179444      106.42703121525356      113.99428995264677
C           95.77730735139417      106.02040135864469      112.98335555606393
C           96.34479688238537      105.66398268586369      111.60806129457471
C           96.67030155583025      106.88732265428266      110.75438812167229
C           97.38661511380404      106.53318694423267      109.45065329687711
C           96.59269588113489      105.58415242605338      108.55450478572658
C           97.25203840666302      105.40867084918368      107.18717176685803
C           96.68185742000604      104.23686226982032      106.38693953770358
C           95.26671814973589      104.47204625440895      105.86153482002679
C           94.60609460221445      103.20104610381362      105.32001787070409
C           95.32512546640149      102.58364761875160      104.12135145831701
C           94.55777290443037      101.38969275683564      103.55573490721092
C           95.29571662522439      100.66097166473335      102.42893242907950
C           96.52420167721471       99.89440125549181      102.92032760714652
C           97.06471150206565       98.88321300766219      101.90704147960977
C           97.77487685904192       99.52164834793906      100.71434535592199
C           98.33801626518579       98.46024057788222       99.76818652285571
C           99.22276320979550       99.02615773179616       98.65622121139155
C           98.46886136983605       99.89334277823070       97.65167095456025
C           99.39197533085834      100.44531456896668       96.56696680860779
C           98.68736878855249      101.47898722882024       95.69158686356491
C           99.63009885691190      102.13929204279212       94.68654504052040
C           99.04859281210241      103.42644958566856       94.10262216914097
C          100.01703389059617      104.09615450478820       93.12935306446404
C           99.59469397038886      105.50781505219486       92.71509391772021
C           99.84754432626923      106.55391854946078       93.80054127578643
C           99.57803532392228      107.97391533104336       93.30461988288839
C           99.87651237834959      109.02665059799632       94.37055510979908
C           99.65958258547630      110.45194673552230       93.86383097889674
C           99.96634102776765      111.49041013708401       94.94068729886310
C           99.72463389541944      112.92665003152186       94.47883860631711
C           99.99966496717808      113.92901075575028       95.59950129156037
C           99.65756816148794      115.36525253304622       95.20655187707791
C           99.84168065948916      116.37290277973216       96.34714152223569
C          101.30705309052010      116.69181312497243       96.63892351152849
C          101.50697367336485      117.80620046770652       97.66951158315422
C          101.14499861920834      117.39591053281566       99.09722208404287
C          101.55828124998557      118.42948226569068      100.14831491423067
C          100.74624695837485      119.72035079643135      100.07244822540284
C          101.15717666987216      120.74952351467452      101.12532711006658
C          100.37341140943005      122.04877349808424      100.94846903981221
C          100.82260239671815      123.19183999272411      101.85992987321045
C          100.40914173918243      123.02586930358075      103.32179700040766
C          100.65244592475825      124.30508441977645      104.12206060369489
C          100.04147911463075      124.26441456398069      105.52290203428122
C          100.12261768768137      125.63164651684757      106.20173865162056
C           99.30756668271015      125.74174271966366      107.49248815488485
C           99.94986139712358      125.05844791521189      108.69794746782394
C           99.14574271477031      125.31249176961224      109.97476627498867
C           99.89523824911632      124.92391553358816      111.25059076289634
C           99.98954976060841      123.41472194728306      111.48365558490308
C           98.74677667754732      122.85577866186270      112.17338742881921
C           98.79489506163887      121.33820446879039      112.35525517980761
C           98.56902569283686      120.58593587978478      111.04745603787413
C           98.57330475541089      119.06991657278446      111.22525340669320
C           98.31725519485296      118.37186425854537      109.89326372124734
C           98.40503626272353      116.85195658745333      109.97339284780381
C           98.21162010503595      116.20828924398616      108.60248678500510
C           98.25035870807133      114.68567360679754      108.67002468363809
C           98.11069504009971      114.03636243075640      107.29609077037158
C           98.15654479229892      112.51467305259386      107.39896261658210
C           98.14904598402916      111.80397316954429      106.04813353057058
C           96.83685058599372      111.93986485682015      105.27872206516918
C           96.83957624899278      111.04267932680300      104.04430760960247
C           95.56505235079685      111.16568647842962      103.21249738414589
C           95.48315940973973      110.11542401714900      102.10257103962894
C           96.55471533972955      110.29433951868879      101.02991100786417
C           96.54309136963644      109.16098372204658      100.00769621913796
C           97.63233606700800      109.30323122267502       98.94342298142902
C           99.05338843659683      109.19779539780578       99.49485563337308
C          100.09296858604638      109.33320400029716       98.38614750513530
C          101.52021334340851      109.38561421642127       98.92157621959173
C          102.53572071726167      109.62921634680914       97.80869035761317
C          103.95010285658378      109.80960780195933       98.35001873694594
C          104.95481079105090      110.14415092652564       97.25285871897964
C          106.33275115390587      110.49153275234627       97.80812755981698
C          107.31174673651532      110.87229215975189       96.70090394247990
C          108.67497309215057      111.32261414087188       97.22527062692954
C          108.63725844562789      112.68701986915933       97.90999638557716
C          110.03227968000448      113.17604665803783       98.28787237600348
C          109.99979928547162      114.52936762445424       98.99202590696626
C          111.39806278928509      115.03208994726077       99.33844170042936
C          111.36686975243522      116.37547754054368      100.06085996636067
C          112.76259247101487      116.87336488798782      100.42559443097585
C          112.71768798489977      118.21369902253871      101.15305833714935
C          114.09891529135855      118.70334860161930      101.58062075380649
C          114.01157037888751      120.02864528263187      102.33193718999507
C          115.36354463270419      120.53316157581955      102.83054243903990
C          115.22893294801395      121.88339317254187      103.53064753655673
C          116.56727304244716      122.47121054625704      103.97077479400100
C          116.39773159313458      123.90281416530540      104.47465088289330
C          117.68468187266764      124.54627672169057      104.99398911625015
C          118.84772338339977      124.55191877903304      103.99922963489260
C          118.49819405209320      125.20166353811567      102.66175285215681
C          119.70283623580235      125.36697154454347      101.73302599116215
C          120.41141366510381      124.04464971861812      101.43616450096600
C          121.31846937380303      124.11292624150460      100.20350086546817
C          120.58136063176825      123.89873903136885       98.87792298809093
C          120.10710449407850      122.45718947676188       98.70592091962398
C          119.50439207994289      122.16851745511286       97.33203361129813
C          118.93573314467373      120.75237372213847       97.29077759887443
C          118.36881832857225      120.34307630943462       95.93410840742894
C          117.72922328028422      118.95946902586543       96.02385240164570
C          117.10237985548257      118.47931133552727       94.71774408761318
C          116.41332487229811      117.13130396227034       94.91556750627956
C          115.80966125627457      116.56147812662986       93.63569358166571
C          115.16254529029450      115.20350947798413       93.89568917872968
C          114.56879298426868      114.57200111434905       92.64013043450397
C          113.98490945025455      113.19231043769858       92.93347302100062
C          113.38152139825003      112.53420809247511       91.69597703494372
C          112.81543613607101      111.15085541609088       92.00717604835638
C          112.23752288085853      110.47726064871763       90.76489928463805
C          111.56782125646406      109.13517422308504       91.05993135210731
C          112.54681598776908      108.05503771048190       91.50259458137754
H          110.81253046351000      109.27628377510112       91.83477107543563
H          111.05494510315491      108.79627855453839       90.15575238657510
H          111.49760822370042      111.14595962358983       90.31531209117017
H          113.03230174326299      110.33074799221150       90.02869190550169
H          113.60992102526737      110.53160228888889       92.42644524891654
H          112.03303151447571      111.24471595454459       92.76338927107616
H          112.58724646988291      113.17089848550721       91.29639111376412
H          114.14823214635757      112.44618440290787       90.92155480060426
H          114.77271487851353      112.54927629207192       93.33313915172532
H          113.21600977559329      113.28453987991467       93.70312718973622
H          113.78670033987206      115.22181612163578       92.23824649058888
H          115.34407811500817      114.48322483175910       91.87438410711643
H          115.91148421000192      114.52657276366146       94.31359921564254
H          114.37692530938639      115.31877399019204       94.64476218783949
H          115.06266577644752      117.25442595112203       93.23921251359361
H          116.59140683408705      116.45545194052329       92.87905262951969
H          117.13774554713110      116.41584395645326       95.30928755845024
H          115.62560748957722      117.24047824512232       95.66357549878178
H          116.37385827939461      119.21557627371699       94.36772304640539
H          117.87319833517124      118.39062276355301       93.94799262865291
H          118.48735172791355      118.23880756766623       96.34058157012127
H          116.95750589877503      118.97888183316293       96.79598468665912
H          117.62138302067797      121.07294916286644       95.61235885057778
H          119.16447497627892      120.33779202269935       95.18502502986976
H          119.72033371525711      120.04700060449635       97.57039682552539
H          118.14397628104875      120.67300355347906       98.03789335409628
H          118.70955407411530      122.88821040253873       97.12022913072542
H          120.26914982037485      122.28587155606415       96.56014844837168
H          120.95229430004265      121.78363615403036       98.86979732997074
H          119.35657700889971      122.22784859386348       99.46333407402786
H          119.72613765217548      124.57499365528199       98.81549511271035
H          121.25790487710917      124.14949839727363       98.05666785429278
H          121.81830442995856      125.08465518461978      100.18635333003024
H          122.09591962080157      123.34931904375404      100.28728220096050
H          121.01302194735263      123.76260942195239      102.30223124881604
H          119.66315916898989      123.26537483127613      101.28785246264566
H          119.35429133625921      125.80769483737794      100.79567395671691
H          120.41681632193063      126.06626617895650      102.17617375095814
H          117.74865188923661      124.59577904453970      102.15023169980027
H          118.05820705646391      126.18527757079841      102.84700559548179
H          119.68418827798985      125.09390606330609      104.45010234441847
H          119.17852415898182      123.52655405368199      103.83024558355154
H          117.45800775208694      125.57641695945894      105.28112802536961
H          118.00597918906607      124.02044836487681      105.89698788088572
H          115.98736725795891      124.51819079437610      103.67078427801137
H          115.66539710548288      123.90501741113924      105.28791838016198
H          117.00186282930881      121.85538283409163      104.76010751613963
H          117.25310305813632      122.45791687316654      103.12197924637427
H          114.74619901474675      122.58526655161026      102.84772735000855
H          114.57376307845658      121.78089124959439      104.39928046272784
H          115.79900552643748      119.80445742394983      103.51774836624222
H          116.04874323901366      120.63137135733091      101.98454917365076
H          113.57338423108814      120.78018941743110      101.67191611102191
H          113.33870253325253      119.91147350949197      103.18526329369031
H          114.56633875810739      117.95011727623223      102.22043264270749
H          114.73297530491975      118.82465519500424      100.69941836854117
H          112.25980332775801      118.96124316796063      100.50007258560980
H          112.08557351356188      118.11657463790104      102.03981503984009
H          113.24912596819229      116.13178419255894      101.06508256045717
H          113.36299948043906      116.97185695625019       99.51859947828186
H          110.87607324898934      117.11535138136577       99.42269316722198
H          110.77278183604520      116.27902942536677      100.97325404328460
H          111.89334263158494      114.29377387515270       99.97384031753273
H          111.98494024784050      115.12733503280649       98.42234174544903
H          109.50298643351979      115.25915215376217       98.34638050753603
H          109.40988131216024      114.44618182077434       99.90859890669275
H          110.50269600923669      112.44112550565687       98.94530812846639
H          110.64393765058158      113.25400757643126       97.38613517154874
H          108.17173075655364      113.41246979874761       97.23646785309232
H          108.02405737822673      112.63389531979757       98.81189013333430
H          109.05686839262007      110.57710056201147       97.92717201938473
H          109.37290741587456      111.37437185282465       96.38582631101899
H          107.44966296456587      110.01170785681717       96.04133524178167
H          106.87858376144113      111.67787775613998       96.10123646452212
H          106.22929600073600      111.32402328774859       98.50560853005923
H          106.73216110465273      109.63742120532707       98.36145935151936
H          105.03900437781549      109.29680459873401       96.56993855045418
H          104.58414753492735      110.99537829408612       96.67732723727974
H          103.94587339195053      110.61331833699866       99.08879049311564
H          104.25952376112370      108.89484528305665       98.85760316931020
H          102.51338341677761      108.79188984088145       97.10800141364075
H          102.24783208170012      110.52721963696357       97.25461556115005
H          101.59430164908684      110.19070087265732       99.65637960338805
H          101.75717672117531      108.44885719938978       99.43046724643580
H           99.99683433133993      108.49874025494756       97.68850794674300
H           99.89320979627716      110.25173779904905       97.82874910371054
H           99.22420896443340      109.98643702221078      100.22864674201141
H           99.17812254812704      108.23913592107026      100.00296246325685
H           97.48920411098528      108.52370059575107       98.18988905776162
H           97.51415556938700      110.26761477438602       98.44121646099187
H           96.66949852622915      108.20967038507030      100.52907790186393
H           95.56717823288437      109.13442865537384       99.51449992535474
H           96.39897379809553      111.24701344657171      100.51691213171053
H           97.53260658735456      110.32852161582635      101.50783691340017
H           95.58553867241177      109.12248224670219      102.54798011497570
H           94.49609269255551      110.16441298423614      101.63464374592181
H           94.70009648206243      111.04605545318782      103.87076443191555
H           95.50876121258655      112.16559221526165      102.77473369392203
H           97.70263498885430      111.30622351203709      103.43140573000045
H           96.95836090786371      110.00310241147115      104.36002936643891
H           96.00155010464184      111.66510523259869      105.92864801093646
H           96.69047059884136      112.97681621836762      104.96986151705833
H           98.96390636846222      112.19210259324043      105.43362323655745
H           98.34003999487526      110.74055614909962      106.21709577413391
H           99.06766597651612      112.23380515547879      107.93206451491807
H           97.30813813432424      112.16765572520323      107.99523004116971
H           97.16920423642637      114.35152073882088      106.84148226551723
H           98.92291576175246      114.38012271594646      106.65040604161061
H           99.19492426799358      114.37124792141211      109.11835840419737
H           97.44460190359842      114.33369192916115      109.31943202280357
H           97.25343444540347      116.52916087529439      108.18418846159260
H           98.99743047632603      116.55829641946825      107.92757146597656
H           99.38262707965586      116.56553586773882      110.36893226157878
H           97.64552121605780      116.47721206614742      110.66367286370826
H           97.32947837114403      118.65756675911351      109.52160705753369
H           99.05238519996155      118.72969178941064      109.16924245342389
H           99.54091476134637      118.75372075079335      111.62369695817743
H           97.80586554309805      118.77975845265196      111.94726622577718
H           97.60964046723463      120.89178408217394      110.62115065204659
H           99.34705062752195      120.85516999897985      110.33061613352629
H           99.76180181732761      121.05678083563576      112.77820472576235
H           98.02190712423331      121.04070452210584      113.06924485988964
H           98.65530231225060      123.32797550561439      113.15538299297799
H           97.85504465110972      123.11902970947865      111.59978557722111
H          100.14777686875154      122.91100975271313      110.53061666713825
H          100.85389937766496      123.20066263430699      112.11526993869764
H          100.89909822723314      125.35087380903883      111.19668337190006
H           99.39808008461048      125.38074986953363      112.11043918880020
H           98.91348335741074      126.37982874866002      110.02663398843552
H           98.19635108736283      124.77568179482998      109.92277611890940
H          100.03375953767578      123.98723285657540      108.51134706498438
H          100.96002290793029      125.45343263202415      108.83069468134840
H           99.18273171888949      126.80224275646991      107.72922093496688
H           98.31026783002164      125.32685559231652      107.32592398822717
H          101.16724878385796      125.87394491850347      106.41041299866615
H           99.74824775077768      126.38214896122939      105.49988966988221
H           98.99166275291144      123.97044910452723      105.44222466937063
H          100.55253120192641      123.51328213588077      106.12591726744814
H          101.72626353673698      124.49273795648119      104.19745179397026
H          100.21246841399697      125.14463753264782      103.57599988761376
H           99.34577824985290      122.77642441248743      103.36390164106338
H          100.96000331859901      122.20108869144738      103.77595789363826
H          101.90762045453764      123.29960289455762      101.79397514684108
H          100.38037378393891      124.11878597973431      101.48378994584111
H          100.48737903848470      122.37609224115283       99.91106009265124
H           99.31026184673223      121.85486270149025      101.11312941580412
H          100.98701909589315      120.34223030848413      102.12368575398619
H          102.22558869783126      120.95773087239711      101.03019772585924
H          100.87089323630119      120.16811956979743       99.08428114713330
H           99.68514374500879      119.48551333364524      100.19444070621411
H          101.43447312150799      117.99201547711421      101.14254054668829
H          102.61897002515506      118.66323250506454      100.02557140739232
H          100.06938977079803      117.22449815858820       99.17093341514938
H          101.64831677241655      116.45375510387133       99.32339268161628
H          102.55955752225553      118.10329010865361       97.65185747894054
H          100.91576128301848      118.67370512225897       97.36915144804891
H          101.81377687574316      115.79134919916618       96.98882269988613
H          101.78549481962503      116.99695333455131       95.70451843570503
H           99.33269553435316      117.30213955783535       96.07664138539201
H           99.35912202684815      115.98392068955756       97.24612708303808
H          100.27329946943206      115.66704646129182       94.35550442046332
H           98.61378854006750      115.39468450568171       94.88157724338616
H           99.40437214583955      113.65093213264859       96.47261674276113
H          101.05215334368052      113.86289703802572       95.87884297484868
H          100.36666072229264      113.14969944285903       93.62326308534332
H           98.68768164872965      113.02856251606158       94.14736192147511
H           99.33847246283828      111.28949366385361       95.81249138859081
H          101.00790062760804      111.38322876247557       95.25149361233066
H          100.29940283917453      110.62873821737990       92.99558123050730
H           98.62307821923964      110.56557258328729       93.53520833233763
H           99.23501779594311      108.85413668447660       95.23825917208943
H          100.91228706289610      108.91986242611407       94.70011430232309
H          100.19711181994244      108.16876770921286       92.42464380272219
H           98.53351989005121      108.05799824584214       92.99290331298475
H           99.21567950424674      106.35074237479654       94.66738422488527
H          100.88827390460256      106.48204034617294       94.12410252145284
H          100.16024266974294      105.79310514814753       91.82357338630064
H           98.53636828352661      105.50820741778301       92.44246788008913
H          101.00628643867576      104.14686801705588       93.58885391305995
H          100.10282679256296      103.47159622865642       92.23605112834146
H           98.10764102708771      103.20772899176615       93.59128728545808
H           98.82466280823296      104.11388049335483       94.92042682641649
H          100.57211362106425      102.37601223579608       95.18737922917180
H           99.85869322983501      101.43891538499548       93.87985369473643
H           97.85139141948049      101.01238846521720       95.16486136603275
H           98.27164439315322      102.25053467303820       96.34352135539848
H          100.25192646421009      100.92106232692296       97.04474987747673
H           99.77017985556417       99.62765281570371       95.94968671004904
H           97.66733509006765       99.30992705293130       97.19146578243620
H           98.00889666602919      100.73340689334928       98.17458458342784
H          100.02239403846863       99.62018910733104       99.10448536590600
H           99.69297877180600       98.19482796921717       98.12432317571958
H           98.93344461855092       97.75450335582282      100.35363559794412
H           97.51165410852104       97.89979472164434       99.32326071149704
H           97.07385729612054      100.16141491508367      100.17775514934077
H           98.59133464952758      100.15152130186694      101.07711405635369
H           97.77102617583101       98.22298132436084      102.41873501817156
H           96.24336390615129       98.25845122617375      101.54599168488726
H           97.31906392370679      100.59488527063992      103.17810357768542
H           96.24985842926756       99.35446056391486      103.83081936786628
H           94.60266663691321       99.95088453406771      101.96931177444496
H           95.58481563491068      101.38230398691910      101.66220767242513
H           94.35382436244998      100.67969077525431      104.36211414011129
H           93.59269193805059      101.73904280467058      103.17819510425970
H           95.44238018672162      103.33790601405921      103.34048573932974
H           96.31715597551440      102.25437174795984      104.42822245541574
H           94.55164032930159      102.45939588280275      106.12214099766757
H           93.57917892190139      103.44004803993806      105.02877150891165
H           94.64109014442911      104.85597718122784      106.67009907715118
H           95.29278677479971      105.23084755476647      105.07589472855206
H           97.34582299331825      104.04670985673110      105.54244849415973
H           96.68501104622419      103.34643835760296      107.01882135944805
H           97.15430224323953      106.33001530685398      106.60833122036169
H           98.31981197232416      105.23058247658444      107.34119750542865
H           96.52328383413730      104.60653913493971      109.03490633071470
H           95.57827877678967      105.97075389192628      108.43355686169123
H           97.58546190934287      107.45760667580387      108.90260446519741
H           98.35159780959772      106.07686550743692      109.68429130181555
H           95.74313552077722      107.41954732190413      110.52435181315882
H           97.30576038677420      107.56847194926105      111.32458110623361
H           97.24756978965188      105.06357252454313      111.73703450691072
H           95.61086541374293      105.05289092168086      111.07925275319209
H           95.24502283726130      105.15124896966049      113.37983509774099
H           95.04591329159001      106.82590936659601      112.87802490997456
H           97.35637011002768      107.33207446650179      113.65978209616941
H           97.59209018152923      105.63088656686142      114.05717236053015
H           95.69517579558047      105.77092466221740      115.68425301872173
H           95.54022119806942      107.49079462511594      115.33641265740431
H           97.83880047852112      107.88412262047801      116.16289349708967
H           98.05268220755089      106.15236305516549      116.43306785740199
H           96.18068839749785      106.18765217888443      118.08232402168544
H           96.00574188451080      107.92465941031381      117.82894675533144
H           98.30419718033413      108.29751108482472      118.67026187422726
H           98.54793433532686      106.55780776913663      118.81142260190751
H           98.10530169144673      107.41380115705950      121.00548671743407
H           96.70672647660543      106.46174445091937      120.51023544829735
H           95.45842670337674      108.54389077338490      119.98791889474890
H           96.06833539056521      108.60128924900090      121.63832980056105
H           96.88629905740196      109.50990325087423      120.36637121068851
H          112.02996036470851      107.10547810063859       91.62096698606405
H          113.33433271160381      107.92594856814354       90.76247153241923
H          113.00477345203413      108.31247864600718       92.45374044054195
C          105.99671448749739       93.60885629108817       95.45917298561395
C          106.40582495846864       92.30884668229291       96.14058489124665
C          107.81280996566539       92.36059477803339       96.73970355674584
C          107.89224582342574       93.16749383532901       98.03374905345393
C          109.30320911285770       93.17074008047112       98.61774807978286
C          109.35208070357569       93.79231021935013      100.01075561963147
C          110.74918772467215       93.72960693251947      100.62170908282067
C          110.77565068841896       94.21091758283480      102.07058102959893
C          112.17178948347841       94.10957161276906      102.67826188924811
C          112.25724741289498       94.70064178487677      104.08409772587018
C          113.70016024652874       94.72237776166818      104.58186259069730
C          113.87963195834809       95.34684848168929      105.96492617056862
C          113.35368648074741       94.47042034884625      107.09977709577369
C          113.77836674580716       94.99856060262940      108.46769918285197
C          113.30187267901874       94.10415082207523      109.60937825814507
C          113.79476110630912       94.59757700036138      110.96729880977348
C          113.25116824501397       93.76095623943667      112.12254971163667
C          113.61893311938182       94.34941742794284      113.48274017720141
C          112.94022060109643       93.60151473173866      114.62818267083726
C          113.22165655727795       94.20973644041332      116.00347357360840
C          114.60793143489464       93.85893730783434      116.53967567244500