      -----------------------------------------------------------      
     |                   =====================                   |     
     |                           x T B                           |     
     |                   =====================                   |     
     |                         S. Grimme                         |     
     |          Mulliken Center for Theoretical Chemistry        |     
     |                    University of Bonn                     |     
      -----------------------------------------------------------      

   * xtb version 6.6.1 (8d0f1dd) compiled by 'stahn@M-Bot' on 2023-08-01

   xtb is free software: you can redistribute it and/or modify it under
   the terms of the GNU Lesser General Public License as published by
   the Free Software Foundation, either version 3 of the License, or
   (at your option) any later version.
   
   xtb is distributed in the hope that it will be useful,
   but WITHOUT ANY WARRANTY; without even the implied warranty of
   MERCHANTABILITY or FITNESS FOR A PARTICULAR PURPOSE.  See the
   GNU Lesser General Public License for more details.
   
   Cite this work as:
   * C. Bannwarth, E. Caldeweyher, S. Ehlert, A. Hansen, P. Pracht,
     J. Seibert, S. Spicher, S. Grimme, WIREs Comput. Mol. Sci., 2020, 11,
     e01493. DOI: 10.1002/wcms.1493
   
   for GFN2-xTB:
   * C. Bannwarth, S. Ehlert and S. Grimme., J. Chem. Theory Comput., 2019,
     15, 1652-1671. DOI: 10.1021/acs.jctc.8b01176
   for GFN1-xTB:
   * S. Grimme, C. Bannwarth, P. Shushkov, J. Chem. Theory Comput., 2017,
     13, 1989-2009. DOI: 10.1021/acs.jctc.7b00118
   for GFN0-xTB:
   * P. Pracht, E. Caldeweyher, S. Ehlert, S. Grimme, ChemRxiv, 2019, preprint.
     DOI: 10.26434/chemrxiv.8326202.v1
   for GFN-FF:
   * S. Spicher and S. Grimme, Angew. Chem. Int. Ed., 2020, 59, 15665-15673.
     DOI: 10.1002/anie.202004239
   
   for ALPB and GBSA implicit solvation:
   * S. Ehlert, M. Stahn, S. Spicher, S. Grimme, J. Chem. Theory Comput.,
     2021, 17, 4250-4261. DOI: 10.1021/acs.jctc.1c00471
   
   for DFT-D4:
   * E. Caldeweyher, C. Bannwarth and S. Grimme, J. Chem. Phys., 2017,
     147, 034112. DOI: 10.1063/1.4993215
   * E. Caldeweyher, S. Ehlert, A. Hansen, H. Neugebauer, S. Spicher,
     C. Bannwarth and S. Grimme, J. Chem. Phys., 2019, 150, 154122.
     DOI: 10.1063/1.5090222
   * E. Caldeweyher, J.-M. Mewes, S. Ehlert and S. Grimme, Phys. Chem. Chem. Phys.
     2020, 22, 8499-8512. DOI: 10.1039/D0CP00502A
   
   for sTDA-xTB:
   * S. Grimme and C. Bannwarth, J. Chem. Phys., 2016, 145, 054103.
     DOI: 10.1063/1.4959605
   
   in the mass-spec context:
   * V. Asgeirsson, C. Bauer and S. Grimme, Chem. Sci., 2017, 8, 4879.
     DOI: 10.1039/c7sc00601b
   * J. Koopman and S. Grimme, ACS Omega 2019, 4, 12, 15120-15133.
     DOI: 10.1021/acsomega.9b02011
   
   for metadynamics refer to:
   * S. Grimme, J. Chem. Theory Comput., 2019, 155, 2847-2862
     DOI: 10.1021/acs.jctc.9b00143
   
   for SPH calculations refer to:
   * S. Spicher and S. Grimme, J. Chem. Theory Comput., 2021, 17, 1701-1714
     DOI: 10.1021/acs.jctc.0c01306
   
   with help from (in alphabetical order)
   P. Atkinson, C. Bannwarth, F. Bohle, G. Brandenburg, E. Caldeweyher
   M. Checinski, S. Dohm, S. Ehlert, S. Ehrlich, I. Gerasimov, C. Hölzer
   A. Katbashev, J. Koopman, C. Lavigne, S. Lehtola, F. März, M. Müller,
   F. Musil, H. Neugebauer, J. Pisarek, C. Plett, P. Pracht, F. Pultar,
   J. Seibert, P. Shushkov, S. Spicher, M. Stahn, M. Steiner, T. Strunk,
   J. Stückrath, T. Rose, and J. Unsleber
   
 * started run on 2024/10/03 at 21:23:58.634     

           -------------------------------------------------
          |                Calculation Setup                |
           -------------------------------------------------

          program call               : /home/abt-grimme/AK-bin/xtb input.xyz --input input.inp --opt
          hostname                   : boar098.thch.uni-bonn.de
          coordinate file            : input.xyz
          omp threads                :                     8

   ID    Z sym.   atoms
    1    6 C      1-120, 363-482, 725-844, 1087-1206, 1449-1568, 1811-1930,
                  2173-2292, 2535-2654, 2897-3016
    2    1 H      121-362, 483-724, 845-1086, 1207-1448, 1569-1810,
                  1931-2172, 2293-2534, 2655-2896, 3017-3258

molecular fragmentation (1/2 indicates fragments):
111111111111111111111111111111111111111111111111111111111111111111111111
111111111111111111111111111111111111111111111111111111111111111111111111
111111111111111111111111111111111111111111111111111111111111111111111111
111111111111111111111111111111111111111111111111111111111111111111111111
111111111111111111111111111111111111111111111111111111111111111111111111
112222222222222222222222222222222222222222222222222222222222222222222222
222222222222222222222222222222222222222222222222222222222222222222222222
222222222222222222222222222222222222222222222222222222222222222222222222
222222222222222222222222222222222222222222222222222222222222222222222222
222222222222222222222222222222222222222222222222222222222222222222222222
222222222222222222222222222222222222222222222222222222222222222222222222
222222222222222222222222222222222222222222222222222222222222222222222222
222222222222222222222222222222222222222222222222222222222222222222222222
222222222222222222222222222222222222222222222222222222222222222222222222
222222222222222222222222222222222222222222222222222222222222222222222222
222222222222222222222222222222222222222222222222222222222222222222222222
222222222222222222222222222222222222222222222222222222222222222222222222
222222222222222222222222222222222222222222222222222222222222222222222222
222222222222222222222222222222222222222222222222222222222222222222222222
222222222222222222222222222222222222222222222222222222222222222222222222
222222222222222222222222222222222222222222222222222222222222222222222222
222222222222222222222222222222222222222222222222222222222222222222222222
222222222222222222222222222222222222222222222222222222222222222222222222
222222222222222222222222222222222222222222222222222222222222222222222222
222222222222222222222222222222222222222222222222222222222222222222222222
222222222222222222222222222222222222222222222222222222222222222222222222
222222222222222222222222222222222222222222222222222222222222222222222222
222222222222222222222222222222222222222222222222222222222222222222222222
222222222222222222222222222222222222222222222222222222222222222222222222
222222222222222222222222222222222222222222222222222222222222222222222222
222222222222222222222222222222222222222222222222222222222222222222222222
222222222222222222222222222222222222222222222222222222222222222222222222
222222222222222222222222222222222222222222222222222222222222222222222222
222222222222222222222222222222222222222222222222222222222222222222222222
222222222222222222222222222222222222222222222222222222222222222222222222
222222222222222222222222222222222222222222222222222222222222222222222222
222222222222222222222222222222222222222222222222222222222222222222222222
222222222222222222222222222222222222222222222222222222222222222222222222
222222222222222222222222222222222222222222222222222222222222222222222222
222222222222222222222222222222222222222222222222222222222222222222222222
222222222222222222222222222222222222222222222222222222222222222222222222
222222222222222222222222222222222222222222222222222222222222222222222222
222222222222222222222222222222222222222222222222222222222222222222222222
222222222222222222222222222222222222222222222222222222222222222222222222
222222222222222222222222222222222222222222222222222222222222222222222222
222222222222222222
# atoms in fragment 1/2:   362  2896
 fragment masses (1/2) :     1685.21    13481.68
CMA distance (Bohr)    :  20.525
constraining FC (au)   :  0.0500

           -------------------------------------------------
          |                 G F N 2 - x T B                 |
           -------------------------------------------------

        Reference                      10.1021/acs.jctc.8b01176
      * Hamiltonian:
        H0-scaling (s, p, d)           1.850000    2.230000    2.230000
        zeta-weighting                 0.500000
      * Dispersion:
        s8                             2.700000
        a1                             0.520000
        a2                             5.000000
        s9                             5.000000
      * Repulsion:
        kExp                           1.500000    1.000000
        rExp                           1.000000
      * Coulomb:
        alpha                          2.000000
        third order                    shell-resolved
        anisotropic                    true
        a3                             3.000000
        a5                             4.000000
        cn-shift                       1.200000
        cn-exp                         4.000000
        max-rad                        5.000000


          ...................................................
          :                      SETUP                      :
          :.................................................:
          :  # basis functions                6498          :
          :  # atomic orbitals                6498          :
          :  # shells                         4338          :
          :  # electrons                      6498          :
          :  max. iterations                   250          :
          :  Hamiltonian                  GFN2-xTB          :
          :  restarted?                      false          :
          :  GBSA solvation                  false          :
          :  PC potential                    false          :
          :  electronic temp.          300.0000000     K    :
          :  accuracy                    1.0000000          :
          :  -> integral cutoff          0.2500000E+02      :
          :  -> integral neglect         0.1000000E-07      :
          :  -> SCF convergence          0.1000000E-05 Eh   :
          :  -> wf. convergence          0.1000000E-03 e    :
          :  Broyden damping             0.4000000          :
          ...................................................

 iter      E             dE          RMSdq      gap      omega  full diag
   1  -3473.5003816 -0.347350E+04  0.244E+00   11.43       0.0  T
   2  -3478.5731583 -0.507278E+01  0.135E+00   11.49       1.0  T
   3  -3478.7781348 -0.204977E+00  0.596E-01   11.45       1.0  T
   4  -3478.7986812 -0.205464E-01  0.756E-02   11.47       1.0  T
   5  -3478.7996605 -0.979369E-03  0.392E-02   11.47       1.0  T
   6  -3478.7998691 -0.208567E-03  0.660E-03   11.47       1.0  T
   7  -3478.7998856 -0.164624E-04  0.124E-03   11.47       1.4  T
   8  -3478.7998866 -0.104039E-05  0.381E-04   11.47       4.6  T
   9  -3478.7998867 -0.637069E-07  0.141E-04   11.47      12.5  T
  10  -3478.7998867 -0.384716E-08  0.418E-05   11.47      41.9  T

   *** convergence criteria satisfied after 10 iterations ***

         #    Occupation            Energy/Eh            Energy/eV
      -------------------------------------------------------------
         1        2.0000           -0.6251668             -17.0117
       ...           ...                  ...                  ...
      3243        2.0000           -0.4022795             -10.9466
      3244        2.0000           -0.4022220             -10.9450
      3245        2.0000           -0.4021224             -10.9423
      3246        2.0000           -0.4018148             -10.9339
      3247        2.0000           -0.4018097             -10.9338
      3248        2.0000           -0.4014848             -10.9250
      3249        2.0000           -0.4008724             -10.9083 (HOMO)
      3250                          0.0207390               0.5643 (LUMO)
      3251                          0.0219187               0.5964
      3252                          0.0234201               0.6373
      3253                          0.0245628               0.6684
      3254                          0.0248365               0.6758
       ...                                ...                  ...
      6498                          0.3836580              10.4399
      -------------------------------------------------------------
                  HL-Gap            0.4216114 Eh           11.4726 eV
             Fermi-level           -0.1900667 Eh           -5.1720 eV

 SCC (total)                   0 d,  0 h, 13 min, 50.288 sec
 SCC setup                      ...        0 min,  0.432 sec (  0.052%)
 Dispersion                     ...        0 min,  3.814 sec (  0.459%)
 classical contributions        ...        0 min,  0.140 sec (  0.017%)
 integral evaluation            ...        0 min,  6.070 sec (  0.731%)
 iterations                     ...        9 min, 51.105 sec ( 71.193%)
 molecular gradient             ...        3 min, 40.135 sec ( 26.513%)
 printout                       ...        0 min,  8.593 sec (  1.035%)

         :::::::::::::::::::::::::::::::::::::::::::::::::::::
         ::                     SUMMARY                     ::
         :::::::::::::::::::::::::::::::::::::::::::::::::::::
         :: total energy           -3427.532664781007 Eh    ::
         :: gradient norm              0.018723939619 Eh/a0 ::
         :: HOMO-LUMO gap             11.472630924920 eV    ::
         ::.................................................::
         :: SCC energy             -3478.799886685535 Eh    ::
         :: -> isotropic ES            0.417965279403 Eh    ::
         :: -> anisotropic ES          1.125648550767 Eh    ::
         :: -> anisotropic XC          1.944391875086 Eh    ::
         :: -> dispersion             -4.067628740845 Eh    ::
         :: repulsion energy          50.613925147467 Eh    ::
         :: add. restraining           0.000000000000 Eh    ::
         :: total charge              -0.000000000013 e     ::
         :::::::::::::::::::::::::::::::::::::::::::::::::::::

      ----------------------------------------------------------- 
     |              Fast Inertial Relaxation Engine              |
      ----------------------------------------------------------- 

          ...................................................
          :                      SETUP                      :
          :.................................................:
          :   energy convergence        0.5000000E-05 Eh    :
          :   grad. convergence         0.1000000E-02 Eh/a0 :
          :   optimization log               true           :
          :   writing optlog all                1     steps :
          :   Hessian reset                    20     steps :
          :   time step scaling                 5     steps :
          :   maximium step len.        1.0000000     a0    :
          :   initial time step         0.2500000     fs    :
          :   maximum time step         1.2500000     fs    :
          :   power reset thr           0.0000000     au    :
          :   alpha parameter           0.1000000           :
          :   BFGS update                   false           :
          :   preconditioning               false           :
          ...................................................

........................................................................
.............................. CYCLE    1 ..............................
........................................................................

 iter      E             dE          RMSdq      gap      omega  full diag
   1  -3478.8035129 -0.347880E+04  0.270E-04   11.47       0.0  T
   2  -3478.8035129 -0.293712E-07  0.154E-04   11.47      11.4  T
   3  -3478.8035129 -0.652108E-09  0.497E-05   11.47      35.2  T
     SCC iter.                  ...        2 min, 57.741 sec
     gradient                   ...        3 min, 41.005 sec
 * total energy  : -3427.5327042 Eh     change    :  -0.3942520E-04 Eh
   gradient norm :     0.0172207 Eh/a0  converged?    E=F G=F D=F
   time step     :     0.2500000 fs     power     :   0.2005272E-08
   step length   :     0.0021944 a0     speed     :   0.2123206E-03

........................................................................
.............................. CYCLE    2 ..............................
........................................................................

 iter      E             dE          RMSdq      gap      omega  full diag
   1  -3478.8087906 -0.347881E+04  0.391E-04   11.47       0.0  T
   2  -3478.8087906 -0.614859E-07  0.223E-04   11.47       7.9  T
   3  -3478.8087906 -0.128057E-08  0.720E-05   11.47      24.3  T
     SCC iter.                  ...        2 min, 55.880 sec
     gradient                   ...        3 min, 39.900 sec
 * total energy  : -3427.5327559 Eh     change    :  -0.5167798E-04 Eh
   gradient norm :     0.0150589 Eh/a0  converged?    E=F G=F D=F
   time step     :     0.2500000 fs     power     :   0.2556728E-08
   step length   :     0.0032033 a0     speed     :   0.3099394E-03

........................................................................
.............................. CYCLE    3 ..............................
........................................................................

 iter      E             dE          RMSdq      gap      omega  full diag
   1  -3478.8154877 -0.347882E+04  0.497E-04   11.47       0.0  T
   2  -3478.8154878 -0.990021E-07  0.284E-04   11.47       6.2  T
   3  -3478.8154878 -0.207592E-08  0.911E-05   11.47      19.2  T
     SCC iter.                  ...        3 min,  5.314 sec
     gradient                   ...        3 min, 39.196 sec
 * total energy  : -3427.5328117 Eh     change    :  -0.5585992E-04 Eh
   gradient norm :     0.0123610 Eh/a0  converged?    E=F G=F D=F
   time step     :     0.2500000 fs     power     :   0.2664598E-08
   step length   :     0.0040845 a0     speed     :   0.3952016E-03

........................................................................
.............................. CYCLE    4 ..............................
........................................................................

 iter      E             dE          RMSdq      gap      omega  full diag
   1  -3478.8233046 -0.347882E+04  0.583E-04   11.47       0.0  T
   2  -3478.8233047 -0.134180E-06  0.333E-04   11.47       5.3  T
   3  -3478.8233047 -0.293630E-08  0.106E-04   11.47      16.5  T
     SCC iter.                  ...        3 min,  0.680 sec
     gradient                   ...        3 min, 40.625 sec
 * total energy  : -3427.5328633 Eh     change    :  -0.5154664E-04 Eh
   gradient norm :     0.0093230 Eh/a0  converged?    E=F G=F D=F
   time step     :     0.2500000 fs     power     :   0.2325897E-08
   step length   :     0.0048040 a0     speed     :   0.4648081E-03

........................................................................
.............................. CYCLE    5 ..............................
........................................................................

 iter      E             dE          RMSdq      gap      omega  full diag
   1  -3478.8318714 -0.347883E+04  0.644E-04   11.47       0.0  T
   2  -3478.8318716 -0.159976E-06  0.368E-04   11.47       4.8  T
   3  -3478.8318716 -0.359523E-08  0.115E-04   11.47      15.2  T
     SCC iter.                  ...        3 min,  0.893 sec
     gradient                   ...        3 min, 38.755 sec
 * total energy  : -3427.5329031 Eh     change    :  -0.3980450E-04 Eh
   gradient norm :     0.0063083 Eh/a0  converged?    E=F G=F D=F
   time step     :     0.2500000 fs     power     :   0.1620322E-08
   step length   :     0.0053323 a0     speed     :   0.5159311E-03

........................................................................
.............................. CYCLE    6 ..............................
........................................................................

 iter      E             dE          RMSdq      gap      omega  full diag
   1  -3478.8416333 -0.347884E+04  0.747E-04   11.47       0.0  T
   2  -3478.8416335 -0.205009E-06  0.427E-04   11.47       4.1  T
   3  -3478.8416335 -0.471346E-08  0.129E-04   11.47      13.6  T
     SCC iter.                  ...        3 min,  1.841 sec
     gradient                   ...        3 min, 39.479 sec
 * total energy  : -3427.5329278 Eh     change    :  -0.2473362E-04 Eh
   gradient norm :     0.0041667 Eh/a0  converged?    E=F G=F D=F
   time step     :     0.2750000 fs     power     :   0.6101852E-09
   step length   :     0.0062324 a0     speed     :   0.5481966E-03

........................................................................
.............................. CYCLE    7 ..............................
........................................................................

 iter      E             dE          RMSdq      gap      omega  full diag
   1  -3478.8515549 -0.347885E+04  0.797E-04   11.47       0.0  T
   2  -3478.8515551 -0.205822E-06  0.457E-04   11.47       3.8  T
   3  -3478.8515551 -0.490809E-08  0.126E-04   11.47      13.9  T
     SCC iter.                  ...        2 min, 57.034 sec
     gradient                   ...        3 min, 39.928 sec
 * total energy  : -3427.5329321 Eh     change    :  -0.4261581E-05 Eh
   gradient norm :     0.0051861 Eh/a0  converged?    E=T G=F D=F
   time step     :     0.3025000 fs     power     :  -0.3695545E-09
   step length   :     0.0067425 a0     speed     :   0.5391519E-03

........................................................................
.............................. CYCLE    8 ..............................
........................................................................
 * reset velocities

 iter      E             dE          RMSdq      gap      omega  full diag
   1  -3478.8514334 -0.347885E+04  0.138E-05   11.47       0.0  T
   2  -3478.8514334 -0.134605E-09  0.741E-06   11.47     236.3  T
   3  -3478.8514334  0.454747E-12  0.331E-06   11.47     528.7  T
     SCC iter.                  ...        2 min, 54.491 sec
     gradient                   ...        3 min, 39.339 sec
 * total energy  : -3427.5329327 Eh     change    :  -0.5747620E-06 Eh
   gradient norm :     0.0051241 Eh/a0  converged?    E=T G=F D=T
   time step     :     0.1512500 fs     power     :   0.5000437E-10
   step length   :     0.0001112 a0     speed     :   0.1778947E-04

........................................................................
.............................. CYCLE    9 ..............................
........................................................................

 iter      E             dE          RMSdq      gap      omega  full diag
   1  -3478.8511924 -0.347885E+04  0.278E-05   11.47       0.0  T
   2  -3478.8511924 -0.882210E-10  0.162E-05   11.47     107.9  T
   3  -3478.8511924 -0.618456E-10  0.396E-06   11.47     442.0  T
     SCC iter.                  ...        2 min, 56.179 sec
     gradient                   ...        3 min, 38.138 sec
 * total energy  : -3427.5329338 Eh     change    :  -0.1129044E-05 Eh
   gradient norm :     0.0050082 Eh/a0  converged?    E=T G=F D=T
   time step     :     0.1512500 fs     power     :   0.9714980E-10
   step length   :     0.0002211 a0     speed     :   0.3536594E-04

........................................................................
.............................. CYCLE   10 ..............................
........................................................................

 iter      E             dE          RMSdq      gap      omega  full diag
   1  -3478.8508372 -0.347885E+04  0.409E-05   11.47       0.0  T
   2  -3478.8508372 -0.418822E-09  0.238E-05   11.47      73.5  T
   3  -3478.8508372  0.954969E-11  0.584E-06   11.47     299.8  T
     SCC iter.                  ...        2 min, 58.096 sec
     gradient                   ...        3 min, 38.506 sec
 * total energy  : -3427.5329354 Eh     change    :  -0.1618288E-05 Eh
   gradient norm :     0.0048394 Eh/a0  converged?    E=T G=F D=T
   time step     :     0.1512500 fs     power     :   0.1394171E-09
   step length   :     0.0003285 a0     speed     :   0.5254326E-04

........................................................................
.............................. CYCLE   11 ..............................
........................................................................

 iter      E             dE          RMSdq      gap      omega  full diag
   1  -3478.8503759 -0.347885E+04  0.537E-05   11.47       0.0  T
   2  -3478.8503759 -0.695763E-09  0.313E-05   11.47      56.0  T
   3  -3478.8503759 -0.150067E-10  0.762E-06   11.47     229.9  T
     SCC iter.                  ...        2 min, 56.055 sec
     gradient                   ...        3 min, 40.298 sec
 * total energy  : -3427.5329375 Eh     change    :  -0.2038077E-05 Eh
   gradient norm :     0.0046227 Eh/a0  converged?    E=T G=F D=T
   time step     :     0.1512500 fs     power     :   0.1750697E-09
   step length   :     0.0004323 a0     speed     :   0.6913541E-04

........................................................................
.............................. CYCLE   12 ..............................
........................................................................

 iter      E             dE          RMSdq      gap      omega  full diag
   1  -3478.8498194 -0.347885E+04  0.657E-05   11.47       0.0  T
   2  -3478.8498194 -0.107048E-08  0.384E-05   11.47      45.7  T
   3  -3478.8498194 -0.500222E-11  0.922E-06   11.47     189.9  T
     SCC iter.                  ...        2 min, 57.730 sec
     gradient                   ...        3 min, 38.302 sec
 * total energy  : -3427.5329398 Eh     change    :  -0.2386996E-05 Eh
   gradient norm :     0.0043656 Eh/a0  converged?    E=T G=F D=T
   time step     :     0.1512500 fs     power     :   0.2028154E-09
   step length   :     0.0005313 a0     speed     :   0.8496823E-04

........................................................................
.............................. CYCLE   13 ..............................
........................................................................

 iter      E             dE          RMSdq      gap      omega  full diag
   1  -3478.8491815 -0.347885E+04  0.769E-05   11.47       0.0  T
   2  -3478.8491815 -0.139471E-08  0.449E-05   11.47      39.0  T
   3  -3478.8491815 -0.115506E-09  0.106E-05   11.47     164.8  T
     SCC iter.                  ...        2 min, 59.474 sec
     gradient                   ...        3 min, 38.903 sec
 * total energy  : -3427.5329425 Eh     change    :  -0.2626015E-05 Eh
   gradient norm :     0.0040777 Eh/a0  converged?    E=T G=F D=T
   time step     :     0.1512500 fs     power     :   0.2219110E-09
   step length   :     0.0006246 a0     speed     :   0.9988371E-04

........................................................................
.............................. CYCLE   14 ..............................
........................................................................

 iter      E             dE          RMSdq      gap      omega  full diag
   1  -3478.8484011 -0.347885E+04  0.968E-05   11.47       0.0  T
   2  -3478.8484011 -0.205910E-08  0.566E-05   11.47      31.0  T
   3  -3478.8484011 -0.140972E-09  0.131E-05   11.47     133.3  T
     SCC iter.                  ...        2 min, 58.360 sec
     gradient                   ...        3 min, 37.624 sec
 * total energy  : -3427.5329455 Eh     change    :  -0.3067921E-05 Eh
   gradient norm :     0.0037381 Eh/a0  converged?    E=T G=F D=T
   time step     :     0.1663750 fs     power     :   0.2327111E-09
   step length   :     0.0007919 a0     speed     :   0.1151348E-03

........................................................................
.............................. CYCLE   15 ..............................
........................................................................

 iter      E             dE          RMSdq      gap      omega  full diag
   1  -3478.8474784 -0.347885E+04  0.120E-04   11.47       0.0  T
   2  -3478.8474784 -0.313275E-08  0.701E-05   11.47      25.0  T
   3  -3478.8474784 -0.782165E-10  0.157E-05   11.47     111.4  T
     SCC iter.                  ...        2 min, 58.517 sec
     gradient                   ...        3 min, 40.782 sec
 * total energy  : -3427.5329490 Eh     change    :  -0.3422322E-05 Eh
   gradient norm :     0.0033618 Eh/a0  converged?    E=T G=F D=T
   time step     :     0.1830125 fs     power     :   0.2329961E-09
   step length   :     0.0009862 a0     speed     :   0.1303429E-03

........................................................................
.............................. CYCLE   16 ..............................
........................................................................

 iter      E             dE          RMSdq      gap      omega  full diag
   1  -3478.8464334 -0.347885E+04  0.144E-04   11.47       0.0  T
   2  -3478.8464334 -0.431601E-08  0.846E-05   11.47      20.7  T
   3  -3478.8464334 -0.900400E-10  0.182E-05   11.47      96.5  T
     SCC iter.                  ...        2 min, 58.740 sec
     gradient                   ...        3 min, 42.051 sec
 * total energy  : -3427.5329526 Eh     change    :  -0.3666183E-05 Eh
   gradient norm :     0.0029848 Eh/a0  converged?    E=T G=F D=F
   time step     :     0.2013138 fs     power     :   0.2217474E-09
   step length   :     0.0012067 a0     speed     :   0.1449927E-03

........................................................................
.............................. CYCLE   17 ..............................
........................................................................

 iter      E             dE          RMSdq      gap      omega  full diag
   1  -3478.8453209 -0.347885E+04  0.171E-04   11.47       0.0  T
   2  -3478.8453209 -0.535192E-08  0.100E-04   11.47      17.5  T
   3  -3478.8453209 -0.156433E-09  0.200E-05   11.47      87.8  T
     SCC iter.                  ...        2 min, 59.278 sec
     gradient                   ...        3 min, 38.858 sec
 * total energy  : -3427.5329564 Eh     change    :  -0.3752304E-05 Eh
   gradient norm :     0.0026680 Eh/a0  converged?    E=T G=F D=F
   time step     :     0.2214451 fs     power     :   0.2000387E-09
   step length   :     0.0014502 a0     speed     :   0.1584060E-03

........................................................................
.............................. CYCLE   18 ..............................
........................................................................

 iter      E             dE          RMSdq      gap      omega  full diag
   1  -3478.8442476 -0.347884E+04  0.195E-04   11.47       0.0  T
   2  -3478.8442476 -0.589398E-08  0.115E-04   11.47      15.2  T
   3  -3478.8442476 -0.102773E-09  0.205E-05   11.47      85.4  T
     SCC iter.                  ...        3 min,  4.128 sec
     gradient                   ...        3 min, 39.628 sec
 * total energy  : -3427.5329600 Eh     change    :  -0.3653261E-05 Eh
   gradient norm :     0.0024950 Eh/a0  converged?    E=T G=F D=F
   time step     :     0.2435896 fs     power     :   0.1734294E-09
   step length   :     0.0017091 a0     speed     :   0.1697127E-03

........................................................................
.............................. CYCLE   19 ..............................
........................................................................

 iter      E             dE          RMSdq      gap      omega  full diag
   1  -3478.8433803 -0.347884E+04  0.217E-04   11.47       0.0  T
   2  -3478.8433803 -0.552291E-08  0.128E-04   11.47      13.7  T
   3  -3478.8433803 -0.211912E-09  0.192E-05   11.47      91.0  T
     SCC iter.                  ...        2 min, 57.455 sec
     gradient                   ...        3 min, 39.553 sec
 * total energy  : -3427.5329636 Eh     change    :  -0.3525148E-05 Eh
   gradient norm :     0.0024953 Eh/a0  converged?    E=T G=F D=F
   time step     :     0.2679486 fs     power     :   0.1507340E-09
   step length   :     0.0019736 a0     speed     :   0.1781644E-03

........................................................................
.............................. CYCLE   20 ..............................
........................................................................

 iter      E             dE          RMSdq      gap      omega  full diag
   1  -3478.8429254 -0.347884E+04  0.235E-04   11.47       0.0  T
   2  -3478.8429254 -0.424734E-08  0.139E-04   11.47      12.6  T
   3  -3478.8429254 -0.138698E-09  0.166E-05   11.47     105.3  T
     SCC iter.                  ...        2 min, 59.619 sec
     gradient                   ...        3 min, 39.911 sec
 * total energy  : -3427.5329671 Eh     change    :  -0.3582772E-05 Eh
   gradient norm :     0.0025893 Eh/a0  converged?    E=T G=F D=F
   time step     :     0.2947435 fs     power     :   0.1403743E-09
   step length   :     0.0022415 a0     speed     :   0.1839563E-03
 * RMSD in coord.:     0.0005686 a0     energy gain  -0.3023525E-03 Eh

........................................................................
.............................. CYCLE   21 ..............................
........................................................................

 iter      E             dE          RMSdq      gap      omega  full diag
   1  -3478.8430147 -0.347884E+04  0.193E-04   11.47       0.0  T
   2  -3478.8430147 -0.172122E-08  0.114E-04   11.47      15.4  T
   3  -3478.8430147 -0.163709E-10  0.111E-05   11.47     157.9  T
     SCC iter.                  ...        3 min,  4.555 sec
     gradient                   ...        3 min, 39.906 sec
 * total energy  : -3427.5329702 Eh     change    :  -0.3020287E-05 Eh
   gradient norm :     0.0026220 Eh/a0  converged?    E=T G=F D=F
   time step     :     0.2500000 fs     power     :   0.1469764E-09
   step length   :     0.0019166 a0     speed     :   0.1854404E-03

........................................................................
.............................. CYCLE   22 ..............................
........................................................................

 iter      E             dE          RMSdq      gap      omega  full diag
   1  -3478.8435712 -0.347884E+04  0.188E-04   11.47       0.0  T
   2  -3478.8435712 -0.139744E-08  0.110E-04   11.47      15.9  T
   3  -3478.8435712 -0.773070E-10  0.108E-05   11.47     161.7  T
     SCC iter.                  ...        3 min,  4.334 sec
     gradient                   ...        3 min, 38.633 sec
 * total energy  : -3427.5329733 Eh     change    :  -0.3188219E-05 Eh
   gradient norm :     0.0025389 Eh/a0  converged?    E=T G=F D=F
   time step     :     0.2500000 fs     power     :   0.1582345E-09
   step length   :     0.0019368 a0     speed     :   0.1873917E-03

........................................................................
.............................. CYCLE   23 ..............................
........................................................................

 iter      E             dE          RMSdq      gap      omega  full diag
   1  -3478.8445521 -0.347884E+04  0.188E-04   11.47       0.0  T
   2  -3478.8445521 -0.195450E-08  0.109E-04   11.47      16.0  T
   3  -3478.8445521  0.591172E-11  0.119E-05   11.47     147.1  T
     SCC iter.                  ...        2 min, 57.313 sec
     gradient                   ...        3 min, 39.702 sec
 * total energy  : -3427.5329767 Eh     change    :  -0.3327752E-05 Eh
   gradient norm :     0.0023256 Eh/a0  converged?    E=T G=F D=F
   time step     :     0.2500000 fs     power     :   0.1654748E-09
   step length   :     0.0019696 a0     speed     :   0.1905713E-03

........................................................................
.............................. CYCLE   24 ..............................
........................................................................

 iter      E             dE          RMSdq      gap      omega  full diag
   1  -3478.8458880 -0.347885E+04  0.190E-04   11.47       0.0  T
   2  -3478.8458880 -0.277714E-08  0.110E-04   11.47      15.9  T
   3  -3478.8458880 -0.582077E-10  0.138E-05   11.47     126.5  T
     SCC iter.                  ...        3 min,  6.507 sec
     gradient                   ...        3 min, 39.785 sec
 * total energy  : -3427.5329800 Eh     change    :  -0.3297984E-05 Eh
   gradient norm :     0.0020047 Eh/a0  converged?    E=T G=F D=F
   time step     :     0.2500000 fs     power     :   0.1621873E-09
   step length   :     0.0020143 a0     speed     :   0.1948958E-03

........................................................................
.............................. CYCLE   25 ..............................
........................................................................

 iter      E             dE          RMSdq      gap      omega  full diag
   1  -3478.8474831 -0.347885E+04  0.194E-04   11.47       0.0  T
   2  -3478.8474831 -0.380260E-08  0.111E-04   11.47      15.7  T
   3  -3478.8474831 -0.450200E-10  0.160E-05   11.47     109.2  T
     SCC iter.                  ...        2 min, 57.151 sec
     gradient                   ...        3 min, 38.576 sec
 * total energy  : -3427.5329830 Eh     change    :  -0.3068842E-05 Eh
   gradient norm :     0.0016382 Eh/a0  converged?    E=T G=F D=F
   time step     :     0.2500000 fs     power     :   0.1458944E-09
   step length   :     0.0020647 a0     speed     :   0.1997756E-03

........................................................................
.............................. CYCLE   26 ..............................
........................................................................

 iter      E             dE          RMSdq      gap      omega  full diag
   1  -3478.8493877 -0.347885E+04  0.214E-04   11.47       0.0  T
   2  -3478.8493878 -0.572300E-08  0.123E-04   11.47      14.3  T
   3  -3478.8493878 -0.204182E-09  0.195E-05   11.47      89.7  T
     SCC iter.                  ...        2 min, 57.122 sec
     gradient                   ...        3 min, 38.993 sec
 * total energy  : -3427.5329859 Eh     change    :  -0.2844871E-05 Eh
   gradient norm :     0.0013240 Eh/a0  converged?    E=T G=F D=F
   time step     :     0.2750000 fs     power     :   0.1159447E-09
   step length   :     0.0023317 a0     speed     :   0.2050911E-03

........................................................................
.............................. CYCLE   27 ..............................
........................................................................

 iter      E             dE          RMSdq      gap      omega  full diag
   1  -3478.8513865 -0.347885E+04  0.228E-04   11.47       0.0  T
   2  -3478.8513865 -0.642513E-08  0.131E-04   11.47      13.4  T
   3  -3478.8513865 -0.221462E-09  0.206E-05   11.47      84.9  T
     SCC iter.                  ...        2 min, 58.611 sec
     gradient                   ...        3 min, 40.093 sec
 * total energy  : -3427.5329882 Eh     change    :  -0.2361663E-05 Eh
   gradient norm :     0.0012933 Eh/a0  converged?    E=T G=F D=F
   time step     :     0.3025000 fs     power     :   0.8128450E-10
   step length   :     0.0026072 a0     speed     :   0.2084788E-03

........................................................................
.............................. CYCLE   28 ..............................
........................................................................

 iter      E             dE          RMSdq      gap      omega  full diag
   1  -3478.8531028 -0.347885E+04  0.227E-04   11.47       0.0  T
   2  -3478.8531028 -0.482669E-08  0.130E-04   11.47      13.5  T
   3  -3478.8531028 -0.155069E-09  0.174E-05   11.47     100.6  T
     SCC iter.                  ...        3 min,  1.583 sec
     gradient                   ...        3 min, 39.194 sec
 * total energy  : -3427.5329902 Eh     change    :  -0.1932950E-05 Eh
   gradient norm :     0.0015292 Eh/a0  converged?    E=T G=F D=F
   time step     :     0.3327500 fs     power     :   0.5942549E-10
   step length   :     0.0028364 a0     speed     :   0.2061873E-03

........................................................................
.............................. CYCLE   29 ..............................
........................................................................

 iter      E             dE          RMSdq      gap      omega  full diag
   1  -3478.8542073 -0.347885E+04  0.214E-04   11.47       0.0  T
   2  -3478.8542073 -0.232785E-08  0.124E-04   11.47      14.2  T
   3  -3478.8542073 -0.759428E-10  0.118E-05   11.47     148.5  T
     SCC iter.                  ...        2 min, 57.428 sec
     gradient                   ...        3 min, 39.286 sec
 * total energy  : -3427.5329921 Eh     change    :  -0.1915690E-05 Eh
   gradient norm :     0.0017389 Eh/a0  converged?    E=T G=F D=F
   time step     :     0.3660250 fs     power     :   0.5858125E-10
   step length   :     0.0030232 a0     speed     :   0.1997899E-03

........................................................................
.............................. CYCLE   30 ..............................
........................................................................

 iter      E             dE          RMSdq      gap      omega  full diag
   1  -3478.8544918 -0.347885E+04  0.203E-04   11.47       0.0  T
   2  -3478.8544918 -0.108275E-08  0.119E-04   11.47      14.8  T
   3  -3478.8544918 -0.206455E-09  0.895E-06   11.47     195.8  T
     SCC iter.                  ...        3 min,  0.235 sec
     gradient                   ...        3 min, 38.835 sec
 * total energy  : -3427.5329945 Eh     change    :  -0.2375710E-05 Eh
   gradient norm :     0.0017358 Eh/a0  converged?    E=T G=F D=F
   time step     :     0.4026275 fs     power     :   0.7046815E-10
   step length   :     0.0032336 a0     speed     :   0.1942658E-03

........................................................................
.............................. CYCLE   31 ..............................
........................................................................

 iter      E             dE          RMSdq      gap      omega  full diag
   1  -3478.8538741 -0.347885E+04  0.204E-04   11.47       0.0  T
   2  -3478.8538741 -0.265027E-08  0.120E-04   11.47      14.6  T
   3  -3478.8538741 -0.148248E-09  0.117E-05   11.47     149.3  T
     SCC iter.                  ...        2 min, 53.065 sec
     gradient                   ...        3 min, 40.152 sec
 * total energy  : -3427.5329974 Eh     change    :  -0.2943904E-05 Eh
   gradient norm :     0.0014976 Eh/a0  converged?    E=T G=F D=F
   time step     :     0.4428903 fs     power     :   0.7838232E-10
   step length   :     0.0035220 a0     speed     :   0.1923577E-03

........................................................................
.............................. CYCLE   32 ..............................
........................................................................

 iter      E             dE          RMSdq      gap      omega  full diag
   1  -3478.8524868 -0.347885E+04  0.213E-04   11.47       0.0  T
   2  -3478.8524868 -0.631235E-08  0.126E-04   11.47      13.9  T
   3  -3478.8524868 -0.201908E-09  0.190E-05   11.47      92.4  T
     SCC iter.                  ...        3 min,  2.252 sec
     gradient                   ...        3 min, 39.210 sec
 * total energy  : -3427.5330006 Eh     change    :  -0.3143654E-05 Eh
   gradient norm :     0.0012372 Eh/a0  converged?    E=T G=F D=F
   time step     :     0.4871793 fs     power     :   0.7032177E-10
   step length   :     0.0039030 a0     speed     :   0.1937879E-03

........................................................................
.............................. CYCLE   33 ..............................
........................................................................

 iter      E             dE          RMSdq      gap      omega  full diag
   1  -3478.8508853 -0.347885E+04  0.210E-04   11.47       0.0  T
   2  -3478.8508853 -0.767022E-08  0.125E-04   11.47      14.1  T
   3  -3478.8508853 -0.300133E-09  0.216E-05   11.47      81.2  T
     SCC iter.                  ...        2 min, 57.557 sec
     gradient                   ...        3 min, 38.596 sec
 * total energy  : -3427.5330034 Eh     change    :  -0.2873003E-05 Eh
   gradient norm :     0.0013369 Eh/a0  converged?    E=T G=F D=F
   time step     :     0.5358972 fs     power     :   0.5573282E-10
   step length   :     0.0043298 a0     speed     :   0.1954342E-03

........................................................................
.............................. CYCLE   34 ..............................
........................................................................

 iter      E             dE          RMSdq      gap      omega  full diag
   1  -3478.8499762 -0.347885E+04  0.191E-04   11.47       0.0  T
   2  -3478.8499762 -0.332784E-08  0.113E-04   11.47      15.5  T
   3  -3478.8499762 -0.945874E-10  0.119E-05   11.47     147.4  T
     SCC iter.                  ...        3 min,  2.186 sec
     gradient                   ...        3 min, 39.046 sec
 * total energy  : -3427.5330065 Eh     change    :  -0.3023068E-05 Eh
   gradient norm :     0.0015596 Eh/a0  converged?    E=T G=F D=F
   time step     :     0.5894869 fs     power     :   0.5856203E-10
   step length   :     0.0047327 a0     speed     :   0.1942008E-03

........................................................................
.............................. CYCLE   35 ..............................
........................................................................

 iter      E             dE          RMSdq      gap      omega  full diag
   1  -3478.8504133 -0.347885E+04  0.203E-04   11.47       0.0  T
   2  -3478.8504133 -0.989075E-09  0.119E-04   11.47      14.7  T
   3  -3478.8504133 -0.146883E-09  0.725E-06   11.47     241.7  T
     SCC iter.                  ...        2 min, 56.165 sec
     gradient                   ...        3 min, 38.850 sec
 * total energy  : -3427.5330105 Eh     change    :  -0.4005909E-05 Eh
   gradient norm :     0.0014566 Eh/a0  converged?    E=T G=F D=F
   time step     :     0.6484356 fs     power     :   0.7502245E-10
   step length   :     0.0052155 a0     speed     :   0.1945571E-03

........................................................................
.............................. CYCLE   36 ..............................
........................................................................

 iter      E             dE          RMSdq      gap      omega  full diag
   1  -3478.8523222 -0.347885E+04  0.262E-04   11.47       0.0  T
   2  -3478.8523222 -0.725595E-08  0.152E-04   11.47      11.6  T
   3  -3478.8523222 -0.250566E-09  0.217E-05   11.47      80.7  T
     SCC iter.                  ...        3 min,  0.020 sec
     gradient                   ...        3 min, 39.544 sec
 * total energy  : -3427.5330152 Eh     change    :  -0.4772134E-05 Eh
   gradient norm :     0.0011086 Eh/a0  converged?    E=T G=F D=F
   time step     :     0.7132792 fs     power     :   0.7609067E-10
   step length   :     0.0059005 a0     speed     :   0.2000974E-03

........................................................................
.............................. CYCLE   37 ..............................
........................................................................

 iter      E             dE          RMSdq      gap      omega  full diag
   1  -3478.8547882 -0.347885E+04  0.294E-04   11.47       0.0  T
   2  -3478.8547882 -0.123600E-07  0.170E-04   11.47      10.3  T
   3  -3478.8547882 -0.365162E-09  0.297E-05   11.47      58.9  T
     SCC iter.                  ...        3 min,  3.216 sec
     gradient                   ...        3 min, 41.648 sec
 * total energy  : -3427.5330198 Eh     change    :  -0.4544468E-05 Eh
   gradient norm :     0.0012242 Eh/a0  converged?    E=T G=F D=F
   time step     :     0.7846071 fs     power     :   0.6085622E-10
   step length   :     0.0067405 a0     speed     :   0.2078057E-03

........................................................................
.............................. CYCLE   38 ..............................
........................................................................

 iter      E             dE          RMSdq      gap      omega  full diag
   1  -3478.8559108 -0.347886E+04  0.261E-04   11.47       0.0  T
   2  -3478.8559108 -0.567798E-08  0.153E-04   11.47      11.4  T
   3  -3478.8559108 -0.267846E-09  0.210E-05   11.47      83.6  T
     SCC iter.                  ...        2 min, 59.557 sec
     gradient                   ...        3 min, 39.672 sec
 * total energy  : -3427.5330247 Eh     change    :  -0.4914993E-05 Eh
   gradient norm :     0.0013380 Eh/a0  converged?    E=T G=F D=F
   time step     :     0.8630678 fs     power     :   0.6698916E-10
   step length   :     0.0075406 a0     speed     :   0.2113373E-03

........................................................................
.............................. CYCLE   39 ..............................
........................................................................

 iter      E             dE          RMSdq      gap      omega  full diag
   1  -3478.8549006 -0.347885E+04  0.287E-04   11.47       0.0  T
   2  -3478.8549007 -0.907721E-08  0.167E-04   11.47      10.5  T
   3  -3478.8549007 -0.430191E-09  0.275E-05   11.47      63.8  T
     SCC iter.                  ...        3 min,  4.469 sec
     gradient                   ...        3 min, 39.860 sec
 * total energy  : -3427.5330307 Eh     change    :  -0.6026351E-05 Eh
   gradient norm :     0.0010371 Eh/a0  converged?    E=F G=F D=F
   time step     :     0.9493746 fs     power     :   0.7156206E-10
   step length   :     0.0085356 a0     speed     :   0.2174769E-03

........................................................................
.............................. CYCLE   40 ..............................
........................................................................

 iter      E             dE          RMSdq      gap      omega  full diag
   1  -3478.8533381 -0.347885E+04  0.317E-04   11.47       0.0  T
   2  -3478.8533381 -0.106616E-07  0.184E-04   11.47       9.5  T
   3  -3478.8533381 -0.435648E-09  0.262E-05   11.47      66.8  T
     SCC iter.                  ...        2 min, 56.463 sec
     gradient                   ...        3 min, 39.761 sec
 * total energy  : -3427.5330367 Eh     change    :  -0.5983250E-05 Eh
   gradient norm :     0.0012545 Eh/a0  converged?    E=F G=F D=F
   time step     :     1.0443120 fs     power     :   0.6151178E-10
   step length   :     0.0097791 a0     speed     :   0.2265087E-03

........................................................................
.............................. CYCLE   41 ..............................
........................................................................

 iter      E             dE          RMSdq      gap      omega  full diag
   1  -3478.8542521 -0.347885E+04  0.329E-04   11.47       0.0  T
   2  -3478.8542521 -0.473210E-08  0.192E-04   11.47       9.1  T
   3  -3478.8542521 -0.369255E-09  0.133E-05   11.47     131.8  T
     SCC iter.                  ...        2 min, 56.968 sec
     gradient                   ...        3 min, 40.915 sec
 * total energy  : -3427.5330440 Eh     change    :  -0.7286111E-05 Eh
   gradient norm :     0.0011214 Eh/a0  converged?    E=F G=F D=F
   time step     :     1.1487432 fs     power     :   0.7567431E-10
   step length   :     0.0110465 a0     speed     :   0.2326036E-03

........................................................................
.............................. CYCLE   42 ..............................
........................................................................

 iter      E             dE          RMSdq      gap      omega  full diag
   1  -3478.8567683 -0.347886E+04  0.402E-04   11.47       0.0  T
   2  -3478.8567683 -0.189234E-07  0.234E-04   11.47       7.5  T
   3  -3478.8567683 -0.670752E-09  0.327E-05   11.47      53.6  T
     SCC iter.                  ...        3 min,  4.627 sec
     gradient                   ...        3 min, 39.645 sec
 * total energy  : -3427.5330520 Eh     change    :  -0.7976364E-05 Eh
   gradient norm :     0.0011672 Eh/a0  converged?    E=F G=F D=F
   time step     :     1.2500000 fs     power     :   0.6815132E-10
   step length   :     0.0126115 a0     speed     :   0.2440456E-03
 * RMSD in coord.:     0.0016283 a0     energy gain  -0.8482718E-04 Eh

........................................................................
.............................. CYCLE   43 ..............................
........................................................................

 iter      E             dE          RMSdq      gap      omega  full diag
   1  -3478.8568421 -0.347886E+04  0.624E-05   11.47       0.0  T
   2  -3478.8568421 -0.120508E-09  0.367E-05   11.47      47.8  T
   3  -3478.8568421 -0.268301E-10  0.219E-06   11.47     799.4  T
     SCC iter.                  ...        3 min, 12.033 sec
     gradient                   ...        3 min, 39.947 sec
 * total energy  : -3427.5330535 Eh     change    :  -0.1521532E-05 Eh
   gradient norm :     0.0011904 Eh/a0  converged?    E=T G=F D=F
   time step     :     0.2500000 fs     power     :   0.7845686E-10
   step length   :     0.0024271 a0     speed     :   0.2348361E-03

........................................................................
.............................. CYCLE   44 ..............................
........................................................................

 iter      E             dE          RMSdq      gap      omega  full diag
   1  -3478.8565249 -0.347886E+04  0.605E-05   11.47       0.0  T
   2  -3478.8565249 -0.208729E-09  0.353E-05   11.47      49.7  T
   3  -3478.8565249 -0.195541E-10  0.423E-06   11.47     414.2  T
     SCC iter.                  ...        3 min,  0.734 sec
     gradient                   ...        3 min, 46.351 sec
 * total energy  : -3427.5330552 Eh     change    :  -0.1679313E-05 Eh
   gradient norm :     0.0011084 Eh/a0  converged?    E=T G=F D=F
   time step     :     0.2500000 fs     power     :   0.8708620E-10
   step length   :     0.0023596 a0     speed     :   0.2283023E-03

........................................................................
.............................. CYCLE   45 ..............................
........................................................................

 iter      E             dE          RMSdq      gap      omega  full diag
   1  -3478.8559008 -0.347886E+04  0.695E-05   11.47       0.0  T
   2  -3478.8559008 -0.798536E-09  0.403E-05   11.47      43.4  T
   3  -3478.8559008 -0.500222E-11  0.759E-06   11.47     230.8  T
     SCC iter.                  ...        3 min,  0.485 sec
     gradient                   ...        3 min, 40.735 sec
 * total energy  : -3427.5330569 Eh     change    :  -0.1754174E-05 Eh
   gradient norm :     0.0009705 Eh/a0  converged?    E=T G=T D=F
   time step     :     0.2500000 fs     power     :   0.8980247E-10
   step length   :     0.0023242 a0     speed     :   0.2248823E-03

   *** GEOMETRY OPTIMIZATION CONVERGED AFTER 45 CYCLES ***

------------------------------------------------------------------------
 total energy gain   :        -0.0003921 Eh       -0.2461 kcal/mol
 total RMSD          :         0.0019810 a0        0.0010 Å
 total power (kW/mol):        -0.0228789 (step)   -0.0001 (real)
------------------------------------------------------------------------

 FIRE (total)                  0 d,  5 h, 13 min, 45.442 sec
 setup                          ...        0 min,  0.116 sec (  0.001%)
 velocities                     ...        0 min,  0.003 sec (  0.000%)
 propagation                    ...        0 min,  0.004 sec (  0.000%)
 singlepoint calculation        ...      313 min, 44.578 sec ( 99.995%)
 log and printout               ...        0 min,  0.686 sec (  0.004%)
 preconditioner                 ...        0 min,  0.000 sec (  0.000%)
 model hessian                  ...        0 min,  0.000 sec (  0.000%)
 hessian update                 ...        0 min,  0.000 sec (  0.000%)

================
 final structure:
================
3258
 xtb: 6.6.1 (8d0f1dd)
C           96.36237612025113      108.58234385334913      120.58984759510892
C           97.26063954987305      107.38284119476883      120.31274600037682
C           97.80088509674657      107.35159394534814      118.88318826955862
C           96.72343326784333      107.10204335884410      117.83018438305821
C           97.31735010964913      106.96143093242625      116.43052070355515
C           96.25080220132246      106.66163297377129      115.38084164556953
C           96.84655483099536      106.42711472636874      113.99469373250011
C           95.77706458649905      106.02054811113230      112.98371454181179
C           96.34455770509713      105.66345908746135      111.60851432201764
C           96.67003005957071      106.88702627016409      110.75486107847185
C           97.38637943975682      106.53287614814576      109.45092279824617
C           96.59186170467822      105.58375940969216      108.55507263481260
C           97.25194434357685      105.40854513190720      107.18789579627126
C           96.68133466554623      104.23675490108317      106.38732051482920
C           95.26631441273821      104.47254039665141      105.86153051700556
C           94.60633294116172      103.20129884513454      105.32002412217537
C           95.32560005921586      102.58445749179609      104.12106122806769
C           94.55820393914340      101.39022991001198      103.55572439495914
C           95.29599914752204      100.66200026396339      102.42868536031635
C           96.52452472872697       99.89544033251678      102.92036875028157
C           97.06481673976273       98.88412766262823      101.90693639166339
C           97.77505802136888       99.52310588310243      100.71443111447324
C           98.33821930441651       98.46149820323534       99.76835518000512
C           99.22313878925208       99.02758656270362       98.65646740415349
C           98.46877257732551       99.89464170902232       97.65197192950176
C           99.39242398095628      100.44667587836391       96.56756616525769
C           98.68749492458065      101.48020004246361       95.69207605706455
C           99.63078207892899      102.14027996710283       94.68721299038901
C           99.04904749900277      103.42741801444231       94.10312655718883
C          100.01782491408606      104.09662145038710       93.12960981835832
C           99.59522008568557      105.50814170868136       92.71508314233142
C           99.84794079382033      106.55443609949695       93.80053230624962
C           99.57853801813282      107.97434313322299       93.30392327573703
C           99.87669344466923      109.02699975128922       94.37023317662117
C           99.66002247864876      110.45233401387753       93.86311394966526
C           99.96644114421670      111.49067436023965       94.94036874998834
C           99.72519925999697      112.92698990763517       94.47811458900357
C          100.00021306584236      113.92900173618995       95.59924745076825
C           99.65851656715532      115.36536240139961       95.20599343188253
C           99.84198315132645      116.37288660073405       96.34664771169369
C          101.30744926231942      116.69195186953009       96.63846207515573
C          101.50711145755491      117.80672104037602       97.66884935202303
C          101.14452881770754      117.39634815226144       99.09650320662823
C          101.55809460642152      118.43010667453373      100.14775018758155
C          100.74550706073251      119.72072427782192      100.07161738598280
C          101.15697462527022      120.74952490812097      101.12485055452733
C          100.37277560674730      122.04868552425043      100.94828778427575
C          100.82238596111618      123.19162395233732      101.85961961006950
C          100.40898622535626      123.02532368282093      103.32159942802636
C          100.65237535792942      124.30468583247729      104.12183373995282
C          100.04126081633375      124.26355358071424      105.52268506821160
C          100.12240101501028      125.63101444962606      106.20119695114407
C           99.30737024181408      125.74085852867802      107.49185395982239
C           99.95000796453303      125.05750228817483      108.69718241800925
C           99.14563544950548      125.31156468453197      109.97390729778589
C           99.89504500919692      124.92351113510776      111.24980923237301
C           99.98971371319359      123.41408961539395      111.48260833250629
C           98.74691153126530      122.85556841946422      112.17296304408406
C           98.79492460875643      121.33794231071856      112.35496701720517
C           98.56794214265476      120.58596002047530      111.04698255255730
C           98.57333527445418      119.06977878865905      111.22497360091467
C           98.31602044963415      118.37205150521531      109.89283378339942
C           98.40501730892463      116.85200330180615      109.97315468829271
C           98.21106742070268      116.20878350039533      108.60184862310003
C           98.24980240697153      114.68596151616839      108.66939844585654
C           98.11011320124055      114.03745080124813      107.29478179506316
C           98.15565215767185      112.51557825194610      107.39851143962485
C           98.14832007742110      111.80444720195710      106.04758432715531
C           96.83591916306440      111.94073368074640      105.27840049098225
C           96.83944937028272      111.04310117157142      104.04410514458020
C           95.56503795819445      111.16613005788533      103.21191405661583
C           95.48353759057227      110.11549121799047      102.10251086702245
C           96.55538056320290      110.29471416621998      101.02997454230041
C           96.54325507215535      109.16106838186472      100.00785612709110
C           97.63166291619677      109.30361740412170       98.94284309966271
C           99.05290473300245      109.19832571335505       99.49441789240389
C          100.09228253114685      109.33376043642373       98.38523341557166
C          101.51959372512091      109.38630939247514       98.92134049369568
C          102.53511491218241      109.62972706508552       97.80802724379986
C          103.94964444941571      109.81030997508957       98.34977815823527
C          104.95430860706098      110.14467096827947       97.25202638300728
C          106.33227470119201      110.49208701473516       97.80811638292560
C          107.31133959166240      110.87279011684720       96.70053894199492
C          108.67474673385598      111.32277499089446       97.22531366218233
C          108.63650357172938      112.68754428128389       97.90997956284103
C          110.03217022753861      113.17603701561779       98.28759077528159
C          109.99918005346899      114.52962588162669       98.99191978740021
C          111.39805165812082      115.03186685122149       99.33812629100744
C          111.36636137219023      116.37553938624519      100.06075500059062
C          112.76266568896686      116.87303243039909      100.42530397011670
C          112.71734976087038      118.21366795122090      101.15297899466961
C          114.09913304883037      118.70302511626161      101.58035781693427
C          114.01144712509465      120.02865377529125      102.33183572934171
C          115.36388465162581      120.53292065620874      102.83051809934661
C          115.22887894657821      121.88361048521173      103.53045552877711
C          116.56762470234685      122.47132353508088      103.97055639093232
C          116.39777029480588      123.90319938673781      104.47458427596493
C          117.68522261609336      124.54629297217974      104.99376232455461
C          118.84758484302547      124.55138878961547      103.99817093883956
C          118.49697191678726      125.20116291226772      102.66079444972478
C          119.70199451614288      125.36657917230596      101.73262896433224
C          120.41046183401917      124.04401982349410      101.43622731587396
C          121.31710570808585      124.11254744117264      100.20323576276391
C          120.57971403013276      123.89890980234343       98.87793661858549
C          120.10624155804449      122.45705711011406       98.70585905910644
C          119.50423290717292      122.16876682993298       97.33151544219392
C          118.93579929627030      120.75243416827179       97.29023864704190
C          118.36896131619392      120.34340949450423       95.93330535134798
C          117.72959797869552      118.95952570316157       96.02321049117836
C          117.10287929980215      118.47935917337112       94.71685471350553
C          116.41393075526850      117.13114933861407       94.91504612356485
C          115.81037025854950      116.56127670203928       93.63493611186527
C          115.16325643546979      115.20318691002042       93.89532035033682
C          114.56924369692655      114.57205834783336       92.63951364214049
C          113.98519973982685      113.19240825070480       92.93329351654316
C          113.38170037938399      112.53453150836586       91.69559657320346
C          112.81571297009673      111.15117705308400       92.00746946258333
C          112.23786486577099      110.47750649465708       90.76510322678224
C          111.56751729598153      109.13581929754923       91.06041208954196
C          112.54640909782823      108.05536256429133       91.50318825845859
H          110.81175244762871      109.27694378322937       91.83493534935546
H          111.05559874889475      108.79659976340184       90.15627923013459
H          111.49847503315375      111.14610947233449       90.31537357570781
H          113.03302900955191      110.32979257441079       90.03035969024253
H          113.61028646013473      110.53215162506311       92.42673789280317
H          112.03355262566272      111.24481989355519       92.76419693165113
H          112.58767840070303      113.17101485589504       91.29629482456697
H          114.14872674623126      112.44570540344887       90.92242689884647
H          114.77294060290259      112.54932783018006       93.33283899975262
H          113.21662533271245      113.28445141247747       93.70351395628568
H          113.78745872478365      115.22181291000767       92.23813847234238
H          115.34488526987879      114.48248477923073       91.87507676529724
H          115.91216750841510      114.52607062331091       94.31292808508351
H          114.37804328074580      115.31823970926563       94.64509155444519
H          115.06349594865657      117.25392950360674       93.23906917383947
H          116.59248563507032      116.45459231859704       92.87958450008618
H          117.13847187492314      116.41587615346305       95.30891999059023
H          115.62642031037306      117.23996227599723       95.66358336262435
H          116.37445214954217      119.21524680472729       94.36733254489098
H          117.87397620018788      118.38978605716869       93.94825714612337
H          118.48769552331331      118.23894423757450       96.34016864495267
H          116.95794163216490      118.97847465351914       96.79571573692985
H          117.62141285663056      121.07273821835064       95.61200749734425
H          119.16483654502673      120.33747816821534       95.18525362633807
H          119.72044525165362      120.04712275302427       97.56966098191867
H          118.14415789177113      120.67239513431315       98.03772058068667
H          118.70939559917214      122.88798931995700       97.11969749835350
H          120.26931162641144      122.28512610298453       96.56058036485277
H          120.95140012838542      121.78372509138295       98.87009724272639
H          119.35515039414359      122.22731764226089       99.46294145309373
H          119.72394315775647      124.57429075814355       98.81589128220921
H          121.25592099858018      124.14929768679956       98.05686548215397
H          121.81630290957101      125.08415090026064      100.18666302349051
H          122.09407906821014      123.34867203138603      100.28708833184234
H          121.01236001094212      123.76243338464383      102.30207234290573
H          119.66203202765901      123.26453592766386      101.28844378687167
H          119.35339391765953      125.80691665125130      100.79546543109062
H          120.41541325876882      126.06500250513578      102.17665718046437
H          117.74741256742892      124.59508708101558      102.14929668395587
H          118.05679075553469      126.18417594639351      102.84689223233629
H          119.68326884903328      125.09378942090811      104.44853875975541
H          119.17821543693594      123.52596228152660      103.82960455253674
H          117.45778540627754      125.57606802037245      105.27979775906566
H          118.00585450636230      124.02062087112365      105.89686643286279
H          115.98782267672112      124.51764546973584      103.67022693800405
H          115.66512949435651      123.90454236116172      105.28736547965039
H          117.00163013518464      121.85497039463969      104.75948672195985
H          117.25238532257254      122.45791563024278      103.12133662582474
H          114.74646146945221      122.58459461754373      102.84685282813521
H          114.57333158615751      121.78090093317257      104.39858418519520
H          115.79890921659754      119.80412844708199      103.51761947821429
H          116.04820403004068      120.63104402110199      101.98440576794978
H          113.57404301520931      120.77978291335774      101.67145541706853
H          113.33838993184844      119.91139009033027      103.18482750412885
H          114.56642509258604      117.94985069955219      102.22004384835063
H          114.73232131635221      118.82470331186364      100.69919300582319
H          112.26037646933786      118.96076180226119      100.49974206437595
H          112.08544157723978      118.11646073373855      102.03964990393484
H          113.24914823549054      116.13153026960275      101.06463445113505
H          113.36224626224612      116.97210321540945       99.51841668178290
H          110.87668742841660      117.11495517521641       99.42224252019302
H          110.77252608324730      116.27909320278010      100.97305777109345
H          111.89329430037296      114.29362782274903       99.97334191860614
H          111.98407884294296      115.12779642092590       98.42215272679815
H          109.50354444765362      115.25891032821335       98.34586538095276
H          109.40950494793867      114.44649260371185       99.90833892809918
H          110.50249093447981      112.44115142423914       98.94482115118143
H          110.64286247916452      113.25466774100964       97.38590025587578
H          108.17206025678291      113.41233229689394       97.23601402420799
H          108.02348408726945      112.63460998710516       98.81178309852963
H          109.05635394890587      110.57740909057182       97.92725749428091
H          109.37193418288449      111.37519601154418       96.38601448517913
H          107.44921866449027      110.01200279197815       96.04197093757755
H          106.87821726529388      111.67841703330033       96.10203924748448
H          106.22850763157849      111.32449880410610       98.50540975222573
H          106.73121624816835      109.63800249492101       98.36146346965982
H          105.03876149644957      109.29694000914536       96.57024301612942
H          104.58388624696434      110.99571722985817       96.67696444335125
H          103.94563262547550      110.61404664851888       99.08836797139901
H          104.25930670060023      108.89572618125428       98.85734993194455
H          102.51355999756331      108.79202886362947       97.10849490326591
H          102.24779741862369      110.52757387669560       97.25451633955903
H          101.59422944079382      110.19139775997434       99.65595953619859
H          101.75716621390958      108.44980145189872       99.43030726065257
H           99.99749000429233      108.49895296370403       97.68850973964078
H           99.89357492813387      110.25218809480920       97.82828261887026
H           99.22473917741419      109.98687071085567      100.22803491922222
H           99.17913974274261      108.23989854884668      100.00255765051631
H           97.48976342901732      108.52402599803636       98.18981798262703
H           97.51463375152728      110.26806851536882       98.44167327367526
H           96.66951799459916      108.20946009302814      100.52848242440281
H           95.56811786926322      109.13598944861941       99.51483760696858
H           96.39907075394801      111.24654785368776      100.51655468341934
H           97.53365587399178      110.32973047028537      101.50758292851259
H           95.58562949459855      109.12263435471824      102.54788289969422
H           94.49766181519855      110.16537033585041      101.63381591683947
H           94.70114245035015      111.04587725977457      103.87045618175276
H           95.50963622003886      112.16560580896198      102.77419726744392
H           97.70333445868427      111.30620365183358      103.43188022330483
H           96.95834328844373      110.00378987011806      104.36053680657126
H           96.00194984441973      111.66496046189218      105.92834978335839
H           96.69076439571072      112.97741450867092      104.96985214691942
H           98.96371226285827      112.19222823446444      105.43334160325132
H           98.33950973719060      110.74112082267537      106.21715969690774
H           99.06668781288663      112.23416828375053      107.93183459600021
H           97.30703309495323      112.16917377997548      107.99363511521072
H           97.16875427715433      114.35203661402051      106.84114744943066
H           98.92224540019625      114.38103350260509      106.64879050939632
H           99.19423036497591      114.37083952725911      109.11800141598125
H           97.44383360248615      114.33403874208875      109.31758534989301
H           97.25267599871172      116.52861939963074      108.18524806773266
H           98.99648743068256      116.55868440379970      107.92646414065021
H           99.38310189753794      116.56602466047794      110.36853095748444
H           97.64590354172182      116.47704327296158      110.66295902574201
H           97.32776982568866      118.65634377339819      109.52346661673185
H           99.04992699595816      118.73042511271112      109.16791040758586
H           99.54174903349417      118.75384328554351      111.62241437024942
H           97.80672853537526      118.77954679067544      111.94709297133097
H           97.60799866574399      120.89071844903614      110.62274131018515
H           99.34483814433355      120.85575863990431      110.32914395532443
H           99.76220488121889      121.05616976042097      112.77719873665944
H           98.02251687664300      121.04040128482654      113.06896816490625
H           98.65648361611150      123.32759959183566      113.15472559986846
H           97.85604777807180      123.11872894316551      111.59898611802602
H          100.14726933874971      122.91032937089447      110.52948860095235
H          100.85470848996630      123.19949791692927      112.11341038118059
H          100.89881773912933      125.35073440952445      111.19666471102983
H           99.39743117055683      125.37901474568501      112.10960447338041
H           98.91403407574818      126.37860371421249      110.02577959781917
H           98.19681748424077      124.77439834793681      109.92214704632040
H          100.03413887676329      123.98625356153558      108.51056223863230
H          100.96010598033115      125.45262519695433      108.83001413939790
H           99.18280735604077      126.80095062141815      107.72891430010374
H           98.31062796363774      125.32539787247146      107.32547369090103
H          101.16708273371731      125.87364558722903      106.40926351624817
H           99.74726965297405      126.38056537054899      105.49931621085994
H           98.99172639246790      123.96979088932046      105.44173561381369
H          100.55236871314119      123.51239237054097      106.12578229063209
H          101.72613662914753      124.49287307489230      104.19737902677635
H          100.21164495015542      125.14343253275428      103.57612859228145
H           99.34575514778020      122.77656969343387      103.36339002170999
H          100.95936210274753      122.20020372222216      103.77591297566588
H          101.90719705708223      123.29993660883207      101.79288894686370
H          100.37913384765636      124.11787373893536      101.48427567165240
H          100.48694764257860      122.37559630261882       99.91118252252316
H           99.31022689701744      121.85413386471110      101.11369499716781
H          100.98726877859482      120.34159711819503      102.12301709987059
H          102.22535896922113      120.95742348065491      101.02932358184198
H          100.87090595854917      120.16792163689438       99.08384844845155
H           99.68509601777559      119.48506980726485      100.19415278162865
H          101.43454127231783      117.99208390004621      101.14182998172912
H          102.61886868652174      118.66354134033827      100.02514653327187
H          100.06909324624385      117.22601908782981       99.16997961562281
H          101.64719529029266      116.45383131092139       99.32345243774061
H          102.55948876305715      118.10412879522210       97.65156478072633
H          100.91499677301005      118.67297950625496       97.36893036614373
H          101.81499029635553      115.79159394696637       96.98807191617064
H          101.78560796042684      116.99747452113807       95.70441351720193
H           99.33437040029590      117.30205112386500       96.07551123651180
H           99.35920291359037      115.98424909977426       97.24551856730113
H          100.27487354653174      115.66676398884901       94.35564571099144
H           98.61513581129786      115.39415843633006       94.88143895145804
H           99.40456425214019      113.65085611856476       96.47206903530413
H          101.05265985791350      113.86216596574008       95.87940908297561
H          100.36772112606776      113.14981960300406       93.62329846708110
H           98.68860878190038      113.02872131195220       94.14754350795343
H           99.33801206916026      111.28997747289331       95.81174532617158
H          101.00787284501777      111.38321594341279       95.25238615827699
H          100.30025532345886      110.62905689596025       92.99560004620808
H           98.62385367347994      110.56569511978026       93.53552535994127
H           99.23470456481468      108.85465326619862       95.23751265353532
H          100.91231096867354      108.92000875518232       94.70102298419060
H          100.19784075814289      108.16916515027032       92.42454106807597
H           98.53432087614161      108.05818049771835       92.99336038391206
H           99.21567392345020      106.35176869582813       94.66708080893456
H          100.88854239730838      106.48252936454105       94.12515777735646
H          100.16066189705050      105.79340276309627       91.82387844664737
H           98.53710187447147      105.50828938476519       92.44385161565818
H          101.00737485090895      104.14710533363363       93.58882810322281
H          100.10277214273225      103.47210473659260       92.23673995007964
[...]
  3011   6 C     3012   6 C                                       1.5288876
  3012   6 C     3013   6 C                                       1.5271975
  3013   6 C     3014   6 C                                       1.5268543
  3014   6 C     3015   6 C                                       1.5265468
  3015   6 C     3016   6 C                                       1.5237958
  3015   6 C     3017   1 H                                       1.0923718
  3015   6 C     3018   1 H                                       1.0926568
  3014   6 C     3019   1 H                                       1.0932018
  3014   6 C     3020   1 H                                       1.0925908
  3013   6 C     3021   1 H                                       1.0913346
  3013   6 C     3022   1 H                                       1.0928140
  3012   6 C     3023   1 H                                       1.0930043
  3012   6 C     3024   1 H                                       1.0925318
  3011   6 C     3025   1 H                                       1.0924881
  3011   6 C     3026   1 H                                       1.0934892
  3010   6 C     3027   1 H                                       1.0913784
  3010   6 C     3028   1 H                                       1.0911395
  3009   6 C     3029   1 H                                       1.0928576
  3009   6 C     3030   1 H                                       1.0927378
  3008   6 C     3031   1 H                                       1.0927056
  3008   6 C     3032   1 H                                       1.0933064
  3007   6 C     3033   1 H                                       1.0914577
  3007   6 C     3034   1 H                                       1.0904989
  3006   6 C     3035   1 H                                       1.0929515
  3006   6 C     3036   1 H                                       1.0930549
  3005   6 C     3037   1 H                                       1.0926607
  3005   6 C     3038   1 H                                       1.0930057
  3004   6 C     3039   1 H                                       1.0934472
  3004   6 C     3040   1 H                                       1.0917933
  3003   6 C     3041   1 H                                       1.0932624
  3003   6 C     3042   1 H                                       1.0924882
  3002   6 C     3043   1 H                                       1.0926358
  3002   6 C     3044   1 H                                       1.0936480
  3001   6 C     3045   1 H                                       1.0935672
  3001   6 C     3046   1 H                                       1.0920846
  3000   6 C     3047   1 H                                       1.0928805
  3000   6 C     3048   1 H                                       1.0931532
  2999   6 C     3049   1 H                                       1.0930962
  2999   6 C     3050   1 H                                       1.0922176
  2998   6 C     3051   1 H                                       1.0933670
  2998   6 C     3052   1 H                                       1.0928353
  2997   6 C     3053   1 H                                       1.0916051
  2997   6 C     3054   1 H                                       1.0919554
  2996   6 C     3055   1 H                                       1.0933451
  2996   6 C     3056   1 H                                       1.0917961
  2995   6 C     3057   1 H                                       1.0918912
  2995   6 C     3058   1 H                                       1.0916132
  2994   6 C     3059   1 H                                       1.0930555
  2994   6 C     3060   1 H                                       1.0934004
  2993   6 C     3061   1 H                                       1.0921515
  2993   6 C     3062   1 H                                       1.0931252
  2992   6 C     3063   1 H                                       1.0921365
  2992   6 C     3064   1 H                                       1.0918123
  2991   6 C     3065   1 H                                       1.0919650
  2991   6 C     3066   1 H                                       1.0924181
  2990   6 C     3067   1 H                                       1.0927780
  2990   6 C     3068   1 H                                       1.0922540
  2989   6 C     3069   1 H                                       1.0913528
  2989   6 C     3070   1 H                                       1.0917738
  2988   6 C     3071   1 H                                       1.0932256
  2988   6 C     3072   1 H                                       1.0915692
  2987   6 C     3073   1 H                                       1.0915904
  2987   6 C     3074   1 H                                       1.0934702
  2986   6 C     3075   1 H                                       1.0896788
  2986   6 C     3076   1 H                                       1.0923035
  2985   6 C     3077   1 H                                       1.0919725
  2985   6 C     3078   1 H                                       1.0926283
  2984   6 C     3079   1 H                                       1.0924513
  2984   6 C     3080   1 H                                       1.0918512
  2983   6 C     3081   1 H                                       1.0920477
  2983   6 C     3082   1 H                                       1.0909968
  2982   6 C     3083   1 H                                       1.0926648
  2982   6 C     3084   1 H                                       1.0916643
  2981   6 C     3085   1 H                                       1.0928683
  2981   6 C     3086   1 H                                       1.0934134
  2980   6 C     3087   1 H                                       1.0931270
  2980   6 C     3088   1 H                                       1.0920039
  2979   6 C     3089   1 H                                       1.0896285
  2979   6 C     3090   1 H                                       1.0927945
  2978   6 C     3091   1 H                                       1.0928244
  2978   6 C     3092   1 H                                       1.0904590
  2977   6 C     3093   1 H                                       1.0933162
  2977   6 C     3094   1 H                                       1.0932600
  2976   6 C     3095   1 H                                       1.0914622
  2976   6 C     3096   1 H                                       1.0935150
  2975   6 C     3097   1 H                                       1.0925472
  2975   6 C     3098   1 H                                       1.0919822
  2974   6 C     3099   1 H                                       1.0927705
  2974   6 C     3100   1 H                                       1.0926523
  2973   6 C     3101   1 H                                       1.0926330
  2973   6 C     3102   1 H                                       1.0930051
  2972   6 C     3103   1 H                                       1.0919248
  2972   6 C     3104   1 H                                       1.0920523
  2971   6 C     3105   1 H                                       1.0927073
  2971   6 C     3106   1 H                                       1.0920111
  2970   6 C     3107   1 H                                       1.0918656
  2970   6 C     3108   1 H                                       1.0919654
  2969   6 C     3109   1 H                                       1.0931569
  2969   6 C     3110   1 H                                       1.0921073
  2968   6 C     3111   1 H                                       1.0922707
  2968   6 C     3112   1 H                                       1.0933850
  2967   6 C     3113   1 H                                       1.0926317
  2967   6 C     3114   1 H                                       1.0917377
  2966   6 C     3115   1 H                                       1.0921258
  2966   6 C     3116   1 H                                       1.0928516
  2965   6 C     3117   1 H                                       1.0929242
  2965   6 C     3118   1 H                                       1.0928146
  2964   6 C     3119   1 H                                       1.0920275
  2964   6 C     3120   1 H                                       1.0925690
  2963   6 C     3121   1 H                                       1.0929612
  2963   6 C     3122   1 H                                       1.0923913
  2962   6 C     3123   1 H                                       1.0922839
  2962   6 C     3124   1 H                                       1.0923196
  2961   6 C     3125   1 H                                       1.0917463
  2961   6 C     3126   1 H                                       1.0929475
  2960   6 C     3127   1 H                                       1.0932512
  2960   6 C     3128   1 H                                       1.0924646
  2959   6 C     3129   1 H                                       1.0916598
  2959   6 C     3130   1 H                                       1.0933115
  2958   6 C     3131   1 H                                       1.0926016
  2958   6 C     3132   1 H                                       1.0916844
  2957   6 C     3133   1 H                                       1.0921946
  2957   6 C     3134   1 H                                       1.0931256
  2956   6 C     3135   1 H                                       1.0925321
  2956   6 C     3136   1 H                                       1.0928045
  2955   6 C     3137   1 H                                       1.0925066
  2955   6 C     3138   1 H                                       1.0928771
  2954   6 C     3139   1 H                                       1.0926922
  2954   6 C     3140   1 H                                       1.0930449
  2953   6 C     3141   1 H                                       1.0924782
  2953   6 C     3142   1 H                                       1.0925964
  2952   6 C     3143   1 H                                       1.0930341
  2952   6 C     3144   1 H                                       1.0930801
  2951   6 C     3145   1 H                                       1.0924998
  2951   6 C     3146   1 H                                       1.0924656
  2950   6 C     3147   1 H                                       1.0934838
  2950   6 C     3148   1 H                                       1.0926722
  2949   6 C     3149   1 H                                       1.0909117
  2949   6 C     3150   1 H                                       1.0923315
  2948   6 C     3151   1 H                                       1.0924327
  2948   6 C     3152   1 H                                       1.0918630
  2947   6 C     3153   1 H                                       1.0927683
  2947   6 C     3154   1 H                                       1.0935648
  2946   6 C     3155   1 H                                       1.0922247
  2946   6 C     3156   1 H                                       1.0919262
  2945   6 C     3157   1 H                                       1.0925770
  2945   6 C     3158   1 H                                       1.0925336
  2944   6 C     3159   1 H                                       1.0915002
  2944   6 C     3160   1 H                                       1.0933671
  2943   6 C     3161   1 H                                       1.0931397
  2943   6 C     3162   1 H                                       1.0917171
  2942   6 C     3163   1 H                                       1.0930043
  2942   6 C     3164   1 H                                       1.0922379
  2941   6 C     3165   1 H                                       1.0926798
  2941   6 C     3166   1 H                                       1.0911970
  2940   6 C     3167   1 H                                       1.0923672
  2940   6 C     3168   1 H                                       1.0920639
  2939   6 C     3169   1 H                                       1.0927076
  2939   6 C     3170   1 H                                       1.0932191
  2938   6 C     3171   1 H                                       1.0924218
  2938   6 C     3172   1 H                                       1.0920480
  2937   6 C     3173   1 H                                       1.0924024
  2937   6 C     3174   1 H                                       1.0937907
  2936   6 C     3175   1 H                                       1.0925995
  2936   6 C     3176   1 H                                       1.0922558
  2935   6 C     3177   1 H                                       1.0921587
  2935   6 C     3178   1 H                                       1.0932876
  2934   6 C     3179   1 H                                       1.0933195
  2934   6 C     3180   1 H                                       1.0920025
  2933   6 C     3181   1 H                                       1.0924211
  2933   6 C     3182   1 H                                       1.0925342
  2932   6 C     3183   1 H                                       1.0916103
  2932   6 C     3184   1 H                                       1.0914436
  2931   6 C     3185   1 H                                       1.0927046
  2931   6 C     3186   1 H                                       1.0924618
  2930   6 C     3187   1 H                                       1.0915871
  2930   6 C     3188   1 H                                       1.0925472
  2929   6 C     3189   1 H                                       1.0927923
  2929   6 C     3190   1 H                                       1.0920471
  2928   6 C     3191   1 H                                       1.0923558
  2928   6 C     3192   1 H                                       1.0929302
  2927   6 C     3193   1 H                                       1.0923703
  2927   6 C     3194   1 H                                       1.0919704
  2926   6 C     3195   1 H                                       1.0922987
  2926   6 C     3196   1 H                                       1.0930693
  2925   6 C     3197   1 H                                       1.0915561
  2925   6 C     3198   1 H                                       1.0919908
  2924   6 C     3199   1 H                                       1.0920563
  2924   6 C     3200   1 H                                       1.0931993
  2923   6 C     3201   1 H                                       1.0917966
  2923   6 C     3202   1 H                                       1.0927061
  2922   6 C     3203   1 H                                       1.0918426
  2922   6 C     3204   1 H                                       1.0930988
  2921   6 C     3205   1 H                                       1.0926679
  2921   6 C     3206   1 H                                       1.0929706
  2920   6 C     3207   1 H                                       1.0917102
  2920   6 C     3208   1 H                                       1.0929814
  2919   6 C     3209   1 H                                       1.0926881
  2919   6 C     3210   1 H                                       1.0920978
  2918   6 C     3211   1 H                                       1.0917242
  2918   6 C     3212   1 H                                       1.0929823
  2917   6 C     3213   1 H                                       1.0916706
  2917   6 C     3214   1 H                                       1.0920833
  2916   6 C     3215   1 H                                       1.0928743
  2916   6 C     3216   1 H                                       1.0926081
  2915   6 C     3217   1 H                                       1.0917847
  2915   6 C     3218   1 H                                       1.0927809
  2914   6 C     3219   1 H                                       1.0928804
  2914   6 C     3220   1 H                                       1.0920196
  2913   6 C     3221   1 H                                       1.0922584
  2913   6 C     3222   1 H                                       1.0928283
  2912   6 C     3223   1 H                                       1.0930752
  2912   6 C     3224   1 H                                       1.0927985
  2911   6 C     3225   1 H                                       1.0919322
  2911   6 C     3226   1 H                                       1.0923331
  2910   6 C     3227   1 H                                       1.0934274
  2910   6 C     3228   1 H                                       1.0928560
  2909   6 C     3229   1 H                                       1.0923913
  2909   6 C     3230   1 H                                       1.0929911
  2908   6 C     3231   1 H                                       1.0913038
  2908   6 C     3232   1 H                                       1.0932333
  2907   6 C     3233   1 H                                       1.0923802
  2907   6 C     3234   1 H                                       1.0925816
  2906   6 C     3235   1 H                                       1.0928007
  2906   6 C     3236   1 H                                       1.0922366
  2905   6 C     3237   1 H                                       1.0927527
  2905   6 C     3238   1 H                                       1.0901260
  2904   6 C     3239   1 H                                       1.0932072
  2904   6 C     3240   1 H                                       1.0929433
  2903   6 C     3241   1 H                                       1.0930929
  2903   6 C     3242   1 H                                       1.0929548
  2902   6 C     3243   1 H                                       1.0908763
  2902   6 C     3244   1 H                                       1.0923196
  2901   6 C     3245   1 H                                       1.0927659
  2901   6 C     3246   1 H                                       1.0930571
  2900   6 C     3247   1 H                                       1.0930044
  2900   6 C     3248   1 H                                       1.0915638
  2899   6 C     3249   1 H                                       1.0926486
  2899   6 C     3250   1 H                                       1.0931608
  2898   6 C     3251   1 H                                       1.0929010
  2898   6 C     3252   1 H                                       1.0928574
  2897   6 C     3253   1 H                                       1.0883747
  2897   6 C     3254   1 H                                       1.0870899
  2897   6 C     3255   1 H                                       1.0872402
  3016   6 C     3256   1 H                                       1.0879284
  3016   6 C     3257   1 H                                       1.0879753
  3016   6 C     3258   1 H                                       1.0875825

 * 2 distinct bonds (by element types)

   Z      Z             #   av. dist./Å        max./Å        min./Å
   1 H    6 C        2178     1.0922589     1.0943159     1.0860810
   6 C    6 C        1071     1.5275163     1.5355210     1.5221021


optimized geometry written to: xtbopt.xyz


           -------------------------------------------------
          | TOTAL ENERGY            -3427.533056915851 Eh   |
          | GRADIENT NORM               0.000971197586 Eh/α |
          | HOMO-LUMO GAP              11.473105167060 eV   |
           -------------------------------------------------

------------------------------------------------------------------------
 * finished run on 2024/10/04 at 02:59:19.846     
------------------------------------------------------------------------
 total:
 * wall-time:     0 d,  5 h, 35 min, 21.201 sec
 *  cpu-time:     1 d,  5 h, 37 min,  9.296 sec
 * ratio c/w:     5.299 speedup
 SCF:
 * wall-time:     0 d,  0 h, 13 min, 50.413 sec
 *  cpu-time:     0 d,  1 h, 28 min,  6.812 sec
 * ratio c/w:     6.366 speedup
 ANC optimizer:
 * wall-time:     0 d,  5 h, 20 min, 48.998 sec
 *  cpu-time:     1 d,  4 h,  8 min,  4.700 sec
 * ratio c/w:     5.262 speedup

