3795
 energy: -5103.717206675397 gnorm: 0.000997908368 xtb: 6.6.1 (8d0f1dd)
C          126.63279514919235      103.43785832675499      107.13861509510771
C          127.08252032082126      104.42648956795921      108.18933359027461
C          125.11483357365648      103.32571442973530      107.02866317093388
C          124.51267900750305      104.57681533545436      106.39464343612305
H          124.86423876835954      102.44879992110332      106.43166443641488
H          124.69440074934319      103.19034548820854      108.02632667546342
C          122.99060108628123      104.65804397133961      106.54152082459164
H          124.93529792513147      105.45359244030196      106.88734060022549
H          124.77890641161964      104.62728740058151      105.33612325990990
C          122.27857173932749      103.57387907369457      105.75994730763340
H          122.72991527943316      104.57046821729465      107.59579385947310
H          122.66382073543745      105.62502111319162      106.15794477270188
N          122.20690737422373      102.39434526288785      106.38505592760862
O          128.32481052441744      104.82615263357482      107.99173431752747
O          126.41465345752876      104.79717957022852      109.13037234219854
H          128.63711650341128      105.41681239555702      108.72997743742363
H          127.06034640752630      102.47374234332612      107.42592577124398
H          127.08260031846869      103.72611646544244      106.18749846840538
C          121.54108685098156      101.24091341101953      105.82202504461969
H          122.46504559893006      102.34839577559121      107.36585628713263
C          120.11728248012815      101.10009581348467      106.36441629833418
H          121.51621721490172      101.37915756552930      104.73769263250847
H          122.12674051186168      100.34751490244024      106.05051622798970
C          119.29307305098543      100.05418846233776      105.61881636599995
H          120.16184040327751      100.84498226735658      107.42437733180358
H          119.62387030837566      102.07073675610388      106.27122325527002
C          117.81663222679059      100.14506950736029      106.00342378040844
H          119.38943122528985      100.22241031998772      104.54479638630066
H          119.67362177954263       99.05549193687438      105.83661241608782
C          116.92367902322690       99.33988886455558      105.06141794998027
H          117.68389324754448       99.80004571720467      107.03081452112160
H          117.51098658427853      101.19197743965120      105.96765773599287
C          115.44526325850497       99.49785239423329      105.38994705307560
H          117.09399916856826       99.66833255228838      104.03418897055218
H          117.18273389609131       98.28241754247901      105.12558216608447
N          114.97447491211584      100.84487969096119      105.12549820368393
H          114.84321903211540       98.80183630501456      104.79441362140543
H          115.26917838887728       99.26535003558119      106.44687934493238
C          113.68990962079438      101.18534633885064      105.25642326687496
H          115.65205821141637      101.55073719483033      104.86581866448448
O          121.82473437295823      103.76838996074378      104.63079675711143
C          113.37949235675667      102.63965800299860      104.97187853874584
C          112.88961959721215      102.83845626501707      103.53320152675448
H          112.59775249957204      102.96123701585672      105.66302829954640
H          114.26666213502841      103.24702911073787      105.14754555541427
C          113.99110014639069      102.60530862040957      102.50309935443833
H          112.05740080299773      102.15995851127377      103.33599176438629
H          112.51387006072767      103.85831065424979      103.44153335614799
C          113.53998365946060      102.95057069473130      101.07608185171213
H          114.86694598394337      103.20249578656754      102.76616240710899
H          114.28846774753070      101.55511954800593      102.52923960477466
C          113.44476923673419      104.45083865585671      100.87760026077672
H          114.27649441098019      102.56729030059364      100.36847349893867
H          112.57200796838535      102.49070109874624      100.87642568156501
N          112.23982492993029      104.97366578835017      101.11899975251376
C          111.94066253000533      106.38348659946807      100.98852222063803
H          111.46523724499451      104.35811656432222      101.33402088097857
O          112.81976147976118      100.37330741067962      105.57153301601133
C          110.56065260094748      106.60998617838851      100.38287239424992
H          111.98519612148745      106.85536192964319      101.97867569773776
H          112.71658479527741      106.82271022414734      100.35464271834887
C          110.44211954067391      106.03424721587045       98.97395918457180
H          109.81366449545871      106.14052105669805      101.02522397822237
H          110.37134258617209      107.68229563785771      100.36483405246807
C          109.10008319564965      106.36360420845041       98.31837536654207
H          111.25246079688706      106.41927699773602       98.35179423126564
H          110.55712795155078      104.95046328292992       99.03185998514738
C          109.00897681491890      107.81145901553639       97.84545753489587
H          108.95519935266229      105.70868985629518       97.45697716884567
H          108.29200138838067      106.16900726459050       99.02473461458422
C          107.66847868450928      108.09312909887696       97.17449401943620
N          107.65887066373359      109.40319310957929       96.56096294193725
H          107.47941834562005      107.34219002277891       96.39851843189163
H          106.84809997886201      108.05749326420587       97.89559601954414
C          106.73912727820529      110.33720741059628       96.80698761638847
H          108.50681996725058      109.67240553696229       96.07651200690624
O          114.41264961411309      105.12973522366306      100.53885692901346
C          106.92039129955049      111.62172215015350       96.02047133966856
C          105.60031365173150      112.02211241816109       95.35580416959550
H          107.23716714727939      112.40888777522963       96.70749963206342
H          107.69867471760541      111.47616976047046       95.27199711611104
C          105.76844534869031      113.10482731165064       94.28898463094808
H          105.15699588151215      111.13916671195886       94.88909605828829
H          104.90955531142389      112.35968623555196       96.13148734635449
C          106.48596177405713      114.36027619577976       94.80119616910322
H          106.34364614322034      112.69957731948298       93.45477793754664
H          104.77940382870332      113.36629730762152       93.90853423007820
C          105.95485369107108      114.81670470314617       96.14504861555034
H          107.55042640816433      114.15749189105280       94.91977806704064
H          106.37293813296823      115.16734019897096       94.07550782423220
N          104.67506435479619      115.20251605886651       96.15385380679396
C          103.98548651999259      115.59145503327693       97.37031405660024
H          104.13207978538119      115.15381305276485       95.30697630329411
H          109.13130880035868      108.49498841902651       98.68518054020876
H          109.80447516087017      108.01593572721593       97.12603505345724
O          105.79048759595135      110.16367049650121       97.57450558602450
O          106.65487333892304      114.83489998110682       97.15338589578444
C          102.49150116674701      115.78008031188395       97.14416388107574
H          104.15932093371480      114.82145774129374       98.12890558239241
H          104.42829260423774      116.52109860226770       97.74125031082485
C          102.17059664414545      117.04876669357971       96.35059122363063
H          102.08422094844943      114.90632643854021       96.63208573447655
H          102.01830409485565      115.82918664571959       98.12435025426699
C          100.68041908437606      117.40243382395718       96.36513899260754
H          102.74558356592406      117.88263423111839       96.75420901630790
H          102.47881779335374      116.91826510050821       95.31193113540462
C          100.15922299436298      117.91859996664637       97.70931671050596
H          100.49164521807411      118.16641449175297       95.60866013149108
H          100.10762439545709      116.51496059384705       96.09008580632430
C          100.68952307960853      119.30630030803331       98.06123808788574
H           99.06958577658533      117.96488764092277       97.67134640729633
H          100.42453318996533      117.22878388214181       98.51164220088772
N          100.27492193817491      119.70000269147546       99.39107376709048
H          101.78450477590458      119.32154455518734       98.01142088163716
H          100.31185944486741      120.05974379563256       97.36455190561715
C           99.94745815769120      120.95647463456596       99.70802078917791
H          100.27827838484170      118.97905091050961      100.10786243901430
C           99.56366477546604      121.17489342225348      101.16219649588031
C          100.66254420102079      120.76245442408744      102.14443464159655
H           99.33038696771611      122.23475935741810      101.28071781310176
H           98.66158412032239      120.59652782300675      101.36924421294489
C          101.99658527162916      121.43845588801703      101.83647430583045
H          100.34763539026250      121.02824864111273      103.15572286204058
H          100.78437923438300      119.67848883701464      102.12363267417216
C          103.07537340713692      121.06220418785158      102.85674561572395
H          102.32740334683594      121.14092927568804      100.83881130629085
H          101.86476270328593      122.52243331811852      101.83096449204670
C          102.74319703558763      121.62920395587773      104.22796546896058
H          103.13738025060692      119.97657118596727      102.93608541249367
H          104.03684878293474      121.46348853251715      102.53779763590981
N          103.06582018546017      122.91808263828941      104.36744942757832
C          102.82007554847137      123.67518224392738      105.57626421710940
H          103.48618244099279      123.41975990638004      103.59346257944135
O           99.94498771148406      121.87449130594695       98.88922079209465
C          103.71203563432410      124.90870488729099      105.62099942760064
H          101.76295806720175      123.97221256708940      105.61624988149457
H          103.01500670260667      123.02312789895508      106.43355274432250
C          103.44725558748560      125.74953217463428      106.86767089347215
H          104.75316523427996      124.58838107817792      105.60016372503486
H          103.52500088756865      125.50709323109307      104.72688021909005
C          104.16553276084893      127.09910207366829      106.83288014953777
H          102.37220878928845      125.92654582591913      106.94771667554303
H          103.76221541861092      125.19122594128021      107.75137360010206
C          105.67703399865111      126.95774543132562      106.97883828196565
H          103.93265315613723      127.61094093835042      105.89711381325007
H          103.79048650549674      127.71847096992295      107.65086072606458
C          106.38138755744689      128.31313740712460      107.01345354217902
H          105.89304271169023      126.41530954634119      107.90163631061317
H          106.08528368283055      126.38179159591563      106.14856077886536
N          107.77953076396220      128.12190821986223      107.33220137931315
H          106.28185996548170      128.81240272757537      106.04480888270736
H          105.95617929973695      128.96052206697368      107.78461754937726
O          102.22233393839373      120.96657037959808      105.12046516179333
C          108.38800265389492      128.74154417961498      108.34266030313812
H          108.24348822702528      127.40105844032061      106.78300390683184
C          109.75422173800845      128.19757885688676      108.72744652822217
C          110.82199155428098      128.37384475127683      107.64731723569685
H          110.06966545996700      128.69434213272004      109.64677983969089
H          109.63554511912403      127.13498358698912      108.95104426608243
C          111.25466961750445      129.83146270070742      107.50791077881647
H          111.69169350296663      127.76580836067181      107.90812160096334
H          110.44395210452511      128.00981563191556      106.69006540111394
C          112.29292920061405      130.00726236687086      106.39426480717988
H          110.37343167451567      130.44462082855364      107.30827021906131
H          111.68501197397083      130.17071002362161      108.45185388426698
C          111.72561438210036      129.57029140176317      105.05373863804554
H          112.60615461241186      131.05049319576744      106.33783861227042
H          113.16753989882558      129.39159536357735      106.60783895907097
N          110.75722747261912      130.37541267478312      104.58963908750498
O          107.85992673379407      129.67099223592672      108.95462679128806
C          109.90071309344370      130.08016177006672      103.46105430329686
H          110.49733496815708      131.17875397172273      105.14139521699281
C          108.43574945179128      130.08406720959516      103.90268641890820
H          110.06032985273330      130.82863556473305      102.67715472366919
H          110.20425555421090      129.10295230937513      103.08360021651696
C          107.44672851589927      130.00370305164515      102.73874758890108
H          108.27462575669526      129.26013963231716      104.59798507473386
H          108.24822240927973      131.01586950996833      104.44272967079711
C          107.34355904088775      128.62891216569142      102.07656556074896
H          106.45743733061781      130.28268535577683      103.10748983564851
H          107.73559286025973      130.73895151025727      101.98448907515615
C          106.72882314709673      127.57628615404506      102.99819845728969
H          106.72879534372942      128.73378079092399      101.18021225909823
H          108.33161450120362      128.29708048872359      101.75526432265946
C          106.57599502399002      126.21552946507354      102.32289230396081
H          107.36684406144546      127.42670274297261      103.86861837592305
H          105.75118683612094      127.91324825074632      103.34734233497821
N          105.48454871203624      126.17067792149517      101.37330698542722
H          107.50623832518096      125.95353976709342      101.80867901403505
H          106.36447620581562      125.45331479986302      103.07482108483717
C          104.51220881500569      125.25328484888907      101.41658428945067
H          105.51755535544689      126.82068985978886      100.60377666242579
O          112.11706828178593      128.57518256079592      104.46023759096005
C          103.54713345331128      125.28190796656850      100.25023774359644
C          104.20692217807195      124.61215866782319       99.03686299818369
H          102.64504404928910      124.73241872215667      100.52277703790664
H          103.27646172297949      126.30903943739324      100.00635136363942
C          104.52717180438502      123.13656127560797       99.30423410640216
H          103.53830755904637      124.69503905282336       98.17932623137573
H          105.12712376749985      125.14552713530763       98.79123661541921
C          105.76085264848930      122.66847732658776       98.51850227562080
H          104.70414583150280      122.99015232811577      100.36984058397091
H          103.67067218647446      122.52066220364158       99.02645745919210
C          106.99857961177241      123.39316006971524       98.99153097483607
H          105.88726444533843      121.59174826942640       98.62141641223315
H          105.62525481082905      122.90806565794327       97.46307507311920
N          107.65006135971744      122.96396748018937      100.06645556741630
C          107.36564276492373      121.87233883623441      100.96777386594421
H          108.51022030883641      123.47023764067536      100.27775428516706
O          104.44082374477357      124.41067400634414      102.30710395665263
C          107.15559187858564      122.37721244027180      102.39810807587466
H          106.47416220476050      121.34302039189247      100.63871157422473
H          108.21628606294372      121.18444469432401      100.94667928517070
C          107.05889495701652      121.22852857342866      103.40426192390636
H          107.98616791429968      123.02901356415947      102.67710923513575
H          106.24168989849224      122.97205145985667      102.43622082496107
C          108.42147108945467      120.62296904078133      103.74077319563584
H          106.60932341993849      121.61017431229899      104.32260696363517
H          106.39609705929054      120.45576725298952      103.01074175792050
C          108.33230326488349      119.57968000323241      104.85294105873005
H          108.86603405868303      120.16566826978952      102.85508362570607
H          109.09057142046952      121.42102030347291      104.06881642778595
C          109.71981196305534      119.11129389464514      105.26621977227845
H          107.83924210305483      120.01433836331427      105.72415658810021
H          107.73728114434176      118.72622106321073      104.52462134680061
N          109.66854230429526      118.23700947547425      106.42145057447574
H          110.21276730251886      118.56681555878191      104.45509093064160
H          110.34249617534998      119.98568146420178      105.49594999216235
C          110.67817646401048      117.40876247406324      106.72229321108028
H          108.88654418686001      118.34759627874438      107.05285948043513
O          107.40322718242125      124.39787156292869       98.38269351568360
C          110.51510731874379      116.63014545727671      108.01610383277597
C          111.88293727644376      116.20816372456569      108.55457169873375
H          109.96313170503267      117.23712246664321      108.73382898434072
H          109.91415644715654      115.74548675891943      107.79610049209258
C          111.81328688325361      115.32875986144943      109.80084323742210
H          112.40487883867137      115.67637424429527      107.75664775475516
H          112.46979600361129      117.10335884166912      108.76913059544428
C          111.47165326944209      116.12452489005763      111.05364899706422
H          111.06020182650671      114.55281334310665      109.66181567117954
H          112.77739086679402      114.83824302557626      109.95347192514312
C          111.25515722476875      115.25296207458170      112.27327651956129
H          112.26587678343375      116.83880539714411      111.27627519424912
H          110.55386564912206      116.69808968795643      110.90274167533839
N          111.12264576511556      115.96498051641589      113.40051503683893
O          111.65641258135719      117.27409641498171      105.99459448856355
C          110.78649249482767      115.38667399530260      114.68707721565897
H          111.20742228120135      116.96781485617099      113.34743055759083
C          110.66104671181498      116.48711656092397      115.72750462957869
H          109.84196645534858      114.83986119684592      114.59429082294371
H          111.56184385443744      114.66489799173418      114.96357344383763
C          110.28250166188253      115.94178013193272      117.10538350703510
H          111.61073363532921      117.02042088751443      115.79004449622211
H          109.90523056263139      117.19277974706739      115.38542048847225
C          110.58217441706326      116.95004616187930      118.21378466314026
H          109.22300688499080      115.68742779193052      117.11774023766445
H          110.84016292599570      115.02281153993550      117.29203631761077
C          109.78605767317441      118.24042055061180      118.04275864997689
H          110.34247647170287      116.50610672374626      119.18120261664060
H          111.64809295217911      117.18732316056897      118.20316515381737
C          110.17301842685249      119.30360904772328      119.06580649014235
H          109.96365319756788      118.65766479329010      117.05269050913797
H          108.72498530065765      118.02280886391976      118.14179393621534
N          111.57303671045865      119.63489384724009      118.92038599287268
H          109.56363511231008      120.19708451392037      118.90935062300483
H          110.02167140495635      118.94327442854933      120.08392473942838
C          112.44449471204892      119.61246032155519      119.92476658889946
H          111.86044210722854      119.92316383988913      117.98802475304487
O          111.17879287324803      114.02877058418042      112.25517279090739
C          113.88516235762914      119.83769138810493      119.53582147090560
C          114.25268708089479      121.32331552999797      119.52498572928008
H          114.52438529552742      119.30115670644093      120.23747009411537
H          114.05199130662659      119.42625167304132      118.54115365717063
C          115.68515498735974      121.51321854472859      119.03443046922010
H          113.56834953797633      121.86035521006390      118.86454026740033
H          114.15258884015157      121.72853807958160      120.53309025736957
C          116.11393643749339      122.98143550483852      119.04795898829313
H          116.35810544772772      120.93435027327176      119.66889837048923
H          115.78030419683223      121.13091547704649      118.01638024161322
C          117.51012651605433      123.14464569405462      118.48030865355119
H          115.43304859408285      123.56312481534813      118.42258217827195
H          116.08095871509049      123.37450246634006      120.06111770931753
N          118.34272751629101      123.90204324649613      119.19661969299840
C          119.71276843203539      124.10203391625843      118.76536308633227
H          118.00983427868205      124.44820920935783      119.98402847268520
O          112.09821652744108      119.40072264777082      121.09228397898619
C          120.40508836491558      125.21236424941334      119.54320219313620
H          120.25497307930814      123.16050114364813      118.88562174695636
H          119.70581674484337      124.33016897900039      117.69588371927507
C          120.57694800709052      124.90857301710122      121.03199622751877
H          121.38610709643764      125.37774185478678      119.09293041606200
H          119.82859363035004      126.13493846197173      119.44519554547485
C          121.37609476677544      123.63813976164064      121.31978465031017
H          121.08744561372454      125.76252172378889      121.47919755799768
H          119.59449086962553      124.82885199218555      121.49672297630832
C          121.61188276753093      123.44051779381748      122.81781495517882
H          120.83234943427692      122.77569021374346      120.93678884843877
H          122.34137605403963      123.68447281422358      120.81086620098716
C          122.71842721879567      124.33753652401295      123.36713534804487
H          120.69363685161898      123.64056871166662      123.36910757367674
H          121.90232875490653      122.40894299258234      123.01936691053416
N          124.02178129880696      123.86606214010965      122.94683478728331
H          122.61269586314782      125.36358500606087      123.01289317117379
H          122.67717448747202      124.33798734566665      124.45946605401656
C          124.93927869472057      124.62167471479006      122.34650078553172
H          124.24461519920341      122.90614117816928      123.18575846974949
O          117.86704450750790      122.58972548897341      117.44026682123008
C          126.25333806560712      123.91550782032303      122.05424055040565
C          126.94521581045332      123.42707231299566      123.32929432189705
H          126.05122484372671      123.05554013931760      121.41122312371188
H          126.90288377250742      124.60649334327350      121.51633365859125
C          128.32559386100124      122.82303168565066      123.04660409358243
H          127.05539105399600      124.25528262202280      124.03317465886732
H          126.31853260048793      122.66850342144846      123.80032082396632
C          129.46079868248967      123.84831128637146      123.11293627057115
H          128.54532259729675      122.05790571382985      123.79512456957303
H          128.32843614516051      122.33975571913507      122.06674180110505
C          129.40577506045264      124.91183860325251      122.03475715482232
H          129.46763324333165      124.32352839925186      124.09302558083297
H          130.41160850940426      123.32234578915930      122.98687870080117
N          129.32808422239802      126.16807273379546      122.49312106845937
O          124.74706824958795      125.79362542181428      122.02553541082661
C          129.47311481759425      127.33998668049180      121.65417390425095
H          129.27915124941370      126.31093031841134      123.49584918817860
C          128.27949154327732      128.29134391557932      121.74536617857254
H          130.38411983942956      127.87161525016084      121.95105302956705
H          129.60243023635746      126.97758121470825      120.63291225529184
C          128.43953711443834      129.53148833202047      120.85854402051109
H          127.36907971674204      127.75478471981343      121.46926250678867
H          128.18075728673770      128.61114669357687      122.78546551801350
C          128.28347237407777      129.24867047752178      119.36454198666640
H          127.68201049439043      130.26330240078758      121.14882375605028
H          129.41493138512215      129.98547532264934      121.04633252335708
C          128.29655834178132      130.52707860828397      118.52732929459619
H          129.08442482744437      128.59133147117586      119.02441393986169
H          127.32895578146980      128.74402922707776      119.20802997794911
C          128.12532395022265      130.27048857984153      117.02132456340853
H          127.48172274764801      131.17550015528596      118.85725285372155
H          129.23742930881340      131.06065971554585      118.67629966839712
N          129.29991692136417      129.74704488620114      116.32992377671422
H          127.29378261810710      129.57820677608805      116.85875737265238
H          127.87302335566913      131.22002114024963      116.53749844048214
H          130.08220181059505      130.35540079593923      116.56164630516714
H          129.53940073934373      128.82858502823964      116.69897099989603
O          129.45929914765438      124.63825796034237      120.83631830616878
C          102.43863950470121      121.34076189405297      125.82193738645056
C          102.07290965717826      120.95781410379874      124.40642249300417
C          103.93632662838742      121.55387058398512      126.05298207865339
C          104.30601117282821      121.33150238613079      127.51956306231409
H          104.49679475860754      120.84991792896631      125.44018070933514
H          104.21849369719502      122.56151359907800      125.74456982262576
C          105.78772356712112      121.57633748335607      127.80094192172957
H          103.71164041663116      121.99686455471245      128.14959637269786
H          104.06512999041261      120.30184683640728      127.79285564862010
C          106.70376415770254      120.55809081810428      127.13293540086589
H          106.07232921408750      122.57345400082451      127.46253095454392
H          105.96103165785738      121.52796429840336      128.87720040995544
N          108.01314608360039      120.79405654447015      127.31488052904842
O          102.93905566814745      121.35814673059785      123.50009172718453
O          101.06142204401424      120.34423708760860      124.12854531413657
H          102.69524023764338      121.04226989272600      122.58115566206337
H          102.05668501013552      120.54678258922769      126.46608833822340
H          101.87679133372899      122.24537965018450      126.06761974655521
C          109.03717918211025      120.03207193655129      126.62600938991977
H          108.33113240977595      121.63396151319800      127.78556710050714
C          110.32999858378089      119.97309545588408      127.43012949470661
H          108.62988575650296      119.03169148792995      126.45677396856576
H          109.23313018558815      120.50229865140120      125.65217758440808
C          110.21701249029181      119.11460119851155      128.68677519521592
H          111.11087008523438      119.57497521294104      126.78453356654246
H          110.60317278781602      120.98880538553918      127.71651746147467
C          111.45852335506190      119.20931056079537      129.57474553113590
H          109.35256111636231      119.45079486489792      129.26167685239042
H          110.04016100620983      118.07455901753318      128.40493940918182
C          112.70862350510272      118.63571741063213      128.91053038988909
H          111.63261124818224      120.25829128725468      129.82537691596511
H          111.26902254207596      118.67328289869040      130.50790939540886
C          113.90739998707231      118.67533068834008      129.84972923697973
H          112.52314289474694      117.60443379261457      128.60563535660492
H          112.94511423037396      119.21709945678836      128.02152737994319
N          115.10274585791231      118.15460320850022      129.21955837114118
H          114.11273656729026      119.70453651416359      130.15593881230808
H          113.68655350815273      118.09422982368964      130.75504795315248