3536
 energy: -3716.260482446051 gnorm: 0.000946798973 xtb: 6.6.1 (8d0f1dd)
C           49.48621576097339       47.44783762007220       49.32324541955376
C           48.92126367665897       48.46691144793289       48.33800941311894
C           49.69164487865360       49.78233342358189       48.45416747186145
C           47.43494892379323       48.74097794138082       48.59159503433064
C           46.51049885877939       47.51849671461424       48.58223539582678
C           46.64299346358175       46.73439467389726       47.27725699442845
C           45.04247258264952       47.93918509971856       48.75120432340936
C           44.69547312276348       48.67174675724055       50.05093381702262
C           44.79118048778599       47.72682601008716       51.24924284025207
C           43.27950616369819       49.26380223291516       50.00114582294013
C           43.00211633013618       50.34027880787357       48.94045552951416
C           44.14267629783053       51.35188132141074       48.82116091043588
C           41.72576591642147       51.12430509481731       49.29055797403837
C           40.42091641403717       50.32837606118378       49.44548927975907
C           39.98869720473245       49.73020052864866       48.11044728788065
C           39.35575515687901       51.27973459661826       50.00967279811805
C           37.97177261574600       50.68909760936280       50.31428487868839
C           37.03712509605818       51.84074500996634       50.69537338448722
C           37.98060803114080       49.63885447722239       51.44216512416743
C           37.97326054057406       48.17150472421778       50.99332408096699
C           36.67953017022415       47.82850669292343       50.25264183755106
C           38.09069177492817       47.22151666919852       52.19735069166939
C           39.41750250880946       47.23179872681318       52.96424961488263
C           40.57862359853604       46.80919512768833       52.06435651336047
C           39.36593873061735       46.27727977327218       54.16846121797867
C           38.31321232813543       46.57345713186586       55.24419296965340
C           38.39796767465320       48.01933192329943       55.73327324822058
C           38.49330012422337       45.64667181564216       56.45775243280901
C           38.38765901662151       44.13925181459533       56.19951204138733
C           37.06354034966810       43.78017319757770       55.52469968754064
C           38.49331924137886       43.35573672011139       57.51815936036719
C           39.82922268165982       43.43936985729559       58.27031047264025
C           40.97612974444842       42.90088108005305       57.41778809621447
C           39.72162617400821       42.63613393884120       59.57669590588662
C           40.77473262587748       42.99449462292983       60.63838265251398
C           41.02726848976333       41.78866908413119       61.54240043071758
C           40.32066745917527       44.20537844345714       61.46396978155412
C           41.41289306255025       44.78946897458109       62.38286623296138
C           41.01600750425544       44.65223279389237       63.85303772511602
C           41.69744023994693       46.26666233363171       62.07971097513434
C           42.31656628899804       46.53205025511496       60.70444507177716
C           43.71961350160964       45.93163249518509       60.60180321096070
C           42.41971406759794       48.03460887122822       60.40795579120653
C           41.12679999812624       48.86438830064719       60.44751381517175
C           40.02302022794160       48.25020255846675       59.59131672409674
C           41.47403937701814       50.28038615544676       59.96866735687281
C           40.39511313454519       51.36169618349253       60.10822620673704
C           40.90234084880831       52.62747758094568       59.41259488934934
C           40.05489842869530       51.68350592871322       61.57370308152100
C           38.83217274896828       50.97127443867922       62.16502607056816
C           37.54885309821007       51.40678904961532       61.45447729841268
C           38.67111329566995       51.29135174662511       63.66167687622391
C           39.83259798462475       50.91079150997778       64.59017279820056
C           39.99186361593718       49.39201978344186       64.66387505974143
C           39.61004432483175       51.47758248710520       66.00639418342112
C           40.23508065618544       52.85019040550780       66.32110490720221
C           39.63069173106096       53.97892194561836       65.48998388302084
C           41.76135405819911       52.81177987810162       66.17509201808261
C           42.51702842617582       54.00932519537125       66.77129175110875
C           43.94955403533795       53.99576798678812       66.24206845355744
C           42.50185203169294       53.95872693557747       68.30164758924036
C           43.16636157133311       55.13930337267235       69.02241447918986
C           43.18594927750166       54.84195370037838       70.52383850502014
C           42.45037257918157       56.47818699689365       68.76993053504600
C           43.02732330740167       57.37858521780238       67.66547636774713
C           44.46354850106915       57.79356769019660       67.98086248129260
C           42.13829009991901       58.62542420432155       67.53524917471057
C           42.31066265755251       59.41031096675083       66.22538507747684
C           41.80098752736381       60.83691066726502       66.43679699150839
C           41.57454116518804       58.72323951207333       65.05975148930806
C           42.34874173451819       58.69732902026642       63.73590901996206
C           42.71499825497843       60.09921437459094       63.25332127856905
C           41.54094247808079       58.00185058545708       62.62950118090649
C           41.21344725712068       56.52088978269419       62.85000236926875
C           42.47867965955114       55.70072723957995       63.09612168867394
C           40.48307698977090       55.94248504290415       61.62853964902822
C           39.02532134818249       56.37832380018185       61.42336117336441
C           38.13786823617477       55.87309597104618       62.55895070165416
C           38.53533108133355       55.82160917842057       60.07671512958960
C           37.18609837618269       56.37010452135083       59.57920410950942
C           36.32116868039266       55.22661584798593       59.04444623478943
C           37.35278965374584       57.42043436692684       58.47384351254533
C           38.07607039575726       58.71117758962777       58.88061467074778
C           37.23110539512125       59.53147518151030       59.85202854827783
C           38.39170881603955       59.50871210247710       57.60777205303829
C           39.10899329338453       60.85318032654234       57.79582499704234
C           39.31107651112838       61.48808507096903       56.41951578129587
C           40.44038240495715       60.67502655826315       58.53301002412640
C           41.20576200577406       61.97705066763076       58.76091085535078
C           42.43499513480552       61.75173058582637       59.63293016328155
H           49.08402828579328       46.45419202959557       49.14060486858111
H           50.56944176182510       47.40035444094722       49.23228034970938
H           49.24178899169183       47.73564537612820       50.34217874075099
H           43.00062356845062       62.67344017737857       59.74857243202447
H           42.14454623423634       61.39859860783593       60.61938566583940
H           43.09007435931974       61.00989562678018       59.18149500999425
H           40.24976047942837       60.22457245317914       59.50861997648843
H           41.06833252451649       59.98019276947561       57.96876810406728
H           39.00812638493642       58.88514959426861       56.95422530740851
H           37.45057925278158       59.69679457340052       57.08371101840640
H           39.01612794279029       58.43910230398952       59.36658126215509
H           36.31887295743440       59.87092189836920       59.36546976843624
H           36.95528726586631       58.94018061343135       60.72123226932907
H           37.77804327402377       60.40213496473783       60.20434331677954
H           37.89908478641230       56.95826861051315       57.64715000278340
H           36.36216417221153       57.68766225542760       58.09666082372402
H           39.29483165992185       56.01222558621354       59.31490296635400
H           38.45522757874347       54.73719291807229       60.18386071839408
H           38.47071129749816       61.51958335889396       58.38459076446657
H           39.67168568914513       62.50928016716189       56.50464735179727
H           40.03029813982596       60.91327651928790       55.83975064067891
H           38.37141388723317       61.51021118365306       55.87167029594951
H           36.64954059658859       56.82641656240603       60.41445216944059
H           36.13870700643211       54.48593842201669       59.82003986914896
H           35.35964219671968       55.59923339033745       58.69786856845759
H           36.81640425990547       54.73506086381438       58.20898107441177
H           38.97399052725324       57.46981783597097       61.39875287610986
H           38.22114458561854       54.79183067502935       62.64980686425827
H           38.42083061810670       56.31976839398455       63.50818092550018
H           37.09412410331833       56.11633357003558       62.37653523940208
H           41.05776914896185       56.20120589975449       60.73511151328898
H           40.49346050921611       54.85286210938612       61.70812281188192
H           40.56788858680807       56.42016575928910       63.72519339821109
H           43.17033275297594       55.80601997543479       62.26287111465621
H           42.98256876807537       56.01547334636690       64.00485230881912
H           42.22824636310672       54.64772151756564       63.20049017587858
H           40.60683361873554       58.55262998253205       62.49673063474837
H           42.10612283831303       58.08757475427527       61.69762065160442
H           43.28354629506195       58.15042163365185       63.89338542633674
H           43.35678464446016       60.60507254956253       63.96770270287912
H           43.25263063346630       60.03861291463522       62.30899873954758
H           41.81812425384289       60.69685584946156       63.10086839319837
H           41.36271106590913       57.69106591896792       65.34134199276590
H           40.61382250316578       59.21816540474524       64.89997019893273
H           43.37738260673544       59.45640864620982       65.98667575592226
H           41.83933555856101       61.41234373791595       65.51690294859786
H           40.76918561930299       60.81810043297557       66.78277913513456
H           42.40066176899943       61.35100093795010       67.18584843849382
H           41.08806741756298       58.33583725866476       67.62280348894379
H           42.35925558764312       59.28589256750639       68.37723160311806
H           43.02336595178893       56.84093761806173       66.71365695961143
H           45.13542331502867       56.93884081164822       67.97213007455031
H           44.83000310558897       58.50592173607713       67.24559050699250
H           44.51736748972320       58.25834923972392       68.96340966616299
H           41.40153720844555       56.27253086991397       68.54168836675706
H           42.46450600916513       57.06058318334103       69.69488011069630
H           44.20366081946008       55.20957866142957       68.69213524750009
H           43.68427789360035       53.89521389229066       70.72334132077667
H           43.71566156155718       55.62328438026706       71.06450511961792
H           42.17169958871305       54.78028172071440       70.91354938925328
H           41.46854917109068       53.89125442575795       68.64895346265740
H           43.00867907887307       53.04036858359190       68.61260595719948
H           42.03040969079106       54.92770645335138       66.43710010581093
H           44.46779409232307       53.11168364209242       66.60429106458643
H           43.95519630680079       53.97702706402074       65.15499720270221
H           44.49736981112753       54.87684272952038       66.56352914069309
H           42.13970644472136       51.89738311679203       66.63962315703715
H           42.00484874142226       52.76506529579547       65.11168944145231
H           39.99327538661531       53.04779594962962       67.37177217146007
H           38.54407391011975       53.94055107277003       65.52553996803475
H           39.93929386119915       54.94602366943810       65.88029548263377
H           39.95531022247420       53.91363469096493       64.45525542790435
H           38.53595152025310       51.53365392879945       66.19994770082599
H           40.02474459976365       50.76934127433135       66.72814583833370
H           40.76193384991245       51.32532401218461       64.19623778591424
H           39.08850820329515       48.93331258040234       65.06097662430436
H           40.18658716457792       48.97137730196997       63.68115547028035
H           40.82484835525025       49.12511112433922       65.31140802881384
H           38.48721049843172       52.36190243222880       63.75087484876465
H           37.77410834187225       50.77908672558678       64.02098985545530
H           38.93804285183310       49.89164940195591       62.03696215752391
H           36.68515283364309       50.91408975795265       61.89589384754048
H           37.41031353994900       52.48271748896263       61.54661696090214
H           37.57027137696690       51.15769910592300       60.39670703888631
H           40.93337273352788       51.45101291627514       62.17685226708883
H           39.87469520105721       52.75787022645839       61.66360856175214
H           39.49639415019507       51.03373489178440       59.58185138233823
H           40.13213128596147       53.39363253126668       59.39449411989608
H           41.77213883735021       53.02506038493037       59.93174407282481
H           41.18701165290111       52.41264891077535       58.38535951271006
H           42.36179693310990       50.62085197032783       60.50813837532159
H           41.74292567175420       50.21384036994170       58.91081668208066
H           40.78323727157985       48.92202545306493       61.48277550888152
H           39.73348561937520       47.27227938307385       59.96652694938665
H           39.13699289539899       48.87960261431777       59.59476357527128
H           40.35586266784510       48.13897623683414       58.56148433269242
H           43.11928162451032       48.47167921749602       61.12593229606951
H           42.86122460125011       48.14494088723326       59.41408483899442
H           41.69705102571051       46.06308029007047       59.93615709264805
H           43.69232197401876       44.84773958895776       60.67088621158187
H           44.17138076976040       46.19448701602025       59.64787689884295
H           44.35678340403896       46.31013811877074       61.39902286574585
H           40.75561775342493       46.81107873206297       62.16592007154327
H           42.37355384419168       46.65941754565043       62.84369106709762
H           42.33808312757125       44.22566986407621       62.23783714798537
H           40.11965900206418       45.23304386606130       64.06224505228177
H           40.81757898157447       43.61240240238567       64.10301570823108
H           41.81329654674247       45.01645689409670       64.49854630828875
H           39.96730895044641       44.97766392584768       60.77947836920836
H           39.46181419763070       43.90396215462167       62.06772489310740
H           41.71263081571887       43.25102185729760       60.13553117136694
H           40.10136483341142       41.47778436850120       62.02225315094464
H           41.41167906217677       40.95068053893360       60.96437527235503
H           41.75204257526305       42.02412855924582       62.31764091846815
H           38.73124516292927       42.78316310910633       60.01403769043350
H           39.80810526157376       41.57585388691368       59.32859666535731
H           40.03479946812346       44.48419267875497       58.51915698442487
H           41.89900390200329       42.86640829242460       57.99142280935955
H           40.74885688461628       41.89240766111531       57.07703910779733
H           41.14719463692136       43.52920496049676       56.54900662228582
H           37.69822936434651       43.70536887486750       58.18245921689132
H           38.29713725362778       42.30113357868407       57.30587628701426
H           39.20109670613044       43.82708374259779       55.53983876477661
H           36.99604734121020       44.21911620027519       54.53303453205361
H           36.97181896667803       42.70096379095658       55.42010716935285
H           36.22492284540012       44.13746569943548       56.11890435143430
H           39.47084439789941       45.85719548160031       56.89453026932332
H           37.73753840393849       45.91475339441732       57.20116707552175
H           37.31497773283072       46.41362620160150       54.82883694966912
H           37.70684659045637       48.18111593862635       56.55797818730179
H           39.40344093524836       48.23797835699542       56.08587218118717
H           38.14442248148588       48.71991338375076       54.94255879332660
H           39.20596747038816       45.26625948192172       53.78841466244776
H           40.34751026103153       46.29418504274566       54.64872478594271
H           39.62151770840772       48.24025523878733       53.32921688776202
H           40.74781155771340       47.53527963817782       51.27428788957057
H           41.49769251793329       46.72573087536797       52.64106000002023
H           40.37206143752552       45.84252447623219       51.60916864579337
H           37.28179764218859       47.46669530039602       52.88825631493012
H           37.91861252511972       46.20129264863979       51.84297177471317
H           38.80939918371906       47.99907742518992       50.31264322150216
H           36.54070292216233       48.45157745215678       49.37326266152525
H           36.69497312230412       46.79104695976358       49.92531303816331
H           35.82100520130624       47.96890355188956       50.90667841869149
H           38.85242486772854       49.81414495610159       52.07334786686819
H           37.09813096731141       49.79047469307731       52.06918456598126
H           37.58070471196194       50.24009252505243       49.39934352304975
H           37.38047225176091       52.32272460941058       51.60910447161051
H           37.00617383914744       52.59097215087587       49.90797336063044
H           36.02501507974973       51.47694172928068       50.85731669586926
H           39.74398765308668       51.72874056765839       50.92848378451981
H           39.22129101098452       52.09191907531795       49.28940829688059
H           40.58038164234011       49.51965203535138       50.16241383408231
H           40.77337769902739       49.09476743744289       47.70806338688668
H           39.09498163230239       49.12277334279419       48.22446481783771
H           39.77816113399085       50.52046763379293       47.39265188922770
H           41.91564771461264       51.65620559865431       50.22698751822217
H           41.56607262954596       51.87957328508817       48.51590763460675
H           42.87260216289982       49.86123998571900       47.96520187457334
H           45.06797491962285       50.87666863435319       48.51058410931970
H           43.89146970451497       52.10824185857162       48.08125514182649
H           44.31059127744084       51.84603258001516       49.77542748241549
H           42.57472530417449       48.44205484852736       49.85592055599620
H           43.07431267146055       49.70016457417014       50.97889941203805
H           45.39933465528322       49.49011181205272       50.21341486295730
H           44.52359044267309       48.24456989861837       52.16860919327969
H           44.11461192035124       46.88364572528495       51.12454891007702
H           45.80151077771196       47.34196610205087       51.36128902519366
H           44.77372787444757       48.56876610416862       47.90200361149075
H           44.42234763902488       47.04199405291050       48.69687572319594
H           46.78591461609834       46.85962029188548       49.40944267721351
H           45.90840679694519       45.93315088799697       47.23498156953957
H           46.47606996516928       47.39180955796179       46.42807102434229
H           47.62779837614728       46.28473644741974       47.18251265415485
H           47.35752548352275       49.23267830044058       49.56340551201544
H           47.08369384431553       49.44783079394765       47.83430080384105
H           49.05011714364412       48.08484552164719       47.31966361777974
H           49.30142569699242       50.52145160295466       47.75726497821852
H           49.60183987886986       50.18385897698642       49.46109027105143
H           50.74841804763484       49.63357343663012       48.24202673995566
H           41.52239568093386       62.39522707581153       57.80504630750963
H           40.54614211401935       62.70546785202967       59.23961008918018
C           41.91224094626839       46.18821688015456       47.24207965022678
C           40.91461926647438       45.08738013993729       47.59168345847802
C           39.58752646564115       45.71331116290919       48.01953932335979
C           41.44056973683644       44.18442337395767       48.71501275610692
C           42.62546056613373       43.28397462065206       48.34453021110911
C           42.19871629496654       42.19372511468443       47.36167674064246
C           43.21565517262465       42.61939557944718       49.59833015798583
C           44.02256030783256       43.53591487627880       50.52496361615950
C           45.29821485574214       44.02788787387232       49.84172987322731
C           44.42450399112238       42.80116629172451       51.81143227663769
C           43.29054039240904       42.32371268371512       52.72595612879523
C           42.30442261498769       43.44754590687993       53.04489688652227
C           43.85532036134368       41.79241546849676       54.05210332047356
C           44.90880188697710       40.68235383167969       53.95846430043196
C           44.33558282209424       39.43185849985546       53.29416380459992
C           45.42172256242495       40.33216780916163       55.36331521878869
C           46.37821571762498       41.37223562410832       55.96701736989478
C           47.78862326800611       41.18339678488087       55.41221956457466
C           46.36105876967992       41.26908498036263       57.49673839612397
C           47.03006295728601       42.43598988442801       58.23356386816832
C           47.08426593354918       42.11543950976397       59.72699326012855
C           46.29802858085833       43.77104421735010       57.99182841873009
C           47.12698727643075       44.80248856686570       57.21648123383709
C           48.27809999240110       45.31558490467855       58.07985068940066
C           46.26595186079212       45.99648919142625       56.78034004712990
C           45.33785746910324       45.75050360264957       55.58543309753984
C           46.14301917034857       45.49627256054931       54.30995561741316
C           44.41245393972475       46.95396009064761       55.34392906400061
C           43.46036285597009       47.31692319801448       56.48803605272799
C           42.57202066246141       46.12942856796466       56.85389514484465
C           42.57091684031096       48.51243479087449       56.11315920726101
C           43.30348602858567       49.81811228323681       55.78229048890054
C           44.27655793802135       50.20330302436565       56.89579267330746
C           42.31802878378461       50.98145909728037       55.58323141826938
C           41.21334553523337       50.76772763965773       54.54342818307979
C           41.79087552276108       50.28145103517956       53.21638039198724
C           40.44689994019687       52.06858105967491       54.25787791824064
C           39.85509987443746       52.81549090633916       55.45536109561161
C           38.89491895261360       51.93148250196275       56.24962401977277
C           39.11314821337741       54.08009268162420       54.99581114065315
C           39.99508415797020       55.14328425072571       54.31003753630148
C           39.64640571190886       56.53017904502428       54.85205431897567
C           39.82754580199279       55.09877718510554       52.78342966101124
C           40.87079502355517       55.88997162966594       51.98223641495635
C           40.38821829860609       56.05334526761281       50.54145666737271
C           42.25460130729060       55.22351688161043       51.98517190263930
C           43.39776306607604       56.24240856235303       51.85148783018031
C           44.66381937220768       55.54095606433050       51.36119249143951
C           43.63805117493673       56.95498559147245       53.19508784720691
C           43.82929577041002       58.47772590831714       53.12134025335699
C           45.10226094044137       58.84114999581340       52.36568618684699
C           43.85459732720259       59.01056490410001       54.55991094906168
C           43.96059498852986       60.52802162652436       54.77881171010250
C           43.91908413367337       60.76744229587179       56.28767491794125
C           42.83798331313406       61.27638500716263       54.04623732998815
C           42.54920645471864       62.71468566984850       54.50490591745916
C           41.38067522652066       63.25739095259971       53.68321697578507
C           43.77044653646333       63.63075375440350       54.37048593782971
C           43.67199705767361       64.97605035911154       55.11093514446032
C           44.80366553648525       65.87937918937951       54.62704787884114
C           43.73899160730969       64.77867634057895       56.62940685512145
C           43.58692208564941       66.04617344954035       57.48184283420342
C           43.76341797702097       65.67174605506163       58.95405219881786
C           42.23143673377445       66.74825778327703       57.27649092786250
C           42.30116271473755       68.05117693471261       56.46989006080441
C           43.01428797484786       69.14132308542065       57.27128921754444
C           40.89758456513566       68.55151799276160       56.10146669397241
C           40.14141862078921       67.73714323945266       55.04357008914087
C           40.84425119805871       67.79632790213071       53.68811866824758
C           38.70884578744234       68.27886694276576       54.92374882474268
C           37.72338844944515       67.31004880714704       54.25356485036419
C           36.54699172193649       68.09155997567417       53.67131078979970
C           37.24035102698922       66.25889452972493       55.25973019510365
C           36.51372968937616       65.04607246859794       54.66147700497217
C           35.99103907698800       64.17246837533143       55.80339465768025
C           37.42679011224025       64.22045619792775       53.73972710302370
C           37.26714168351914       64.51549527511744       52.23946737264509
C           35.99376906260611       63.86979274108035       51.69940168996462
C           38.51583921144092       64.01354941383397       51.50446322938587
C           38.59196804201742       64.29025505952238       49.99670360423369
C           39.82828445709755       63.58623649833513       49.43669808853942
C           38.64751705151840       65.79899553847387       49.72838867384529
C           38.72153689161637       66.22856382617758       48.25548733030401
C           38.92486950067637       67.74233997460969       48.19789578981428
C           37.45445849547459       65.79822843087955       47.50664613936947
C           37.34922045074516       66.21310487435998       46.03121402381625
C           35.99202825019609       65.75936075124689       45.49135404168130
C           38.50271228072844       65.62608080154266       45.21229697345036
C           38.46795325095646       65.97184314719820       43.72494601472672
C           39.74645170271895       65.51809506351975       43.02977443715285
H           41.50425047987989       46.84013927381630       46.47262826159789
H           42.12880711491824       46.79212515623385       48.12083229869802
H           42.84465590808086       45.77521679700735       46.86601330828048
H           39.88124356225279       64.44407152114294       43.14444921356224
H           39.71319444952756       65.75064059426923       41.96752706478829
H           40.61034661766139       66.01582256601662       43.46492431319092
H           39.44536889090101       65.99659127110620       45.61788969344583
H           38.49832671089009       64.53889204933132       45.32300211650676
H           37.37780626693888       64.70958499396610       47.54933565019113
H           36.59203807402929       66.20983114123038       48.03850393273502
H           39.59311532450057       65.75478809691049       47.79811646771640
H           39.10686784921946       68.07630930730411       47.18034392344467
H           38.04777337582957       68.26037289697179       48.58039011782999
H           39.78216443278059       68.02991290328026       48.80357688592491
H           37.76630674905714       66.27078799524028       50.16711634698444
H           39.52471163676361       66.19975288859419       50.24505582643500
H           39.39508757279541       64.46281119865087       51.97263165722109
H           38.58509543475929       62.93361170424227       51.66002844683914
H           37.38942839477031       67.30463914761414       45.96093140958795
H           35.81539357125466       66.15325566201712       44.49435676378339
H           35.94026063110621       64.67296463885678       45.44681112870952