3795
 energy: -5103.642300503759 gnorm: 0.000918144674 xtb: 6.6.1 (8d0f1dd)
C          123.94270517817426      125.32790476728084       99.01096194551705
C          123.51595746323459      126.42258314252257       99.96837508127763
C          122.82916362429441      124.94169125343842       98.03351784243932
C          121.56697000786610      124.45849004665605       98.74739465372438
H          122.57917093364719      125.81699190800248       97.43317235664634
H          123.19515766006711      124.16120799311018       97.36539312848799
C          121.71461016144403      123.06304067533408       99.35676222598984
H          121.31679602027025      125.16538820837002       99.54170736658207
H          120.73064821441865      124.45020115732200       98.04629923161970
C          120.61031070048581      122.80576168227064      100.36422405783996
H          121.64926951722983      122.30959360808869       98.56925299644996
H          122.67642448107378      122.95162324870532       99.85349601899259
N          121.00694686758825      122.16192475989358      101.46515631454818
O          122.79736050608687      127.36020911127615       99.39608084632657
O          123.81920692653263      126.42462804166777      101.14550434986880
H          122.44321123329742      128.06436108295424      100.03380981384470
H          124.27348033052510      124.47387540992689       99.60221557423418
H          124.80030358989654      125.70655160104313       98.45093155296428
C          120.14302942969724      121.91683476535833      102.59823181558403
H          121.98560431712809      121.91383666352871      101.56074917511140
C          120.66596782072688      122.58001619180413      103.87146123520860
H          119.16187194149956      122.32155571087884      102.33941629383291
H          120.04902643281470      120.84021265565544      102.76069777593011
C          121.81296602153229      121.79360465872730      104.50199232361027
H          121.00473823642533      123.58835679190419      103.62637459698276
H          119.83441307355147      122.65814353198392      104.57198777405223
C          122.45014334066272      122.51822867402930      105.68883842519304
H          121.44948852995471      120.81953985687173      104.83665691950814
H          122.57537101261916      121.61393436087504      103.74214179829184
C          121.46812201908212      122.76101561622879      106.84126308909802
H          123.27672494666461      121.90910995879595      106.05312278400532
H          122.86072116435184      123.47264171715699      105.35337461839538
C          120.85671785136665      124.15772876670304      106.80080626022151
H          120.66513357075586      122.02440473917822      106.78978193275158
H          121.97184750659473      122.62638413732363      107.79821691824563
N          119.79096587778834      124.26136323071792      107.77265849181742
H          121.60242138444757      124.91800304778934      107.04943265699202
H          120.47172248840290      124.37662347691203      105.80022995545379
C          119.28401081468235      125.42748334334391      108.18404410057830
H          119.20815633097233      123.44612690523790      107.88639125520142
O          119.44724785395623      123.16465989859466      100.17944329813803
C          118.16809922996974      125.29824148147755      109.19616945608770
C          118.56106010654051      124.35928494054660      110.33940332970380
H          117.94306459965320      126.29119517883827      109.58572678681325
H          117.29565442520959      124.91304195031040      108.66581045711698
C          117.57393715842041      124.36924465014204      111.50478592983757
H          118.64530531794770      123.33626717576762      109.97465616900712
H          119.53903021070691      124.66565985714421      110.71833182616760
C          116.17811888982433      123.87948304983232      111.12853636572555
H          117.96991255540972      123.71791453731234      112.28477868778820
H          117.50215911948291      125.37923751717587      111.91336299733769
C          116.15639787110122      122.42729859313962      110.68227742869462
H          115.52167162182728      123.96359410112157      111.99881592909530
H          115.75145483360374      124.49464303191296      110.33728834778837
N          115.04826123167932      122.08717035925417      110.01675395216739
C          114.79451487642913      120.75635982188780      109.50877885129722
H          114.32266025056704      122.77699791342035      109.88347343228821
O          119.72771722604996      126.51221103928522      107.80747011618489
C          113.73115060985789      120.01462733561935      110.32406202320800
H          114.47970797777232      120.85980666735739      108.46951340348366
H          115.74024577080414      120.21354501956938      109.54896662913882
C          113.08149413539689      118.87169604942494      109.54265826665413
H          114.19363816390715      119.61517186530315      111.22642738745077
H          112.96350072572167      120.72337782696472      110.64175473534090
C          112.43159675152479      119.35041858480849      108.24365197641369
H          113.82929520287553      118.10983046434879      109.32944457125112
H          112.31895668223851      118.42374176285504      110.18162734576164
C          111.31596851154121      118.44132787886046      107.73639641120515
H          112.01075229672398      120.34046636299905      108.41773473933246
H          113.18308967239624      119.44346182536114      107.45794852446588
C          110.64848456665175      119.08012835790987      106.52345741667186
N          109.43304051974948      118.39025016685672      106.15391634403619
H          110.40809011237852      120.12448164836447      106.75838061564863
H          111.31430687856100      119.07609006973365      105.65852357217294
C          108.97754022407155      118.34823409754131      104.90097812001666
H          108.86376647392559      118.06938049355989      106.92962515711812
O          117.06325235661576      121.63436322152219      110.91220125335984
C          107.61294383052254      117.70251449931291      104.74243655610410
C          106.50615467620221      118.73308830577373      104.99997256337566
H          107.53002400641815      117.32671759881249      103.72102628135977
H          107.51050084336289      116.86664526837006      105.43395741361560
C          105.12521262637335      118.15077677883190      104.69830166220831
H          106.55000248140219      119.06586415612014      106.03836456430615
H          106.67464334749523      119.60784208097266      104.36875576933681
C          104.02950766765582      119.21930587969902      104.58874946025227
H          105.16509127751364      117.62057414909022      103.74420660503165
H          104.86400722776624      117.42428317870403      105.46977929769459
C          103.77547094210772      119.95298149992846      105.89277565944296
H          104.31566252437693      119.96565201060271      103.84678553879907
H          103.10217181589184      118.74670222054375      104.26076911873376
N          102.94708600553832      119.30663773738570      106.73853972636189
C          102.62858837211523      119.81303418043221      108.05634268499126
H          102.64216762308985      118.37283054463391      106.51161728765548
H          111.71389363467989      117.46097433471631      107.47371390527712
H          110.55836712852393      118.30130772321304      108.50775311551013
O          109.60404000198825      118.79899455357243      103.94208861699667
O          104.25349396490898      121.04676766974463      106.14847819692197
C          103.55518255795536      119.23180426788524      109.12539270868737
H          102.76542990460457      120.89621101591239      108.01306363166742
H          101.58155809283055      119.59682097898224      108.28070094623598
C          103.43220404403638      119.96116807722413      110.46112625123062
H          103.34549928400298      118.17026793099136      109.26719993568101
H          104.58266905280659      119.32670844748752      108.76680123031620
C          104.52029617381733      119.48368318559224      111.41667990652056
H          103.53358888204626      121.03581183715093      110.30161920727222
H          102.44497384886809      119.79201482630820      110.89339513581564
C          104.51947751340415      120.20853707893721      112.76047777945524
H          104.40299821625990      118.41196485422223      111.58711006075600
H          105.48814356518967      119.63163404185103      110.93658892690132
C          105.60643336129883      119.62602545854689      113.65752350285955
H          104.69160896585660      121.27604056514731      112.62047886381131
H          103.54922772460972      120.09230779246346      113.24378870333149
N          105.45331626031269      120.00024884898467      115.04565201386235
H          105.58673188972379      118.53007054223863      113.57623431149518
H          106.59349750632408      119.97233571461568      113.34316963891602
C          106.50276942038083      120.16157530302232      115.86032537486221
H          104.52184624979279      119.95723220236921      115.44494283418940
C          106.14563092118217      120.35015430522621      117.31770706294085
C          106.20198330894632      118.99984676884161      118.04006093738741
H          106.86045547986660      121.03518234163828      117.77317288092841
H          105.14690676113189      120.77648247890565      117.39842686882656
C          105.16417515720079      118.02009774922668      117.50127912058764
H          107.20073093911846      118.57190749648309      117.92835043737206
H          106.02709191798095      119.16302316482017      119.10556088094596
C          105.17522485034111      116.71783310308727      118.30545237576952
H          104.17264048070182      118.47444582914945      117.54959615765047
H          105.37993960782804      117.79389279377656      116.45615518220065
C          104.17686102663276      115.74861670108181      117.72077112128855
H          106.17687977850738      116.28557686082853      118.27896650426371
H          104.90715668517011      116.93897258579346      119.33752610434907
N          102.95340844588172      115.82958735639134      118.23867892789514
C          101.83768205268323      115.01446413889624      117.79818805066054
H          102.79613800161039      116.46302439559123      119.01490576945341
O          107.66468333851478      120.11907517086220      115.46814978870775
C          100.51885139492528      115.62503377000063      118.25134933471074
H          101.87601584375966      114.93600460262785      116.70800014558820
H          101.94115973166848      114.00329628861481      118.21001142116809
C          100.14574908304509      116.87958460574023      117.46295398445231
H           99.72563190356750      114.88474452102764      118.14709921186513
H          100.60024665216093      115.88045181737253      119.31045058789063
C           99.06299961148079      117.68172406301734      118.17751472348976
H          101.02637785194020      117.51393185168055      117.33794647741774
H           99.77737319152875      116.60223339998269      116.47403817614514
C           98.52485713079166      118.81265743129046      117.30438155514288
H           98.23681921594037      117.02264515858343      118.45174410803079
H           99.47190629219396      118.09636700182193      119.10297928726951
C           97.74210899484487      119.83444875880132      118.13076074333671
H           99.35769052874913      119.32484962061748      116.81645042113828
H           97.88772358554610      118.39592705352986      116.52389961317660
N           98.64447185663153      120.63130899884020      118.93581202560269
H           97.17532596115841      120.50311238920223      117.47713425807693
H           97.05289897502358      119.33390312621925      118.81297070640231
O          104.46433464382928      114.94506828263421      116.82807166355963
C           98.84235158440187      120.47235744613926      120.25411976686109
H           99.32255754394599      121.17059820828601      118.41827539113139
C          100.03173702144743      121.25120973267879      120.79390416915929
C          101.35511522266660      120.68685123643786      120.26679436828167
H           99.93461313040004      122.30036922097484      120.50918860466032
H          100.01219352814907      121.18307101856333      121.88234950882941
C          102.55799606205463      121.41234224146655      120.86696538337391
H          101.42294672813109      119.62526354063282      120.51511661180304
H          101.39926472678462      120.77203782044583      119.17868575101539
C          103.86663831349354      120.92183131182541      120.23788695495266
H          102.45994238259134      122.48911784863095      120.71133302491160
H          102.59092965461730      121.23114782935339      121.94380205175574
C          105.04722586173166      121.37322665265243      121.07470616276237
H          103.85555219231334      119.82955355741387      120.23003483132349
H          103.95359538144784      121.28863627830398      119.21674320096994
N          105.77674817696682      122.37914014406107      120.57636254483270
O           98.12527570752115      119.78121913211484      120.96748746634384
C          106.89416093440154      122.94935336949725      121.30426009441850
H          105.54683542702003      122.80411263195049      119.68611038438007
C          107.98970381468982      123.41548204860850      120.35400125225624
H          106.54317850330084      123.79542005542622      121.90863470394368
H          107.25929234863688      122.17658465276770      121.98696066945446
C          109.19326996429884      123.99600237419946      121.09570317661363
H          108.30916400665927      122.56825536297984      119.74375472052084
H          107.56513515436197      124.17191520654900      119.69196606460224
C          110.14382225471458      124.72006481161705      120.14120158155643
H          108.84348487368568      124.70108324725072      121.85223315209710
H          109.71729296676001      123.18871979934931      121.60872934119584
C          111.42572758036721      125.20850303280966      120.81831223110989
H          110.40561221986999      124.05605483135150      119.31540561410564
H          109.61859042268182      125.57828892002264      119.71999277368091
C          112.42140590335393      124.07944574768608      121.05030767139634
H          111.89806726369757      125.96947008155060      120.19512204909165
H          111.18062086817302      125.67381601272521      121.77473641835215
N          113.62213079722916      124.57560762156238      121.69341996421731
H          111.96738695388584      123.29421976456608      121.66463204552517
H          112.72525271006148      123.63037528157804      120.10126789714150
C          114.79565097719696      123.95724665802676      121.55491719827494
H          113.51015871750415      125.32162212756809      122.37244500396085
O          105.30346525082113      120.84838470362330      122.15638420166719
C          115.99071946132355      124.60670978397388      122.22421640063189
C          116.93038294334708      125.10697993434005      121.12003647745408
H          115.67668590649122      125.42237482881464      122.87326943475485
H          116.50563452390773      123.85171785485898      122.81970934586170
C          118.33135473138563      125.47878654335888      121.59880179284168
H          117.01397860597996      124.30968685465740      120.37824358356006
H          116.47646134692977      125.97515617618114      120.63751311198953
C          119.14998538588166      124.25750386176820      122.00976714674157
H          118.85252463957042      125.98894253431835      120.78448091740317
H          118.26525407210204      126.18415350834066      122.42897947822937
C          120.63894066617414      124.52949727104695      122.06701377597101
H          118.82734282110023      123.86362286938038      122.97223029761093
H          119.00400829514784      123.47136882826138      121.26645219823706
N          121.33788422187698      123.60805192876172      122.73336363564206
C          122.76132879571389      123.73101807919154      122.98701945727832
H          120.82073141411411      122.87873495200681      123.22356485224459
O          114.91815128034636      122.93512638414255      120.87984696064871
C          123.38989136263204      122.38138346434597      123.31891788174032
H          123.22560055244610      124.15577103080447      122.09245390797611
H          122.92284394837471      124.44260003131767      123.80549758043541
C          124.87880066069371      122.49234718418008      123.66039735685625
H          122.85327461877378      121.91915021787592      124.14781702574015
H          123.28775562664794      121.73201893333443      122.44887960943120
C          125.18612735282488      123.00792742300595      125.06650894298184
H          125.34038543807164      121.50973390116324      123.55713465113091
H          125.35502611780853      123.15765139539350      122.93849985772489
C          124.74721420109776      122.04676268631660      126.17287509937645
H          126.26504554425247      123.15826477837277      125.14723535108926
H          124.71609893763325      123.98114026159651      125.22225246064001
C          125.51555945591086      122.26747340989679      127.47721502812756
H          123.68191929470491      122.15915788025156      126.36982825529161
H          124.92905938551995      121.01764194660861      125.86162091284471
N          125.40688143338024      123.62506598884296      127.95729145951744
H          125.14469884711379      121.58285726468256      128.24585026099962
H          126.57849624230242      122.07067673288398      127.32622798585518
C          126.43320981341604      124.49012757175520      127.97719742838170
H          124.48704941149963      123.95815910306909      128.21663046602077
O          121.16994871972241      125.49660207579770      121.51221474382317
C          126.01201542467346      125.90169191250547      128.33764234267915
C          125.35531757203768      126.54042493815049      127.10551622297164
H          125.30418894441303      125.85107303622601      129.16320509694938
H          126.88423696689712      126.47559415238199      128.64831885909493
C          124.43812700659178      127.72109747062825      127.42064641809692
H          126.13662465173830      126.86445604716876      126.41643383854220
H          124.76321821216860      125.78431798538887      126.58647629230219
C          123.28579858911165      127.35190875113794      128.36575165974125
H          125.01138493607067      128.53393996697736      127.86814822206051
H          124.02717249877591      128.07409172080963      126.47413504316914
C          122.64647841727295      126.02122988398585      128.02323461477039
H          123.64142608046589      127.29230142037430      129.39535765881223
H          122.52187771195365      128.12906974558160      128.31680544055257
N          121.98395911955313      125.97284099689162      126.86910005306910
O          127.58534480370352      124.17779937173185      127.69889270079278
C          121.28546796102860      124.78460967063513      126.43015915164789
H          122.12115484522990      126.69895308135202      126.17368432068309
C          120.05120825340764      125.13243749046408      125.60592442185508
H          121.95913615913227      124.15781062037870      125.83340919904451
H          121.00150332334677      124.22670931414778      127.32729108307461
C          119.03625445642247      125.95127803962234      126.40004820532340
H          120.36110405533644      125.69360547999987      124.72182736147271
H          119.59543873761412      124.19818470831260      125.27293821710764
C          117.74525144280425      126.18901301833448      125.62057267406122
H          118.79542978775210      125.42898356048897      127.32887236236184
H          119.47921725606133      126.91237215366554      126.66854358487393
C          116.81066266965273      127.13836293912446      126.36714876414182
H          117.98334342566524      126.61404409632834      124.64369997308168
H          117.24008923932963      125.23569740675484      125.45989920738921
C          115.43504014791070      127.25012441935287      125.71928706534084
H          116.68128388848774      126.78671164111584      127.39301994321657
H          117.25991751154585      128.13158670977595      126.40745531060848
N          114.65065873999468      126.05608297941140      125.96124042548635
H          114.90408742294109      128.11767641685512      126.13148530077189
H          115.51675761862309      127.39396534739988      124.63797113766456
C          113.65292430244821      125.64125097622704      125.17764887509644
H          114.85709128408335      125.53564609660097      126.80673647717688
O          122.71425006840022      125.05157151729982      128.78603531362754
C          112.88176568198659      124.46257214889542      125.74758136768409
C          112.26743238403522      123.57879547900488      124.66576933711880
H          113.54777739211882      123.88524588159591      126.38867007716348
H          112.09187212797063      124.87563295503647      126.38080892588772
C          111.63044039881902      122.32165006328748      125.25744067358012
H          111.52145797829600      124.15112132153624      124.11314330544158
H          113.05196303370943      123.28822293455944      123.96582735972906
C          111.06768573200610      121.42668416030369      124.15628513365412
H          112.39395144624721      121.77878866596444      125.81936027920898
H          110.83956497500843      122.62070513343865      125.94810904471329
C          110.65539554330373      120.02022380332207      124.55450406876732
H          110.18839004064982      121.89762610464935      123.70777723712600
H          111.80908716521373      121.31279860109514      123.36090848363045
N          110.51129525644349      119.76954560486209      125.85891010070807
C          110.10405690038675      118.47865782808934      126.37724911278120
H          110.59083790703200      120.51687515171209      126.52988718811234
O          113.37516823059838      126.17065417676790      124.10201839321309
C          110.65383521916910      118.23535587792634      127.77662164551191
H          109.00918671386430      118.42120927750449      126.40294076329182
H          110.46212144881503      117.71180647849498      125.68646146429779
C          112.17697222669693      118.10942304324017      127.82081802550795
H          110.33138086292495      119.04242241591221      128.43845248868908
H          110.21563552679078      117.30372936931376      128.13811450238606
C          112.65606423396854      117.94621254096043      129.26492873886994
H          112.46851764917866      117.23888540108673      127.22999925963951
H          112.63955947102792      118.98794480529735      127.36885076897318
C          114.08500574142880      117.42259882422874      129.40368025264351
H          112.56947413592162      118.90132915716272      129.78644974487020
H          111.99196726924980      117.23707730875591      129.76438859204981
C          115.15279388325652      118.37089544841697      128.87137693632650
H          114.28796549335050      117.23659081007018      130.46061630083241
H          114.17559797314782      116.47037817917284      128.87685366444080
N          116.46508414297506      117.82424710540404      129.15774313889361
H          115.03874644922058      118.49941681645998      127.78849325807745
H          115.07500146379749      119.35522507500411      129.34298266355106
C          117.58994410285072      118.54097770582428      129.19705098440670
H          116.51523261858281      116.82096487304626      129.29787228602436
O          110.46674897728732      119.15962359177752      123.69778588951772
C          118.84293734194900      117.72504046037000      129.45490956098760
C          119.53450088060887      118.12187263445013      130.76272960207393
H          118.58644230454694      116.66612754968475      129.48142343793430
H          119.53062946613983      117.90263383770696      128.62404354118974
C          120.77585241121059      117.26406064435686      130.98182819037470
H          119.81953891985373      119.17511971558397      130.73243741418392
H          118.84143110674314      117.98751194904220      131.59557869741408
C          121.57300542118656      117.66133782794660      132.22356950555314
H          120.47921575548263      116.21860265768579      131.07600787328744
H          121.42985434967116      117.35002448548265      130.11168633807387
C          122.73400876074773      116.70773239025407      132.42535132211842
H          121.91950844687845      118.69005549199942      132.12806459648718
H          120.93054198014340      117.59701742654163      133.10537551884568
N          123.85718374781423      117.24922803782646      132.91504890542086
O          117.61776707930768      119.75877352242655      129.02385558598706
C          125.07190484814463      116.48238652447208      133.11502485718654
H          123.89792434472059      118.24327416194522      133.07647823382558
C          125.76892723272947      116.79610402115806      134.43542411706090
H          124.77501606963121      115.43103426097066      133.10411725392692
H          125.75413841384714      116.66046003821816      132.27770341806507
C          126.94039366386691      115.83930006407437      134.67517150563768
H          126.13063252007598      117.82613442639304      134.42914171588421
H          125.04825972912344      116.69317350994235      135.24922377228586
C          128.12125561080606      116.09283869375963      133.73824526040497
H          127.27720218436720      115.93915432569142      135.70900732024901
H          126.58870251838371      114.81408310277182      134.54210296166565
C          129.15757013355963      114.97136258214321      133.80528559153890
H          127.76076924889990      116.18291767015135      132.71534002042267
H          128.59601501813032      117.04030986296006      134.00623737008061
C          130.34356391166565      115.21643409160301      132.87342593444384
H          129.53399628782631      114.88550504066873      134.82666308529463
H          128.68739512316569      114.02527904096115      133.53651873291523
N          129.98254363477378      115.04602435640366      131.46464731772051
H          130.74714680963433      116.22059797151027      133.07795067500197
H          131.13365392883736      114.49001842741801      133.09180521448440
H          130.74123712468025      115.40690252268867      130.89359319651396
H          129.16754844602082      115.61949868933503      131.25171581043116
O          122.64989820209809      115.50859725406214      132.16484710762586
C          125.28988621701218      116.55209370337478      116.05344125697047
C          126.63622283028475      116.75129806578947      116.70291989781187
C          125.06552909162356      117.50689646956839      114.87131213569080
C          125.45526554261662      116.89477842552145      113.52662420487270
H          124.01051144990311      117.77841539341885      114.82231140451739
H          125.63596166374602      118.42127860781490      115.04316131730273
C          126.89623092760662      116.38299701997208      113.50251578063988
H          124.77840842459702      116.07051727712745      113.30695637130323
H          125.32565849594614      117.65634208533837      112.75332148297139
C          127.40247293459498      116.10731841260491      112.09976019850284
H          127.56349296840669      117.12016854668262      113.95542316073247
H          126.96936901422553      115.46298961038477      114.08635539682489
N          126.57918732277219      115.43209458296965      111.29871977064121
O          126.84797861078461      117.99188544447168      117.09904712649805
O          127.44981550050561      115.86665983764186      116.87391642127321
H          127.72662389475202      118.08010871377596      117.57745706904511
H          124.54552981057094      116.74555832057644      116.82770857415852
H          125.21219708211480      115.51071547165756      115.74129590994677
C          126.87006548355473      115.22616459018442      109.89432970653161
H          125.65368075916744      115.15883485116562      111.60529902175477
C          126.10453219594871      114.03361828482443      109.33480462407468
H          126.58551388926973      116.12777393167715      109.34080617772568
H          127.95030738009959      115.09603457658051      109.79590546532553
C          126.02877148558203      114.07437724949108      107.80898671855093
H          126.57862818012298      113.10669238135733      109.65733003395916
H          125.09493516791007      114.04975013223695      109.74713445017167
C          127.41215504442511      114.06349751316694      107.15898912488463
H          125.46454866133736      113.20573810615358      107.46541814473355
H          125.48871250252695      114.97161703068205      107.50602993242606
C          127.36626491122632      113.86900008494271      105.64558879843315
H          127.93657800632684      114.99319485125592      107.38008564851552
H          128.00201810979939      113.25262714104333      107.58700935470868
C          126.76904627303227      115.05625871603040      104.89974802534594
H          128.38180725554838      113.70887903074441      105.28057034582051
H          126.78246520644301      112.98133513190976      105.40441221147792
N          126.97573936009938      114.86930210649027      103.47622822356868
H          125.69957678690405      115.14286791829791      105.11146342381650
H          127.26681171464489      115.97535856400940      105.22956002335114