      -----------------------------------------------------------      
     |                   =====================                   |     
     |                           x T B                           |     
     |                   =====================                   |     
     |                         S. Grimme                         |     
     |          Mulliken Center for Theoretical Chemistry        |     
     |                    University of Bonn                     |     
      -----------------------------------------------------------      

   * xtb version 6.6.1 (8d0f1dd) compiled by 'stahn@M-Bot' on 2023-08-01

   xtb is free software: you can redistribute it and/or modify it under
   the terms of the GNU Lesser General Public License as published by
   the Free Software Foundation, either version 3 of the License, or
   (at your option) any later version.
   
   xtb is distributed in the hope that it will be useful,
   but WITHOUT ANY WARRANTY; without even the implied warranty of
   MERCHANTABILITY or FITNESS FOR A PARTICULAR PURPOSE.  See the
   GNU Lesser General Public License for more details.
   
   Cite this work as:
   * C. Bannwarth, E. Caldeweyher, S. Ehlert, A. Hansen, P. Pracht,
     J. Seibert, S. Spicher, S. Grimme, WIREs Comput. Mol. Sci., 2020, 11,
     e01493. DOI: 10.1002/wcms.1493
   
   for GFN2-xTB:
   * C. Bannwarth, S. Ehlert and S. Grimme., J. Chem. Theory Comput., 2019,
     15, 1652-1671. DOI: 10.1021/acs.jctc.8b01176
   for GFN1-xTB:
   * S. Grimme, C. Bannwarth, P. Shushkov, J. Chem. Theory Comput., 2017,
     13, 1989-2009. DOI: 10.1021/acs.jctc.7b00118
   for GFN0-xTB:
   * P. Pracht, E. Caldeweyher, S. Ehlert, S. Grimme, ChemRxiv, 2019, preprint.
     DOI: 10.26434/chemrxiv.8326202.v1
   for GFN-FF:
   * S. Spicher and S. Grimme, Angew. Chem. Int. Ed., 2020, 59, 15665-15673.
     DOI: 10.1002/anie.202004239
   
   for ALPB and GBSA implicit solvation:
   * S. Ehlert, M. Stahn, S. Spicher, S. Grimme, J. Chem. Theory Comput.,
     2021, 17, 4250-4261. DOI: 10.1021/acs.jctc.1c00471
   
   for DFT-D4:
   * E. Caldeweyher, C. Bannwarth and S. Grimme, J. Chem. Phys., 2017,
     147, 034112. DOI: 10.1063/1.4993215
   * E. Caldeweyher, S. Ehlert, A. Hansen, H. Neugebauer, S. Spicher,
     C. Bannwarth and S. Grimme, J. Chem. Phys., 2019, 150, 154122.
     DOI: 10.1063/1.5090222
   * E. Caldeweyher, J.-M. Mewes, S. Ehlert and S. Grimme, Phys. Chem. Chem. Phys.
     2020, 22, 8499-8512. DOI: 10.1039/D0CP00502A
   
   for sTDA-xTB:
   * S. Grimme and C. Bannwarth, J. Chem. Phys., 2016, 145, 054103.
     DOI: 10.1063/1.4959605
   
   in the mass-spec context:
   * V. Asgeirsson, C. Bauer and S. Grimme, Chem. Sci., 2017, 8, 4879.
     DOI: 10.1039/c7sc00601b
   * J. Koopman and S. Grimme, ACS Omega 2019, 4, 12, 15120-15133.
     DOI: 10.1021/acsomega.9b02011
   
   for metadynamics refer to:
   * S. Grimme, J. Chem. Theory Comput., 2019, 155, 2847-2862
     DOI: 10.1021/acs.jctc.9b00143
   
   for SPH calculations refer to:
   * S. Spicher and S. Grimme, J. Chem. Theory Comput., 2021, 17, 1701-1714
     DOI: 10.1021/acs.jctc.0c01306
   
   with help from (in alphabetical order)
   P. Atkinson, C. Bannwarth, F. Bohle, G. Brandenburg, E. Caldeweyher
   M. Checinski, S. Dohm, S. Ehlert, S. Ehrlich, I. Gerasimov, C. Hölzer
   A. Katbashev, J. Koopman, C. Lavigne, S. Lehtola, F. März, M. Müller,
   F. Musil, H. Neugebauer, J. Pisarek, C. Plett, P. Pracht, F. Pultar,
   J. Seibert, P. Shushkov, S. Spicher, M. Stahn, M. Steiner, T. Strunk,
   J. Stückrath, T. Rose, and J. Unsleber
   
 * started run on 2024/10/04 at 14:12:37.425     

           -------------------------------------------------
          |                Calculation Setup                |
           -------------------------------------------------

          program call               : /home/abt-grimme/AK-bin/xtb input.xyz --input input.inp --opt
          hostname                   : boar041.thch.uni-bonn.de
          coordinate file            : input.xyz
          omp threads                :                     8

   ID    Z sym.   atoms
    1    6 C      1-90, 273-362, 545-634, 817-906, 1089-1178, 1361-1450,
                  1633-1722, 1905-1994, 2177-2266, 2449-2538, 2721-2810,
                  2993-3082, 3265-3354
    2    1 H      91-272, 363-544, 635-816, 907-1088, 1179-1360, 1451-1632,
                  1723-1904, 1995-2176, 2267-2448, 2539-2720, 2811-2992,
                  3083-3264, 3355-3536

molecular fragmentation (1/2 indicates fragments):
111111111111111111111111111111111111111111111111111111111111111111111111
111111111111111111111111111111111111111111111111111111111111111111111111
111111111111111111111111111111111111111111111111111111111111111111111111
111111111111111111111111111111111111111111111111111111112222222222222222
222222222222222222222222222222222222222222222222222222222222222222222222
222222222222222222222222222222222222222222222222222222222222222222222222
222222222222222222222222222222222222222222222222222222222222222222222222
222222222222222222222222222222222222222222222222222222222222222222222222
222222222222222222222222222222222222222222222222222222222222222222222222
222222222222222222222222222222222222222222222222222222222222222222222222
222222222222222222222222222222222222222222222222222222222222222222222222
222222222222222222222222222222222222222222222222222222222222222222222222
222222222222222222222222222222222222222222222222222222222222222222222222
222222222222222222222222222222222222222222222222222222222222222222222222
222222222222222222222222222222222222222222222222222222222222222222222222
222222222222222222222222222222222222222222222222222222222222222222222222
222222222222222222222222222222222222222222222222222222222222222222222222
222222222222222222222222222222222222222222222222222222222222222222222222
222222222222222222222222222222222222222222222222222222222222222222222222
222222222222222222222222222222222222222222222222222222222222222222222222
222222222222222222222222222222222222222222222222222222222222222222222222
222222222222222222222222222222222222222222222222222222222222222222222222
222222222222222222222222222222222222222222222222222222222222222222222222
222222222222222222222222222222222222222222222222222222222222222222222222
222222222222222222222222222222222222222222222222222222222222222222222222
222222222222222222222222222222222222222222222222222222222222222222222222
222222222222222222222222222222222222222222222222222222222222222222222222
222222222222222222222222222222222222222222222222222222222222222222222222
222222222222222222222222222222222222222222222222222222222222222222222222
222222222222222222222222222222222222222222222222222222222222222222222222
222222222222222222222222222222222222222222222222222222222222222222222222
222222222222222222222222222222222222222222222222222222222222222222222222
222222222222222222222222222222222222222222222222222222222222222222222222
222222222222222222222222222222222222222222222222222222222222222222222222
222222222222222222222222222222222222222222222222222222222222222222222222
222222222222222222222222222222222222222222222222222222222222222222222222
222222222222222222222222222222222222222222222222222222222222222222222222
222222222222222222222222222222222222222222222222222222222222222222222222
222222222222222222222222222222222222222222222222222222222222222222222222
222222222222222222222222222222222222222222222222222222222222222222222222
222222222222222222222222222222222222222222222222222222222222222222222222
222222222222222222222222222222222222222222222222222222222222222222222222
222222222222222222222222222222222222222222222222222222222222222222222222
222222222222222222222222222222222222222222222222222222222222222222222222
222222222222222222222222222222222222222222222222222222222222222222222222
222222222222222222222222222222222222222222222222222222222222222222222222
222222222222222222222222222222222222222222222222222222222222222222222222
222222222222222222222222222222222222222222222222222222222222222222222222
222222222222222222222222222222222222222222222222222222222222222222222222
22222222
# atoms in fragment 1/2:   272  3264
 fragment masses (1/2) :     1264.41    15172.94
CMA distance (Bohr)    :  22.576
constraining FC (au)   :  0.0500

           -------------------------------------------------
          |                 G F N 2 - x T B                 |
           -------------------------------------------------

        Reference                      10.1021/acs.jctc.8b01176
      * Hamiltonian:
        H0-scaling (s, p, d)           1.850000    2.230000    2.230000
        zeta-weighting                 0.500000
      * Dispersion:
        s8                             2.700000
        a1                             0.520000
        a2                             5.000000
        s9                             5.000000
      * Repulsion:
        kExp                           1.500000    1.000000
        rExp                           1.000000
      * Coulomb:
        alpha                          2.000000
        third order                    shell-resolved
        anisotropic                    true
        a3                             3.000000
        a5                             4.000000
        cn-shift                       1.200000
        cn-exp                         4.000000
        max-rad                        5.000000


          ...................................................
          :                      SETUP                      :
          :.................................................:
          :  # basis functions                7046          :
          :  # atomic orbitals                7046          :
          :  # shells                         4706          :
          :  # electrons                      7046          :
          :  max. iterations                   250          :
          :  Hamiltonian                  GFN2-xTB          :
          :  restarted?                      false          :
          :  GBSA solvation                  false          :
          :  PC potential                    false          :
          :  electronic temp.          300.0000000     K    :
          :  accuracy                    1.0000000          :
          :  -> integral cutoff          0.2500000E+02      :
          :  -> integral neglect         0.1000000E-07      :
          :  -> SCF convergence          0.1000000E-05 Eh   :
          :  -> wf. convergence          0.1000000E-03 e    :
          :  Broyden damping             0.4000000          :
          ...................................................

 iter      E             dE          RMSdq      gap      omega  full diag
   1  -3766.7357131 -0.376674E+04  0.226E+00   11.52       0.0  T
   2  -3771.8014984 -0.506579E+01  0.126E+00   11.50       1.0  T
   3  -3772.0139904 -0.212492E+00  0.559E-01   11.48       1.0  T
   4  -3772.0357756 -0.217853E-01  0.142E-01   11.46       1.0  T
   5  -3772.0553083 -0.195326E-01  0.511E-02   11.46       1.0  T
   6  -3772.0553302 -0.219108E-04  0.729E-03   11.46       1.0  T
   7  -3772.0553621 -0.319664E-04  0.152E-03   11.46       1.1  T
   8  -3772.0553640 -0.188387E-05  0.546E-04   11.46       3.1  T
   9  -3772.0553641 -0.960085E-07  0.183E-04   11.46       9.2  T
  10  -3772.0553641 -0.152327E-07  0.698E-05   11.46      24.1  T

   *** convergence criteria satisfied after 10 iterations ***

         #    Occupation            Energy/Eh            Energy/eV
      -------------------------------------------------------------
         1        2.0000           -0.6264248             -17.0459
       ...           ...                  ...                  ...
      3517        2.0000           -0.3955827             -10.7644
      3518        2.0000           -0.3950921             -10.7510
      3519        2.0000           -0.3945175             -10.7354
      3520        2.0000           -0.3939223             -10.7192
      3521        2.0000           -0.3938888             -10.7183
      3522        2.0000           -0.3937320             -10.7140
      3523        2.0000           -0.3929050             -10.6915 (HOMO)
      3524                          0.0282309               0.7682 (LUMO)
      3525                          0.0298360               0.8119
      3526                          0.0310577               0.8451
      3527                          0.0314449               0.8557
      3528                          0.0319734               0.8700
       ...                                ...                  ...
      7046                          0.3792614              10.3202
      -------------------------------------------------------------
                  HL-Gap            0.4211358 Eh           11.4597 eV
             Fermi-level           -0.1823370 Eh           -4.9616 eV

 SCC (total)                   0 d,  0 h, 16 min, 56.411 sec
 SCC setup                      ...        0 min,  0.495 sec (  0.049%)
 Dispersion                     ...        0 min,  4.084 sec (  0.402%)
 classical contributions        ...        0 min,  0.159 sec (  0.016%)
 integral evaluation            ...        0 min,  7.355 sec (  0.724%)
 iterations                     ...       12 min, 27.460 sec ( 73.539%)
 molecular gradient             ...        4 min,  5.786 sec ( 24.182%)
 printout                       ...        0 min, 11.074 sec (  1.089%)

         :::::::::::::::::::::::::::::::::::::::::::::::::::::
         ::                     SUMMARY                     ::
         :::::::::::::::::::::::::::::::::::::::::::::::::::::
         :: total energy           -3716.263809792982 Eh    ::
         :: gradient norm              0.019265763401 Eh/a0 ::
         :: HOMO-LUMO gap             11.459689081128 eV    ::
         ::.................................................::
         :: SCC energy             -3772.055364123497 Eh    ::
         :: -> isotropic ES            0.587491616093 Eh    ::
         :: -> anisotropic ES          1.291553702404 Eh    ::
         :: -> anisotropic XC          2.078711433163 Eh    ::
         :: -> dispersion             -4.537034345647 Eh    ::
         :: repulsion energy          55.124124485211 Eh    ::
         :: add. restraining           0.000000000000 Eh    ::
         :: total charge              -0.000000000010 e     ::
         :::::::::::::::::::::::::::::::::::::::::::::::::::::

      ----------------------------------------------------------- 
     |              Fast Inertial Relaxation Engine              |
      ----------------------------------------------------------- 

          ...................................................
          :                      SETUP                      :
          :.................................................:
          :   energy convergence        0.5000000E-05 Eh    :
          :   grad. convergence         0.1000000E-02 Eh/a0 :
          :   optimization log               true           :
          :   writing optlog all                1     steps :
          :   Hessian reset                    20     steps :
          :   time step scaling                 5     steps :
          :   maximium step len.        1.0000000     a0    :
          :   initial time step         0.2500000     fs    :
          :   maximum time step         1.2500000     fs    :
          :   power reset thr           0.0000000     au    :
          :   alpha parameter           0.1000000           :
          :   BFGS update                   false           :
          :   preconditioning               false           :
          ...................................................

........................................................................
.............................. CYCLE    1 ..............................
........................................................................

 iter      E             dE          RMSdq      gap      omega  full diag
   1  -3772.0588496 -0.377206E+04  0.258E-04   11.46       0.0  T
   2  -3772.0588497 -0.282130E-07  0.152E-04   11.46      11.0  T
   3  -3772.0588497 -0.430646E-09  0.489E-05   11.46      34.4  T
     SCC iter.                  ...        3 min, 49.916 sec
     gradient                   ...        4 min,  6.099 sec
 * total energy  : -3716.2638517 Eh     change    :  -0.4189357E-04 Eh
   gradient norm :     0.0178532 Eh/a0  converged?    E=F G=F D=F
   time step     :     0.2500000 fs     power     :   0.2138777E-08
   step length   :     0.0022579 a0     speed     :   0.2184646E-03

........................................................................
.............................. CYCLE    2 ..............................
........................................................................

 iter      E             dE          RMSdq      gap      omega  full diag
   1  -3772.0639200 -0.377206E+04  0.378E-04   11.46       0.0  T
   2  -3772.0639200 -0.571267E-07  0.224E-04   11.46       7.5  T
   3  -3772.0639200 -0.900400E-09  0.686E-05   11.46      24.5  T
     SCC iter.                  ...        3 min, 49.778 sec
     gradient                   ...        4 min,  7.931 sec
 * total energy  : -3716.2639073 Eh     change    :  -0.5557631E-04 Eh
   gradient norm :     0.0158291 Eh/a0  converged?    E=F G=F D=F
   time step     :     0.2500000 fs     power     :   0.2769744E-08
   step length   :     0.0033038 a0     speed     :   0.3196581E-03

........................................................................
.............................. CYCLE    3 ..............................
........................................................................

 iter      E             dE          RMSdq      gap      omega  full diag
   1  -3772.0703488 -0.377207E+04  0.483E-04   11.46       0.0  T
   2  -3772.0703489 -0.918508E-07  0.287E-04   11.46       5.9  T
   3  -3772.0703489 -0.144382E-08  0.865E-05   11.46      19.4  T
     SCC iter.                  ...        3 min, 44.064 sec
     gradient                   ...        4 min,  6.275 sec
 * total energy  : -3716.2639686 Eh     change    :  -0.6137856E-04 Eh
   gradient norm :     0.0133256 Eh/a0  converged?    E=F G=F D=F
   time step     :     0.2500000 fs     power     :   0.2967311E-08
   step length   :     0.0042294 a0     speed     :   0.4092199E-03

........................................................................
.............................. CYCLE    4 ..............................
........................................................................

 iter      E             dE          RMSdq      gap      omega  full diag
   1  -3772.0778383 -0.377208E+04  0.572E-04   11.46       0.0  T
   2  -3772.0778385 -0.124837E-06  0.339E-04   11.46       5.0  T
   3  -3772.0778385 -0.194041E-08  0.100E-04   11.46      16.8  T
     SCC iter.                  ...        3 min, 41.387 sec
     gradient                   ...        4 min,  6.337 sec
 * total energy  : -3716.2640275 Eh     change    :  -0.5886526E-04 Eh
   gradient norm :     0.0105522 Eh/a0  converged?    E=F G=F D=F
   time step     :     0.2500000 fs     power     :   0.2725604E-08
   step length   :     0.0050029 a0     speed     :   0.4840580E-03

........................................................................
.............................. CYCLE    5 ..............................
........................................................................

 iter      E             dE          RMSdq      gap      omega  full diag
   1  -3772.0860106 -0.377209E+04  0.639E-04   11.46       0.0  T
   2  -3772.0860108 -0.149710E-06  0.380E-04   11.46       4.4  T
   3  -3772.0860108 -0.232785E-08  0.109E-04   11.46      15.5  T
     SCC iter.                  ...        3 min, 47.173 sec
     gradient                   ...        4 min,  5.997 sec
 * total energy  : -3716.2640765 Eh     change    :  -0.4896908E-04 Eh
   gradient norm :     0.0078668 Eh/a0  converged?    E=F G=F D=F
   time step     :     0.2500000 fs     power     :   0.2119127E-08
   step length   :     0.0055967 a0     speed     :   0.5415151E-03

........................................................................
.............................. CYCLE    6 ..............................
........................................................................

 iter      E             dE          RMSdq      gap      omega  full diag
   1  -3772.0952507 -0.377210E+04  0.755E-04   11.46       0.0  T
   2  -3772.0952509 -0.195878E-06  0.449E-04   11.46       3.7  T
   3  -3772.0952509 -0.303908E-08  0.122E-04   11.46      13.7  T
     SCC iter.                  ...        3 min, 52.306 sec
     gradient                   ...        4 min,  4.878 sec
 * total energy  : -3716.2641134 Eh     change    :  -0.3696170E-04 Eh
   gradient norm :     0.0058216 Eh/a0  converged?    E=F G=F D=F
   time step     :     0.2750000 fs     power     :   0.1207234E-08
   step length   :     0.0066233 a0     speed     :   0.5825853E-03

........................................................................
.............................. CYCLE    7 ..............................
........................................................................

 iter      E             dE          RMSdq      gap      omega  full diag
   1  -3772.1046632 -0.377210E+04  0.847E-04   11.46       0.0  T
   2  -3772.1046634 -0.210347E-06  0.504E-04   11.46       3.3  T
   3  -3772.1046634 -0.312775E-08  0.122E-04   11.46      13.8  T
     SCC iter.                  ...        3 min, 47.343 sec
     gradient                   ...        4 min,  4.113 sec
 * total energy  : -3716.2641322 Eh     change    :  -0.1878186E-04 Eh
   gradient norm :     0.0058609 Eh/a0  converged?    E=F G=F D=F
   time step     :     0.3025000 fs     power     :   0.2476149E-09
   step length   :     0.0074149 a0     speed     :   0.5929181E-03

........................................................................
.............................. CYCLE    8 ..............................
........................................................................

 iter      E             dE          RMSdq      gap      omega  full diag
   1  -3772.1127304 -0.377211E+04  0.880E-04   11.46       0.0  T
   2  -3772.1127306 -0.167256E-06  0.525E-04   11.46       3.2  T
   3  -3772.1127306 -0.250202E-08  0.101E-04   11.46      16.7  T
     SCC iter.                  ...        3 min, 48.742 sec
     gradient                   ...        4 min,  4.843 sec
 * total energy  : -3716.2641347 Eh     change    :  -0.2496170E-05 Eh
   gradient norm :     0.0074861 Eh/a0  converged?    E=T G=F D=F
   time step     :     0.3327500 fs     power     :  -0.3544968E-09
   step length   :     0.0076680 a0     speed     :   0.5574135E-03

........................................................................
.............................. CYCLE    9 ..............................
........................................................................
 * reset velocities

 iter      E             dE          RMSdq      gap      omega  full diag
   1  -3772.1124542 -0.377211E+04  0.301E-05   11.46       0.0  T
   2  -3772.1124542 -0.121145E-08  0.145E-05   11.46     116.0  T
   3  -3772.1124542 -0.550244E-10  0.794E-06   11.46     211.7  T
     SCC iter.                  ...        3 min, 44.092 sec
     gradient                   ...        4 min,  3.860 sec
 * total energy  : -3716.2641362 Eh     change    :  -0.1450312E-05 Eh
   gradient norm :     0.0073659 Eh/a0  converged?    E=T G=F D=T
   time step     :     0.1663750 fs     power     :   0.1141355E-09
   step length   :     0.0001943 a0     speed     :   0.2824658E-04

........................................................................
.............................. CYCLE   10 ..............................
........................................................................

 iter      E             dE          RMSdq      gap      omega  full diag
   1  -3772.1119061 -0.377211E+04  0.460E-05   11.46       0.0  T
   2  -3772.1119061 -0.655746E-09  0.273E-05   11.46      61.7  T
   3  -3772.1119061  0.254659E-10  0.739E-06   11.46     227.5  T
     SCC iter.                  ...        3 min, 44.503 sec
     gradient                   ...        4 min,  4.306 sec
 * total energy  : -3716.2641390 Eh     change    :  -0.2790163E-05 Eh
   gradient norm :     0.0071232 Eh/a0  converged?    E=T G=F D=T
   time step     :     0.1663750 fs     power     :   0.2189474E-09
   step length   :     0.0003854 a0     speed     :   0.5603943E-04

........................................................................
.............................. CYCLE   11 ..............................
........................................................................

 iter      E             dE          RMSdq      gap      omega  full diag
   1  -3772.1110978 -0.377211E+04  0.666E-05   11.46       0.0  T
   2  -3772.1110978 -0.137516E-08  0.395E-05   11.46      42.6  T
   3  -3772.1110978 -0.818545E-11  0.108E-05   11.46     156.1  T
     SCC iter.                  ...        3 min, 44.988 sec
     gradient                   ...        4 min,  3.747 sec
 * total energy  : -3716.2641429 Eh     change    :  -0.3960281E-05 Eh
   gradient norm :     0.0067689 Eh/a0  converged?    E=T G=F D=T
   time step     :     0.1663750 fs     power     :   0.3077000E-09
   step length   :     0.0005703 a0     speed     :   0.8291374E-04

........................................................................
.............................. CYCLE   12 ..............................
........................................................................

 iter      E             dE          RMSdq      gap      omega  full diag
   1  -3772.1100463 -0.377211E+04  0.871E-05   11.46       0.0  T
   2  -3772.1100464 -0.226873E-08  0.516E-05   11.46      32.6  T
   3  -3772.1100464 -0.532054E-10  0.139E-05   11.46     121.1  T
     SCC iter.                  ...        3 min, 41.917 sec
     gradient                   ...        4 min,  3.754 sec
 * total energy  : -3716.2641478 Eh     change    :  -0.4874704E-05 Eh
   gradient norm :     0.0063142 Eh/a0  converged?    E=T G=F D=T
   time step     :     0.1663750 fs     power     :   0.3749850E-09
   step length   :     0.0007459 a0     speed     :   0.1084406E-03

........................................................................
.............................. CYCLE   13 ..............................
........................................................................

 iter      E             dE          RMSdq      gap      omega  full diag
   1  -3772.1087747 -0.377211E+04  0.106E-04   11.46       0.0  T
   2  -3772.1087747 -0.327373E-08  0.628E-05   11.46      26.8  T
   3  -3772.1087747  0.227374E-11  0.167E-05   11.46     100.8  T
     SCC iter.                  ...        3 min, 42.971 sec
     gradient                   ...        4 min,  4.923 sec
 * total energy  : -3716.2641533 Eh     change    :  -0.5477172E-05 Eh
   gradient norm :     0.0057751 Eh/a0  converged?    E=F G=F D=T
   time step     :     0.1663750 fs     power     :   0.4171505E-09
   step length   :     0.0009094 a0     speed     :   0.1322222E-03

........................................................................
.............................. CYCLE   14 ..............................
........................................................................

 iter      E             dE          RMSdq      gap      omega  full diag
   1  -3772.1073119 -0.377211E+04  0.123E-04   11.46       0.0  T
   2  -3772.1073119 -0.424097E-08  0.729E-05   11.46      23.1  T
   3  -3772.1073119 -0.718501E-10  0.191E-05   11.46      88.2  T
     SCC iter.                  ...        3 min, 45.220 sec
     gradient                   ...        4 min,  4.758 sec
 * total energy  : -3716.2641590 Eh     change    :  -0.5748178E-05 Eh
   gradient norm :     0.0051739 Eh/a0  converged?    E=F G=F D=F
   time step     :     0.1663750 fs     power     :   0.4326629E-09
   step length   :     0.0010586 a0     speed     :   0.1539003E-03

........................................................................
.............................. CYCLE   15 ..............................
........................................................................

 iter      E             dE          RMSdq      gap      omega  full diag
   1  -3772.1055128 -0.377211E+04  0.153E-04   11.46       0.0  T
   2  -3772.1055128 -0.658156E-08  0.908E-05   11.46      18.5  T
   3  -3772.1055128 -0.864020E-11  0.234E-05   11.46      71.8  T
     SCC iter.                  ...        3 min, 42.729 sec
     gradient                   ...        4 min,  3.509 sec
 * total energy  : -3716.2641653 Eh     change    :  -0.6298951E-05 Eh
   gradient norm :     0.0044726 Eh/a0  converged?    E=F G=F D=F
   time step     :     0.1830125 fs     power     :   0.4197121E-09
   step length   :     0.0013248 a0     speed     :   0.1750978E-03

........................................................................
.............................. CYCLE   16 ..............................
........................................................................

 iter      E             dE          RMSdq      gap      omega  full diag
   1  -3772.1033701 -0.377210E+04  0.186E-04   11.46       0.0  T
   2  -3772.1033701 -0.926366E-08  0.110E-04   11.46      15.2  T
   3  -3772.1033701 -0.111868E-09  0.276E-05   11.46      60.9  T
     SCC iter.                  ...        3 min, 46.952 sec
     gradient                   ...        4 min,  3.725 sec
 * total energy  : -3716.2641717 Eh     change    :  -0.6398929E-05 Eh
   gradient norm :     0.0037217 Eh/a0  converged?    E=F G=F D=F
   time step     :     0.2013138 fs     power     :   0.3739250E-09
   step length   :     0.0016214 a0     speed     :   0.1948144E-03

........................................................................
.............................. CYCLE   17 ..............................
........................................................................

 iter      E             dE          RMSdq      gap      omega  full diag
   1  -3772.1009221 -0.377210E+04  0.219E-04   11.46       0.0  T
   2  -3772.1009222 -0.123000E-07  0.130E-04   11.46      12.9  T
   3  -3772.1009222 -0.686668E-10  0.311E-05   11.46      54.0  T
     SCC iter.                  ...        3 min, 45.798 sec
     gradient                   ...        4 min,  4.249 sec
 * total energy  : -3716.2641777 Eh     change    :  -0.5946697E-05 Eh
   gradient norm :     0.0030545 Eh/a0  converged?    E=F G=F D=F
   time step     :     0.2214451 fs     power     :   0.2972151E-09
   step length   :     0.0019375 a0     speed     :   0.2116349E-03

........................................................................
.............................. CYCLE   18 ..............................
........................................................................

 iter      E             dE          RMSdq      gap      omega  full diag
   1  -3772.0982975 -0.377210E+04  0.250E-04   11.46       0.0  T
   2  -3772.0982975 -0.140944E-07  0.148E-04   11.46      11.3  T
   3  -3772.0982975 -0.128694E-09  0.326E-05   11.46      51.5  T
     SCC iter.                  ...        3 min, 46.099 sec
     gradient                   ...        4 min,  4.200 sec
 * total energy  : -3716.2641826 Eh     change    :  -0.4895166E-05 Eh
   gradient norm :     0.0027212 Eh/a0  converged?    E=T G=F D=F
   time step     :     0.2435896 fs     power     :   0.2036432E-09
   step length   :     0.0022496 a0     speed     :   0.2233873E-03

........................................................................
.............................. CYCLE   19 ..............................
........................................................................

 iter      E             dE          RMSdq      gap      omega  full diag
   1  -3772.0957612 -0.377210E+04  0.270E-04   11.46       0.0  T
   2  -3772.0957612 -0.136483E-07  0.161E-04   11.46      10.5  T
   3  -3772.0957612 -0.177806E-09  0.305E-05   11.46      55.2  T
     SCC iter.                  ...        3 min, 48.069 sec
     gradient                   ...        4 min,  5.324 sec
 * total energy  : -3716.2641863 Eh     change    :  -0.3700303E-05 Eh
   gradient norm :     0.0028882 Eh/a0  converged?    E=T G=F D=F
   time step     :     0.2679486 fs     power     :   0.1228226E-09
   step length   :     0.0025160 a0     speed     :   0.2271329E-03

........................................................................
.............................. CYCLE   20 ..............................
........................................................................

 iter      E             dE          RMSdq      gap      omega  full diag
   1  -3772.0936619 -0.377209E+04  0.278E-04   11.46       0.0  T
   2  -3772.0936619 -0.103387E-07  0.165E-04   11.46      10.2  T
   3  -3772.0936619 -0.312411E-09  0.245E-05   11.46      68.5  T
     SCC iter.                  ...        3 min, 42.228 sec
     gradient                   ...        4 min,  3.746 sec
 * total energy  : -3716.2641892 Eh     change    :  -0.2914803E-05 Eh
   gradient norm :     0.0033315 Eh/a0  converged?    E=T G=F D=F
   time step     :     0.2947435 fs     power     :   0.8564968E-10
   step length   :     0.0027153 a0     speed     :   0.2228362E-03
 * RMSD in coord.:     0.0006827 a0     energy gain  -0.3793782E-03 Eh

........................................................................
.............................. CYCLE   21 ..............................
........................................................................

 iter      E             dE          RMSdq      gap      omega  full diag
   1  -3772.0925878 -0.377209E+04  0.215E-04   11.46       0.0  T
   2  -3772.0925878 -0.391537E-08  0.127E-04   11.46      13.2  T
   3  -3772.0925878 -0.182808E-09  0.137E-05   11.46     122.9  T
     SCC iter.                  ...        3 min, 44.112 sec
     gradient                   ...        4 min,  2.893 sec
 * total energy  : -3716.2641916 Eh     change    :  -0.2436568E-05 Eh
   gradient norm :     0.0036166 Eh/a0  converged?    E=T G=F D=F
   time step     :     0.2500000 fs     power     :   0.1059033E-09
   step length   :     0.0022019 a0     speed     :   0.2130486E-03

........................................................................
.............................. CYCLE   22 ..............................
........................................................................

 iter      E             dE          RMSdq      gap      omega  full diag
   1  -3772.0922215 -0.377209E+04  0.198E-04   11.46       0.0  T
   2  -3772.0922215 -0.231694E-08  0.117E-04   11.46      14.4  T
   3  -3772.0922215 -0.836735E-10  0.113E-05   11.46     149.4  T
     SCC iter.                  ...        3 min, 53.770 sec
     gradient                   ...        4 min,  5.881 sec
 * total energy  : -3716.2641947 Eh     change    :  -0.3073108E-05 Eh
   gradient norm :     0.0036872 Eh/a0  converged?    E=T G=F D=F
   time step     :     0.2500000 fs     power     :   0.1485602E-09
   step length   :     0.0021315 a0     speed     :   0.2062303E-03

........................................................................
.............................. CYCLE   23 ..............................
........................................................................

 iter      E             dE          RMSdq      gap      omega  full diag
   1  -3772.0925194 -0.377209E+04  0.191E-04   11.46       0.0  T
   2  -3772.0925194 -0.243244E-08  0.111E-04   11.46      15.1  T
   3  -3772.0925194 -0.704858E-10  0.137E-05   11.46     122.8  T
     SCC iter.                  ...        3 min, 45.462 sec
     gradient                   ...        4 min,  6.405 sec
 * total energy  : -3716.2641985 Eh     change    :  -0.3863600E-05 Eh
   gradient norm :     0.0035256 Eh/a0  converged?    E=T G=F D=F
   time step     :     0.2500000 fs     power     :   0.1915471E-09
   step length   :     0.0021096 a0     speed     :   0.2041197E-03

........................................................................
.............................. CYCLE   24 ..............................
........................................................................

 iter      E             dE          RMSdq      gap      omega  full diag
   1  -3772.0934117 -0.377209E+04  0.191E-04   11.46       0.0  T
   2  -3772.0934117 -0.398495E-08  0.111E-04   11.46      15.1  T
   3  -3772.0934117 -0.595719E-10  0.187E-05   11.46      89.9  T
     SCC iter.                  ...        3 min, 48.668 sec
     gradient                   ...        4 min,  4.325 sec
 * total energy  : -3716.2642030 Eh     change    :  -0.4414564E-05 Eh
   gradient norm :     0.0031562 Eh/a0  converged?    E=T G=F D=F
   time step     :     0.2500000 fs     power     :   0.2178296E-09
   step length   :     0.0021328 a0     speed     :   0.2063566E-03

........................................................................
.............................. CYCLE   25 ..............................
........................................................................

 iter      E             dE          RMSdq      gap      omega  full diag
   1  -3772.0948098 -0.377209E+04  0.197E-04   11.46       0.0  T
   2  -3772.0948098 -0.602222E-08  0.114E-04   11.46      14.8  T
   3  -3772.0948098 -0.550244E-10  0.236E-05   11.46      71.4  T
     SCC iter.                  ...        3 min, 41.482 sec
     gradient                   ...        4 min,  3.561 sec
 * total energy  : -3716.2642075 Eh     change    :  -0.4527162E-05 Eh
   gradient norm :     0.0026378 Eh/a0  converged?    E=T G=F D=F
   time step     :     0.2500000 fs     power     :   0.2180471E-09
   step length   :     0.0021852 a0     speed     :   0.2114293E-03

........................................................................
.............................. CYCLE   26 ..............................
........................................................................

 iter      E             dE          RMSdq      gap      omega  full diag
   1  -3772.0968094 -0.377210E+04  0.224E-04   11.46       0.0  T
   2  -3772.0968094 -0.997670E-08  0.129E-04   11.46      13.0  T
   3  -3772.0968094 -0.363798E-10  0.303E-05   11.46      55.5  T
     SCC iter.                  ...        3 min, 45.510 sec
     gradient                   ...        4 min,  5.187 sec
 * total energy  : -3716.2642120 Eh     change    :  -0.4530504E-05 Eh
   gradient norm :     0.0020201 Eh/a0  converged?    E=T G=F D=F
   time step     :     0.2750000 fs     power     :   0.1865175E-09
   step length   :     0.0024861 a0     speed     :   0.2186754E-03

........................................................................
.............................. CYCLE   27 ..............................
........................................................................

 iter      E             dE          RMSdq      gap      omega  full diag
   1  -3772.0993341 -0.377210E+04  0.249E-04   11.46       0.0  T
   2  -3772.0993342 -0.138666E-07  0.143E-04   11.46      11.7  T
   3  -3772.0993342 -0.272848E-10  0.353E-05   11.46      47.7  T
     SCC iter.                  ...        3 min, 43.098 sec
     gradient                   ...        4 min,  3.513 sec
 * total energy  : -3716.2642158 Eh     change    :  -0.3810455E-05 Eh
   gradient norm :     0.0015982 Eh/a0  converged?    E=T G=F D=F
   time step     :     0.3025000 fs     power     :   0.1272533E-09
   step length   :     0.0028200 a0     speed     :   0.2254981E-03

........................................................................
.............................. CYCLE   28 ..............................
........................................................................

 iter      E             dE          RMSdq      gap      omega  full diag
   1  -3772.1020775 -0.377210E+04  0.258E-04   11.46       0.0  T
   2  -3772.1020775 -0.142691E-07  0.149E-04   11.46      11.3  T
   3  -3772.1020775 -0.536602E-10  0.351E-05   11.46      48.0  T
     SCC iter.                  ...        3 min, 45.647 sec
     gradient                   ...        4 min,  3.237 sec
 * total energy  : -3716.2642185 Eh     change    :  -0.2663554E-05 Eh
   gradient norm :     0.0017820 Eh/a0  converged?    E=T G=F D=F
   time step     :     0.3327500 fs     power     :   0.6740616E-10
   step length   :     0.0031213 a0     speed     :   0.2268970E-03

........................................................................
.............................. CYCLE   29 ..............................
........................................................................

 iter      E             dE          RMSdq      gap      omega  full diag
   1  -3772.1045141 -0.377210E+04  0.243E-04   11.46       0.0  T
   2  -3772.1045141 -0.956834E-08  0.140E-04   11.46      12.0  T
   3  -3772.1045141 -0.363798E-10  0.274E-05   11.46      61.3  T
     SCC iter.                  ...        3 min, 41.614 sec
     gradient                   ...        4 min,  2.675 sec
 * total energy  : -3716.2642204 Eh     change    :  -0.1941174E-05 Eh
   gradient norm :     0.0022742 Eh/a0  converged?    E=T G=F D=F
   time step     :     0.3660250 fs     power     :   0.4457999E-10
   step length   :     0.0033123 a0     speed     :   0.2188943E-03

........................................................................
.............................. CYCLE   30 ..............................
........................................................................

 iter      E             dE          RMSdq      gap      omega  full diag
   1  -3772.1062258 -0.377211E+04  0.215E-04   11.46       0.0  T
   2  -3772.1062258 -0.368209E-08  0.125E-04   11.46      13.5  T
   3  -3772.1062258 -0.545697E-11  0.157E-05   11.46     107.1  T
     SCC iter.                  ...        3 min, 40.872 sec
     gradient                   ...        4 min,  4.582 sec
 * total energy  : -3716.2642228 Eh     change    :  -0.2391429E-05 Eh
   gradient norm :     0.0025826 Eh/a0  converged?    E=T G=F D=F
   time step     :     0.4026275 fs     power     :   0.6542393E-10
   step length   :     0.0034755 a0     speed     :   0.2088015E-03

........................................................................
.............................. CYCLE   31 ..............................
........................................................................

 iter      E             dE          RMSdq      gap      omega  full diag
   1  -3772.1069249 -0.377211E+04  0.197E-04   11.46       0.0  T
   2  -3772.1069249 -0.131922E-08  0.116E-04   11.46      14.5  T
   3  -3772.1069249  0.736691E-10  0.903E-06   11.46     186.2  T
     SCC iter.                  ...        3 min, 40.008 sec
     gradient                   ...        4 min,  6.708 sec
 * total energy  : -3716.2642267 Eh     change    :  -0.3843732E-05 Eh
   gradient norm :     0.0024932 Eh/a0  converged?    E=T G=F D=F
   time step     :     0.4428903 fs     power     :   0.1054511E-09
   step length   :     0.0037356 a0     speed     :   0.2040219E-03

........................................................................
.............................. CYCLE   32 ..............................
........................................................................

 iter      E             dE          RMSdq      gap      omega  full diag
   1  -3772.1064797 -0.377211E+04  0.205E-04   11.46       0.0  T
   2  -3772.1064797 -0.524551E-08  0.123E-04   11.46      13.6  T
   3  -3772.1064797  0.213731E-10  0.190E-05   11.46      88.3  T
     SCC iter.                  ...        3 min, 46.499 sec
     gradient                   ...        4 min,  4.796 sec
 * total energy  : -3716.2642319 Eh     change    :  -0.5257483E-05 Eh
   gradient norm :     0.0020155 Eh/a0  converged?    E=F G=F D=F
   time step     :     0.4871793 fs     power     :   0.1268757E-09
   step length   :     0.0041703 a0     speed     :   0.2070579E-03

........................................................................
.............................. CYCLE   33 ..............................
........................................................................

 iter      E             dE          RMSdq      gap      omega  full diag
   1  -3772.1050632 -0.377211E+04  0.230E-04   11.46       0.0  T
   2  -3772.1050632 -0.143741E-07  0.140E-04   11.46      12.0  T
   3  -3772.1050632  0.168257E-10  0.343E-05   11.46      49.1  T
     SCC iter.                  ...        3 min, 46.118 sec
     gradient                   ...        4 min,  2.566 sec
 * total energy  : -3716.2642374 Eh     change    :  -0.5446549E-05 Eh
   gradient norm :     0.0015602 Eh/a0  converged?    E=F G=F D=F
   time step     :     0.5358972 fs     power     :   0.1065652E-09
   step length   :     0.0047664 a0     speed     :   0.2151407E-03

........................................................................
.............................. CYCLE   34 ..............................
........................................................................

 iter      E             dE          RMSdq      gap      omega  full diag
   1  -3772.1034901 -0.377210E+04  0.233E-04   11.46       0.0  T
   2  -3772.1034901 -0.174682E-07  0.143E-04   11.46      11.8  T
   3  -3772.1034901 -0.854925E-10  0.373E-05   11.46      45.1  T
     SCC iter.                  ...        3 min, 43.156 sec
     gradient                   ...        4 min,  4.922 sec
 * total energy  : -3716.2642419 Eh     change    :  -0.4558715E-05 Eh
   gradient norm :     0.0017923 Eh/a0  converged?    E=T G=F D=F
   time step     :     0.5894869 fs     power     :   0.7314054E-10
   step length   :     0.0053944 a0     speed     :   0.2213528E-03

........................................................................
.............................. CYCLE   35 ..............................
........................................................................

 iter      E             dE          RMSdq      gap      omega  full diag
   1  -3772.1030524 -0.377210E+04  0.218E-04   11.46       0.0  T
   2  -3772.1030524 -0.795217E-08  0.133E-04   11.46      12.6  T
   3  -3772.1030524 -0.736691E-10  0.206E-05   11.46      81.8  T
     SCC iter.                  ...        3 min, 46.406 sec
     gradient                   ...        4 min,  4.631 sec
 * total energy  : -3716.2642466 Eh     change    :  -0.4703862E-05 Eh
   gradient norm :     0.0021066 Eh/a0  converged?    E=T G=F D=F
   time step     :     0.6484356 fs     power     :   0.7987601E-10
   step length   :     0.0059292 a0     speed     :   0.2211794E-03

........................................................................
.............................. CYCLE   36 ..............................
........................................................................

 iter      E             dE          RMSdq      gap      omega  full diag
   1  -3772.1045916 -0.377210E+04  0.265E-04   11.46       0.0  T
   2  -3772.1045916 -0.335240E-08  0.156E-04   11.46      10.8  T
   3  -3772.1045916 -0.115961E-09  0.158E-05   11.46     106.1  T
     SCC iter.                  ...        3 min, 41.072 sec
     gradient                   ...        4 min,  3.897 sec
 * total energy  : -3716.2642532 Eh     change    :  -0.6537262E-05 Eh
   gradient norm :     0.0018406 Eh/a0  converged?    E=F G=F D=F
   time step     :     0.7132792 fs     power     :   0.1076550E-09
   step length   :     0.0066066 a0     speed     :   0.2240455E-03

........................................................................
.............................. CYCLE   37 ..............................
........................................................................

 iter      E             dE          RMSdq      gap      omega  full diag
   1  -3772.1080588 -0.377211E+04  0.350E-04   11.46       0.0  T
   2  -3772.1080588 -0.151740E-07  0.203E-04   11.46       8.3  T
   3  -3772.1080588  0.782165E-10  0.359E-05   11.46      46.9  T
     SCC iter.                  ...        3 min, 42.917 sec
     gradient                   ...        4 min,  4.077 sec
 * total energy  : -3716.2642605 Eh     change    :  -0.7347878E-05 Eh
   gradient norm :     0.0014221 Eh/a0  converged?    E=F G=F D=F
   time step     :     0.7846071 fs     power     :   0.9673434E-10
   step length   :     0.0075830 a0     speed     :   0.2337786E-03

........................................................................
.............................. CYCLE   38 ..............................
........................................................................

 iter      E             dE          RMSdq      gap      omega  full diag
   1  -3772.1116069 -0.377211E+04  0.343E-04   11.46       0.0  T
   2  -3772.1116069 -0.181394E-07  0.199E-04   11.46       8.4  T
   3  -3772.1116069 -0.424734E-09  0.374E-05   11.46      45.0  T
     SCC iter.                  ...        3 min, 44.779 sec
     gradient                   ...        4 min,  3.719 sec
 * total energy  : -3716.2642671 Eh     change    :  -0.6535760E-05 Eh
   gradient norm :     0.0017592 Eh/a0  converged?    E=F G=F D=F
   time step     :     0.8630678 fs     power     :   0.7436428E-10
   step length   :     0.0086466 a0     speed     :   0.2423335E-03

........................................................................
.............................. CYCLE   39 ..............................
........................................................................

 iter      E             dE          RMSdq      gap      omega  full diag
   1  -3772.1125849 -0.377211E+04  0.278E-04   11.46       0.0  T
   2  -3772.1125849 -0.861610E-08  0.163E-04   11.47      10.3  T
   3  -3772.1125849 -0.330601E-09  0.288E-05   11.47      58.3  T
     SCC iter.                  ...        3 min, 44.744 sec
     gradient                   ...        4 min,  4.331 sec
 * total energy  : -3716.2642749 Eh     change    :  -0.7851817E-05 Eh
   gradient norm :     0.0016784 Eh/a0  converged?    E=F G=F D=F
   time step     :     0.9493746 fs     power     :   0.9430303E-10
   step length   :     0.0096685 a0     speed     :   0.2463408E-03

........................................................................
.............................. CYCLE   40 ..............................
........................................................................

 iter      E             dE          RMSdq      gap      omega  full diag
   1  -3772.1104266 -0.377211E+04  0.346E-04   11.47       0.0  T
   2  -3772.1104266 -0.245295E-07  0.206E-04   11.47       8.2  T
   3  -3772.1104266  0.227374E-09  0.504E-05   11.47      33.3  T
     SCC iter.                  ...        3 min, 43.771 sec
     gradient                   ...        4 min,  9.544 sec
 * total energy  : -3716.2642839 Eh     change    :  -0.8971690E-05 Eh
   gradient norm :     0.0014104 Eh/a0  converged?    E=F G=F D=F
   time step     :     1.0443120 fs     power     :   0.8522422E-10
   step length   :     0.0110726 a0     speed     :   0.2564681E-03

........................................................................
.............................. CYCLE   41 ..............................
........................................................................

 iter      E             dE          RMSdq      gap      omega  full diag
   1  -3772.1086769 -0.377211E+04  0.363E-04   11.47       0.0  T
   2  -3772.1086769 -0.131063E-07  0.216E-04   11.47       7.8  T
   3  -3772.1086769 -0.381988E-10  0.297E-05   11.47      56.6  T
     SCC iter.                  ...        3 min, 47.024 sec
     gradient                   ...        4 min,  6.176 sec
 * total energy  : -3716.2642928 Eh     change    :  -0.8884530E-05 Eh
   gradient norm :     0.0016556 Eh/a0  converged?    E=F G=F D=F
   time step     :     1.1487432 fs     power     :   0.8109089E-10
   step length   :     0.0125869 a0     speed     :   0.2650392E-03

........................................................................
.............................. CYCLE   42 ..............................
........................................................................

 iter      E             dE          RMSdq      gap      omega  full diag
   1  -3772.1108436 -0.377211E+04  0.413E-04   11.47       0.0  T
   2  -3772.1108436 -0.216355E-07  0.239E-04   11.47       7.0  T
   3  -3772.1108436  0.195541E-10  0.473E-05   11.47      35.6  T
     SCC iter.                  ...        3 min, 52.947 sec
     gradient                   ...        4 min,  3.977 sec
 * total energy  : -3716.2643032 Eh     change    :  -0.1045353E-04 Eh
   gradient norm :     0.0013181 Eh/a0  converged?    E=F G=F D=F
   time step     :     1.2500000 fs     power     :   0.8495638E-10
   step length   :     0.0141501 a0     speed     :   0.2738196E-03
 * RMSD in coord.:     0.0017708 a0     energy gain  -0.1140449E-03 Eh

........................................................................
.............................. CYCLE   43 ..............................
........................................................................

 iter      E             dE          RMSdq      gap      omega  full diag
   1  -3772.1113041 -0.377211E+04  0.686E-05   11.47       0.0  T
   2  -3772.1113041 -0.570708E-09  0.404E-05   11.47      41.7  T
   3  -3772.1113041  0.263753E-10  0.653E-06   11.47     257.6  T
     SCC iter.                  ...        3 min, 47.104 sec
     gradient                   ...        4 min, 12.839 sec
 * total energy  : -3716.2643051 Eh     change    :  -0.1851840E-05 Eh
   gradient norm :     0.0013219 Eh/a0  converged?    E=T G=F D=F
   time step     :     0.2500000 fs     power     :   0.9490536E-10
   step length   :     0.0027211 a0     speed     :   0.2632824E-03

........................................................................
.............................. CYCLE   44 ..............................
........................................................................

 iter      E             dE          RMSdq      gap      omega  full diag
   1  -3772.1117079 -0.377211E+04  0.651E-05   11.47       0.0  T
   2  -3772.1117079 -0.669388E-09  0.381E-05   11.47      44.1  T
   3  -3772.1117079 -0.454747E-12  0.793E-06   11.47     212.0  T
     SCC iter.                  ...        3 min, 45.370 sec
     gradient                   ...        4 min,  6.477 sec
 * total energy  : -3716.2643071 Eh     change    :  -0.2012017E-05 Eh
   gradient norm :     0.0012401 Eh/a0  converged?    E=T G=F D=F
   time step     :     0.2500000 fs     power     :   0.1029969E-09
   step length   :     0.0026403 a0     speed     :   0.2554586E-03

........................................................................
.............................. CYCLE   45 ..............................
........................................................................

 iter      E             dE          RMSdq      gap      omega  full diag
   1  -3772.1119974 -0.377211E+04  0.736E-05   11.47       0.0  T
   2  -3772.1119974 -0.747605E-09  0.432E-05   11.47      38.9  T
   3  -3772.1119974  0.582077E-10  0.794E-06   11.47     211.9  T
     SCC iter.                  ...        3 min, 50.011 sec
     gradient                   ...        4 min,  7.850 sec
 * total energy  : -3716.2643092 Eh     change    :  -0.2075245E-05 Eh
   gradient norm :     0.0011103 Eh/a0  converged?    E=T G=F D=F
   time step     :     0.2500000 fs     power     :   0.1053739E-09
   step length   :     0.0025900 a0     speed     :   0.2505972E-03

........................................................................
.............................. CYCLE   46 ..............................
........................................................................

 iter      E             dE          RMSdq      gap      omega  full diag
   1  -3772.1121425 -0.377211E+04  0.840E-05   11.47       0.0  T
   2  -3772.1121425 -0.723958E-09  0.493E-05   11.47      34.1  T
   3  -3772.1121425  0.245564E-10  0.797E-06   11.47     211.1  T
     SCC iter.                  ...        3 min, 44.359 sec
     gradient                   ...        4 min, 10.888 sec
 * total energy  : -3716.2643112 Eh     change    :  -0.2039953E-05 Eh
   gradient norm :     0.0010013 Eh/a0  converged?    E=T G=F D=F
   time step     :     0.2500000 fs     power     :   0.1020089E-09
   step length   :     0.0025655 a0     speed     :   0.2482230E-03

........................................................................
.............................. CYCLE   47 ..............................
........................................................................

 iter      E             dE          RMSdq      gap      omega  full diag
   1  -3772.1121483 -0.377211E+04  0.896E-05   11.47       0.0  T
   2  -3772.1121483 -0.635737E-09  0.525E-05   11.47      32.0  T
   3  -3772.1121483 -0.122782E-10  0.752E-06   11.47     223.6  T
     SCC iter.                  ...        3 min, 45.796 sec
     gradient                   ...        4 min,  3.897 sec
 * total energy  : -3716.2643131 Eh     change    :  -0.1928835E-05 Eh
   gradient norm :     0.0009723 Eh/a0  converged?    E=T G=T D=F
   time step     :     0.2500000 fs     power     :   0.9659492E-10
   step length   :     0.0025533 a0     speed     :   0.2470488E-03

   *** GEOMETRY OPTIMIZATION CONVERGED AFTER 47 CYCLES ***

------------------------------------------------------------------------
 total energy gain   :        -0.0005033 Eh       -0.3158 kcal/mol
 total RMSD          :         0.0022752 a0        0.0012 Å
 total power (kW/mol):        -0.0281169 (step)   -0.0001 (real)
------------------------------------------------------------------------

 FIRE (total)                  0 d,  6 h, 26 min, 39.389 sec
 setup                          ...        0 min,  0.135 sec (  0.001%)
 velocities                     ...        0 min,  0.003 sec (  0.000%)
 propagation                    ...        0 min,  0.007 sec (  0.000%)
 singlepoint calculation        ...      386 min, 38.397 sec ( 99.996%)
 log and printout               ...        0 min,  0.785 sec (  0.003%)
 preconditioner                 ...        0 min,  0.000 sec (  0.000%)
 model hessian                  ...        0 min,  0.000 sec (  0.000%)
 hessian update                 ...        0 min,  0.000 sec (  0.000%)

================
 final structure:
================
3536
 xtb: 6.6.1 (8d0f1dd)
C           41.97177042565824       48.43261602765847       65.32653410972215
C           43.05701568420724       48.87131089487863       64.34692576699898
C           44.31932828944009       48.03604251547844       64.56232549751402
C           43.39968973722207       50.35721905580972       64.50436400066125
C           42.26036198614573       51.35047601678197       64.24850614404656
C           41.61485920888222       51.12790492014739       62.88094570759136
C           42.78130584540833       52.79473381263644       64.30572406021122
C           43.42976851117487       53.24612388970067       65.61990526650546
C           42.46752298924262       53.08005207956992       66.79593783644776
C           43.85241941589965       54.72107045432003       65.52423617675493
C           45.01823653365976       55.01660363177545       64.57355528924064
C           46.32966716325446       54.45816915184527       65.12375009842917
C           45.18500789286553       56.52639348857765       64.34622568199782
C           44.01902871478219       57.24305174423814       63.65462482860573
C           43.62677124694682       56.54742031274331       62.35072335460674
C           44.38514616161918       58.70223652779701       63.34565386628357
C           44.71136213689660       59.59683393252091       64.54572318488613
C           43.55815740789533       59.62816060499325       65.54907675703606
C           44.99842851554735       61.03311155658443       64.08379650070347
C           46.21426848570506       61.24261755960878       63.16887959144137
C           47.48390716296810       60.67336567687244       63.79789767894273
C           46.36330168763704       62.74888524915888       62.90997886669181
C           47.27248373336562       63.13838460274802       61.73249733511346
C           47.80686892364373       64.55086630826017       61.96252375289409
C           46.49581535341100       63.05086110447779       60.41343312629310
C           47.30656588409371       63.27861369854473       59.12800872479688
C           46.34099714117802       63.52809902909861       57.97192463630758
C           48.21672733753426       62.08269913874926       58.82977432410510
C           49.13189345989834       62.20763959722469       57.60036870270415
C           49.78339060082250       60.84846791445577       57.34710876315148
C           50.17689681313740       63.30813058747747       57.81751571123647
C           51.22265218359234       63.51476092985741       56.70879998082633
C           52.26774454292224       64.50098402539098       57.22301889097328
C           50.55046871748285       63.99347541542956       55.41607885199895
C           51.40736961947767       64.12007659479011       54.13967957077209
C           52.34511207171301       62.92606037077680       53.96364788202231
C           52.21121929931031       65.42088535889548       53.98834289826875
C           51.41781721945470       66.72614356211473       54.10616294926665
C           50.19000999066095       66.72190893099079       53.19413966326297
C           52.27937600739136       67.94021989871281       53.72491888191584
C           53.58021935439247       68.16656583579817       54.50855426578678
C           53.30581516957349       68.44228412746907       55.98485196763674
C           54.35562521018561       69.34683638097937       53.88786653164220
C           55.59856303804485       68.97791887052779       53.06604004297874
C           55.24824649734593       68.02912593389891       51.92077201121669
C           56.73194314805568       68.37498889181133       53.90515426584485
C           57.29456268793611       69.25587012214784       55.02900406375925
C           57.82147323967576       70.58604439316268       54.49495656958799
C           58.42115099777475       68.49310342782027       55.74481281587459
C           58.77509999352165       69.02692121153795       57.14516999279306
C           60.29253739020619       69.11962025424050       57.30955810344166
C           58.20511578448273       68.13708857702595       58.25939707469278
C           56.67557737493765       68.08621910760206       58.32547612682556
C           56.10881177569564       69.41683699612028       58.82183663073970
C           56.18558065602284       66.96115955218791       59.24848769998786
C           56.45790031939449       65.52462480055696       58.78002725566167
C           56.01051149170567       65.31433576546813       57.33341058419976
C           55.72253209147296       64.51635521675774       59.67896468892641
C           56.19472266767594       64.45243815993783       61.13546505686662
C           57.60976068208135       63.88279916190428       61.22540645437742
C           55.26091964919065       63.58674622345233       61.99683654376226
C           53.86014007106137       64.14771011754051       62.27785966828434
C           53.93898492004834       65.53577626454603       62.91190431526893
C           53.09056426082059       63.21247212391106       63.22756109399998
C           52.54314508001389       61.92477367498986       62.60133023965419
C           51.38138688966738       62.23585215512041       61.65744912381234
C           52.04663983023607       60.94803665863274       63.67998596229282
C           53.10988027254537       60.33864025987537       64.60295346716006
C           54.23454341041719       59.67851237576461       63.80684804571180
C           52.48668611946919       59.27336460421459       65.52023275067359
C           51.41673156207651       59.75147390077082       66.50866908130570
C           51.96705687679042       60.83595315078946       67.43523051260544
C           50.90127226476422       58.58895755961379       67.37463651920453
C           50.30856743858627       57.39407091556352       66.61975602303227
C           49.17483358718144       57.83112741775341       65.69180527870546
C           49.76188762214331       56.33255510502239       67.58505391662159
C           50.75223516901094       55.70376914012753       68.57588442127555
C           52.05235766228463       55.26976852377727       67.89841250944735
C           50.12136487717996       54.46861468639155       69.23977883059642
C           48.89519176933982       54.72774921875047       70.12276693125142
C           49.30607375547142       55.37688910689737       71.44362187646443
C           48.14442963213246       53.41586290688588       70.40211169039782
C           47.26341552675245       52.91120689318042       69.24824958801221
C           46.02165645922099       53.78676255638789       69.09329648769251
C           46.87538564223793       51.45085348507133       69.52327310794057
C           45.98248785082151       50.77770509977731       68.47229181913725
C           45.57848400679514       49.38698563524088       68.96469289463084
C           46.61734511958497       50.71343094409081       67.07663530108545
C           47.89266664041170       49.88224820870663       66.96953095328382
C           48.42391653914100       49.88319559981588       65.54222332219655
H           42.27643378752342       48.64602767300305       66.34952690423471
H           41.03480920961233       48.94789449354834       65.13220274507584
H           41.79339397514344       47.36264378802297       65.23996114953781
H           47.68059904885495       49.47095731919048       64.86221970626615
H           48.65881175860749       50.89791163707137       65.22621878807880
H           49.32539502723670       49.27977811312039       65.46476933533106
H           45.87911058008940       50.29718476580413       66.38583648821023
H           46.83542006031184       51.72957189516003       66.74117090678168
H           47.78684287030629       50.86012014174436       69.63981815769509
H           46.34845965649892       51.41617365981234       70.48088409752785
H           47.84077270389290       52.95758626153098       68.32011201993984
H           46.29354185965398       54.83676698914059       69.01914665632574
H           45.47115550843865       53.52288794615901       68.19481337660496
H           45.36452003401057       53.66592190023223       69.95248097454612
H           48.88001267544493       52.64736601145998       70.65473539164761
H           47.50641328715508       53.55211506989802       71.27855392026643
H           49.84701060679217       53.77237630435477       68.44411562607949
H           50.87897952340881       53.97670106622613       69.85457741475584
H           45.06287936518468       51.36503792021995       68.37623054388473
H           44.97436665080848       49.46553465513325       69.86595014438990
H           44.99379030020431       48.86718862498616       68.20827549044704
H           46.45303677653737       48.78496013600503       69.19903909341021
H           48.21823394386195       55.41157569806186       69.60654372549919
H           49.84463119609907       56.30483561853814       71.26924551404990
H           48.43018639859238       55.60346646002261       72.04793553078666
H           49.95035170018043       54.70902296250765       72.01217389707699
H           50.99895682722921       56.43747409775106       69.34904905717988
H           52.69909607721868       54.77071585795618       68.61793171608652
H           51.84395911007353       54.57551583397041       67.08801296245075
H           52.59708108269184       56.11838647108888       67.49455546601739
H           48.94443479978830       56.78633189972398       68.14962220745014
H           49.33561034316653       55.52709309242964       66.98171775611353
H           51.08843486685215       56.92910742973396       66.01270002918086
H           48.69405785956808       56.96241289041656       65.24756625815107
H           48.42298353255629       58.38827480650806       66.24718255461939
H           49.54515451584974       58.45970893404292       64.88692590947579
H           51.72820531547413       58.23953506716127       67.99618312438609
H           50.13302389138239       58.98192644037709       68.04667839431157
H           50.57274596445132       60.16840125024065       65.95277575135701
H           51.22810352051372       61.10448126309975       68.18778697503009
H           52.85870352860680       60.48145376080959       67.94905418303662
H           52.22441310357600       61.73422356166691       66.88024718064449
H           52.05514864513541       58.50478553365529       64.87638785206377
H           53.29074409894801       58.80595976338354       66.09561098702325
H           53.55162664593129       61.12378185982514       65.22195482434931
H           54.91250548328382       59.16272142342228       64.48172443861675
H           53.83038074551565       58.94887690698591       63.10935109651480
H           54.80862726236102       60.41479902852706       63.25145507316692
H           51.30744043701534       61.47307089529519       64.28778199678730
H           51.52963138543164       60.12376664411415       63.18003491413278
H           53.32994055635655       61.44166834728711       62.01735798328372
H           51.00633886881891       61.32261167335948       61.19834410135525
H           50.56552292741634       62.70719747916247       62.20243771452769
H           51.69323751126772       62.90785651206166       60.86217465391110
H           53.75453456830387       62.95560794089197       64.05469837563912
H           52.24444484305857       63.76062146584889       63.64946434062538
H           53.30667943646566       64.23411557469618       61.33887073108109
H           54.57278103114370       65.50814733230965       63.79573874720538
H           54.34145255008996       66.26651864488494       62.21530438287011
H           52.94868836932460       65.87042512003678       63.21152296271406
H           55.16429951038548       62.60965150030083       61.51691642205460
H           55.75137757072153       63.42730742988289       62.95985905221094
H           56.21620288010654       65.46111865543153       61.55089877030991
H           57.62496915029693       62.84447875867728       60.89924709904574
H           58.29904164359038       64.45056822619111       60.60694543741351
H           57.97061022308424       63.92246701530027       62.25086569691030
H           54.65939481622367       64.76432006246625       59.65799663236014
H           55.83673385062988       63.52032741184919       59.24480902664541
H           57.53137052897942       65.32342755216278       58.83299254460120
H           56.03303679628264       64.25573003570203       57.08266685957773
H           54.99683825263897       65.68159115276023       57.19512860910051
H           56.66635145069762       65.83243124801207       56.63873371671812
H           56.64424204123821       67.10605356688541       60.22888521135054
H           55.10416418057854       67.07371687267955       59.36808932347394
H           56.28468217088233       67.90306598863249       57.32356296927750
H           56.49996089203310       69.65579627682709       59.80815750218031
H           56.36619828144669       70.22989662116278       58.14849528950756
H           55.02363124058645       69.36823045745948       58.88979915190558
H           58.59348790933048       67.12718058541934       58.11274754514145
H           58.58038039694016       68.49232802830404       59.22287212529843
H           58.36777541598639       70.03531871672004       57.25801444194593
H           60.74131681417308       68.13135149120990       57.22848715760441
H           60.72499504747740       69.75809999968477       56.54216519567502
H           60.55070270082548       69.53701834684894       58.28080049425036
H           58.14578032409094       67.44032246002489       55.83030770927225
H           59.30766190350918       68.53456126525806       55.10820929190015
H           56.49889219791372       69.46410347498849       55.74823703276066
H           58.33237946012125       71.13699900500347       55.28113682377003
H           58.52883397221441       70.41632277361209       53.68515626527892
H           57.01258209352729       71.21030516726562       54.12341655378647
H           56.38559419961135       67.43495690654828       54.34147125852520
H           57.55540217303118       68.13173240803786       53.22761571899537
H           55.96797091488598       69.90635035839421       52.61616551821079
H           54.47603949200063       68.46242054848541       51.28876443110483
H           56.12504620211396       67.84434565455126       51.30698851506866
H           54.89380781678940       67.07251766620190       52.29489565811137
H           53.68111529723179       69.90301898523359       53.23204577103479
H           54.66220716605014       70.03308057190316       54.67854250788011
H           54.19478711779634       67.26622618665530       54.44471242256090
H           54.23859512661899       68.58554670699657       56.52408495616979
H           52.70657922497016       69.34393608090021       56.09637479775834
H           52.77969102412740       67.60982988446116       56.44581771005471
H           52.52889680422971       67.84929015329793       52.66572201576213
H           51.65991135428196       68.83448634360423       53.83873363787493
H           51.07976991842635       66.84520725670077       55.13802912404356
H           50.48440795239925       66.50640055218939       52.16904838734072
H           49.46192410878618       65.97937308425389       53.51016144778984
H           49.70422446613816       67.69511354493224       53.20682406656878
H           53.01691507016081       65.43370021546808       54.72051308711860
H           52.67438449541834       65.39740233823883       52.99841239450066
H           50.69932431251403       64.08844514994320       53.30332563529801
H           53.15654703334921       62.95180435721223       54.68692311360887
H           51.79803047115318       61.99476247986000       54.08269188315697
H           52.78388829987991       62.93652404444136       52.96797598239588
H           49.76128962692780       63.27688875743883       55.18120592695153
H           50.06334728416297       64.94911737949379       55.61570316504212
H           51.72357932558482       62.56318545441298       56.52225799257665
H           52.62257685958576       64.19967119994041       58.20653588994733
H           53.12495603353433       64.53989613341562       56.55967293082906
H           51.84320958458227       65.49918696732499       57.30456223528189
H           49.65889809078432       64.25759295013974       57.96813134186871
H           50.71062757967059       63.07585957150807       58.74234589199816
H           48.51930690417596       62.45407328735661       56.72936866018973
H           50.41165821901870       60.86651949625174       56.46044760843474
H           50.39106484705221       60.55522409746604       58.20101012523890
H           49.01909260504956       60.08831403372783       57.19779105387676
H           48.84979374381364       61.89216390553896       59.69865495965198
H           47.57937821062555       61.20670155845089       58.68849535469210
H           47.91579531749237       64.17582368788401       59.25513394591876
H           45.77602645032464       62.62618699489844       57.74295943618770
H           45.63607810776474       64.31310985794049       58.23120393156319
H           46.87870215059078       63.84013530723779       57.08112088953435
H           46.01639451522176       62.07250729196477       60.34835560120136
H           45.69834684870420       63.79793262629478       60.44708513710889
H           48.12204226979851       62.45108520030183       61.69623858049597
H           48.33875632144773       64.60305837937887       62.91042986891643
H           48.49273131530008       64.84765618941260       61.17406405509949
H           46.98585075968995       65.26432621339779       61.98978658107514
H           45.37418524995468       63.17831341790510       62.73193430364448
H           46.75139469167211       63.20592418219928       63.82358808417311
H           46.04023575646943       60.73860299929351       62.21443032495170
H           48.36518524958195       60.97241231496741       63.23591826075388
H           47.59470368873809       61.03254105007482       64.81894953717820
H           47.45409900154352       59.58788377701314       63.81666641692091
H           44.10878726336674       61.40960853641010       63.57098459846488
H           45.14561868592775       61.65019550539082       64.97322390099554
H           45.59743502765594       59.21125614911349       65.05578802538969
H           42.63592723113454       59.93357484840937       65.05877148147874
H           43.40350667868382       58.65196370934898       66.00050432654801
H           43.76846660929277       60.33594239018655       66.34785115360847
H           45.24663346961606       58.69722778847336       62.67548309228695
H           43.54881701485260       59.15553696444471       62.80722534260385
H           43.14653735798342       57.23795693623419       64.31296028295057
H           42.89439837186883       57.14501311948553       61.81125014049843
H           44.49549135763507       56.41159058556551       61.70933692746931
H           43.18868375793873       55.57251822769155       62.54458427317464
H           45.36476716066636       56.99636639989003       65.31508813302071
H           46.08100761464178       56.67911772775344       63.73696908444096
H           44.83367376351934       54.53857140712263       63.60927991897040
H           46.27483894808678       53.37971616458718       65.24110655355439
H           47.14587317996089       54.67583999076727       64.43804718511623
H           46.56194643512740       54.90307957487452       66.08958502689296
H           42.97806858613355       55.29516634338609       65.21323527131395
H           44.13343412323273       55.07184196422850       66.52081437883626
H           44.31648850504752       52.63709051677396       65.81191759879067
H           41.53918019660417       53.61451728379183       66.60403984864811
H           42.23356264644982       52.03277543103697       66.96764149080478
H           42.90718658944005       53.47888650969217       67.70808807396654
H           43.50521226947462       52.91520525085628       63.49686103655523
H           41.94342299834776       53.46637295455088       64.10045058859720
H           41.49049211020868       51.22217714698790       65.01381936952490
H           40.88337138468004       51.90678136463175       62.67480783127447
H           42.36902090388008       51.15361141204548       62.09814765665378
H           41.10142652075522       50.17180048666515       62.83570152619968
H           43.76542153160170       50.50656526488839       65.52215199931572
H           44.21756163553609       50.59467603625107       63.82008188129041
H           42.70537265320777       48.68818702704801       63.32678400355944
H           45.09962470184225       48.33179005914960       63.86454942741486
H           44.69625986332031       48.16699296271529       65.57500154942109
H           44.11002052732575       46.97923727253190       64.41154337176351
H           48.65702594595822       50.28835367718021       67.63144136656304
H           47.69237392123533       48.85374356447026       67.27221278372875
[...]
  3287   6 C     3288   6 C                                       1.5272849
  3287   6 C     3289   6 C                                       1.5349104
  3289   6 C     3290   6 C                                       1.5358554
  3290   6 C     3291   6 C                                       1.5273971
  3290   6 C     3292   6 C                                       1.5358990
  3292   6 C     3293   6 C                                       1.5379043
  3293   6 C     3294   6 C                                       1.5277017
  3293   6 C     3295   6 C                                       1.5351258
  3295   6 C     3296   6 C                                       1.5398936
  3296   6 C     3297   6 C                                       1.5296381
  3296   6 C     3298   6 C                                       1.5355483
  3298   6 C     3299   6 C                                       1.5322687
  3299   6 C     3300   6 C                                       1.5288096
  3299   6 C     3301   6 C                                       1.5360522
  3301   6 C     3302   6 C                                       1.5347461
  3302   6 C     3303   6 C                                       1.5296393
  3302   6 C     3304   6 C                                       1.5362530
  3304   6 C     3305   6 C                                       1.5330929
  3305   6 C     3306   6 C                                       1.5287293
  3305   6 C     3307   6 C                                       1.5377399
  3307   6 C     3308   6 C                                       1.5325836
  3308   6 C     3309   6 C                                       1.5297712
  3308   6 C     3310   6 C                                       1.5352570
  3310   6 C     3311   6 C                                       1.5358428
  3311   6 C     3312   6 C                                       1.5289515
  3311   6 C     3313   6 C                                       1.5385000
  3313   6 C     3314   6 C                                       1.5319342
  3314   6 C     3315   6 C                                       1.5273059
  3314   6 C     3316   6 C                                       1.5358398
  3316   6 C     3317   6 C                                       1.5342993
  3317   6 C     3318   6 C                                       1.5287294
  3317   6 C     3319   6 C                                       1.5364729
  3319   6 C     3320   6 C                                       1.5331118
  3320   6 C     3321   6 C                                       1.5281030
  3320   6 C     3322   6 C                                       1.5367123
  3322   6 C     3323   6 C                                       1.5364821
  3323   6 C     3324   6 C                                       1.5273904
  3323   6 C     3325   6 C                                       1.5353218
  3325   6 C     3326   6 C                                       1.5359752
  3326   6 C     3327   6 C                                       1.5285683
  3326   6 C     3328   6 C                                       1.5339291
  3328   6 C     3329   6 C                                       1.5370460
  3329   6 C     3330   6 C                                       1.5292712
  3329   6 C     3331   6 C                                       1.5326847
  3331   6 C     3332   6 C                                       1.5363691
  3332   6 C     3333   6 C                                       1.5298984
  3332   6 C     3334   6 C                                       1.5346867
  3334   6 C     3335   6 C                                       1.5358805
  3335   6 C     3336   6 C                                       1.5280303
  3335   6 C     3337   6 C                                       1.5347433
  3338   6 C     3339   6 C                                       1.5283292
  3338   6 C     3340   6 C                                       1.5342679
  3340   6 C     3341   6 C                                       1.5384146
  3341   6 C     3342   6 C                                       1.5264945
  3341   6 C     3343   6 C                                       1.5329017
  3343   6 C     3344   6 C                                       1.5350759
  3344   6 C     3345   6 C                                       1.5287721
  3344   6 C     3346   6 C                                       1.5324960
  3346   6 C     3347   6 C                                       1.5346846
  3347   6 C     3348   6 C                                       1.5297117
  3349   6 C     3350   6 C                                       1.5340467
  3350   6 C     3351   6 C                                       1.5273420
  3350   6 C     3352   6 C                                       1.5336789
  3352   6 C     3353   6 C                                       1.5272142
  3353   6 C     3354   6 C                                       1.5236178
  3265   6 C     3355   1 H                                       1.0884749
  3265   6 C     3356   1 H                                       1.0866115
  3265   6 C     3357   1 H                                       1.0880150
  3354   6 C     3358   1 H                                       1.0879212
  3354   6 C     3359   1 H                                       1.0880728
  3354   6 C     3360   1 H                                       1.0876852
  3352   6 C     3361   1 H                                       1.0927625
  3352   6 C     3362   1 H                                       1.0937831
  3349   6 C     3363   1 H                                       1.0899366
  3349   6 C     3364   1 H                                       1.0927115
  3347   6 C     3365   1 H                                       1.0936068
  3348   6 C     3366   1 H                                       1.0879716
  3348   6 C     3367   1 H                                       1.0885086
  3348   6 C     3368   1 H                                       1.0880765
  3346   6 C     3369   1 H                                       1.0908499
  3346   6 C     3370   1 H                                       1.0933860
  3343   6 C     3371   1 H                                       1.0933502
  3343   6 C     3372   1 H                                       1.0924069
  3350   6 C     3373   1 H                                       1.0949859
  3351   6 C     3374   1 H                                       1.0882736
  3351   6 C     3375   1 H                                       1.0869322
  3351   6 C     3376   1 H                                       1.0879863
  3344   6 C     3377   1 H                                       1.0923405
  3345   6 C     3378   1 H                                       1.0853895
  3345   6 C     3379   1 H                                       1.0878384
  3345   6 C     3380   1 H                                       1.0876942
  3341   6 C     3381   1 H                                       1.0926859
  3342   6 C     3382   1 H                                       1.0878877
  3342   6 C     3383   1 H                                       1.0869783
  3342   6 C     3384   1 H                                       1.0885857
  3340   6 C     3385   1 H                                       1.0921954
  3340   6 C     3386   1 H                                       1.0923266
  3338   6 C     3387   1 H                                       1.0951649
  3339   6 C     3388   1 H                                       1.0867527
  3339   6 C     3389   1 H                                       1.0883871
  3339   6 C     3390   1 H                                       1.0878611
  3337   6 C     3391   1 H                                       1.0898842
  3337   6 C     3392   1 H                                       1.0915629
  3335   6 C     3393   1 H                                       1.0932026
  3336   6 C     3394   1 H                                       1.0869039
  3336   6 C     3395   1 H                                       1.0882013
  3336   6 C     3396   1 H                                       1.0882715
  3334   6 C     3397   1 H                                       1.0917674
  3334   6 C     3398   1 H                                       1.0931966
  3332   6 C     3399   1 H                                       1.0934915
  3333   6 C     3400   1 H                                       1.0882180
  3333   6 C     3401   1 H                                       1.0878082
  3333   6 C     3402   1 H                                       1.0867176
  3331   6 C     3403   1 H                                       1.0913893
  3331   6 C     3404   1 H                                       1.0937613
  3329   6 C     3405   1 H                                       1.0926379
  3330   6 C     3406   1 H                                       1.0883624
  3330   6 C     3407   1 H                                       1.0885742
  3330   6 C     3408   1 H                                       1.0872282
  3328   6 C     3409   1 H                                       1.0914971
  3328   6 C     3410   1 H                                       1.0932014
  3326   6 C     3411   1 H                                       1.0917636
  3327   6 C     3412   1 H                                       1.0877759
  3327   6 C     3413   1 H                                       1.0865821
  3327   6 C     3414   1 H                                       1.0876090
  3325   6 C     3415   1 H                                       1.0928102
  3325   6 C     3416   1 H                                       1.0932049
  3323   6 C     3417   1 H                                       1.0932321
  3324   6 C     3418   1 H                                       1.0870856
  3324   6 C     3419   1 H                                       1.0867843
  3324   6 C     3420   1 H                                       1.0882796
  3322   6 C     3421   1 H                                       1.0917875
  3322   6 C     3422   1 H                                       1.0925586
  3320   6 C     3423   1 H                                       1.0924942
  3321   6 C     3424   1 H                                       1.0883862
  3321   6 C     3425   1 H                                       1.0866721
  3321   6 C     3426   1 H                                       1.0878932
  3319   6 C     3427   1 H                                       1.0921003
  3319   6 C     3428   1 H                                       1.0934484
  3317   6 C     3429   1 H                                       1.0932541
  3318   6 C     3430   1 H                                       1.0856441
  3318   6 C     3431   1 H                                       1.0877547
  3318   6 C     3432   1 H                                       1.0874145
  3316   6 C     3433   1 H                                       1.0918683
  3316   6 C     3434   1 H                                       1.0937740
  3314   6 C     3435   1 H                                       1.0912699
  3315   6 C     3436   1 H                                       1.0860304
  3315   6 C     3437   1 H                                       1.0885213
  3315   6 C     3438   1 H                                       1.0884325
  3313   6 C     3439   1 H                                       1.0915823
  3313   6 C     3440   1 H                                       1.0933939
  3311   6 C     3441   1 H                                       1.0939502
  3312   6 C     3442   1 H                                       1.0873165
  3312   6 C     3443   1 H                                       1.0861686
  3312   6 C     3444   1 H                                       1.0882670
  3310   6 C     3445   1 H                                       1.0910630
  3310   6 C     3446   1 H                                       1.0933285
  3308   6 C     3447   1 H                                       1.0921797
  3309   6 C     3448   1 H                                       1.0884626
  3309   6 C     3449   1 H                                       1.0883266
  3309   6 C     3450   1 H                                       1.0869054
  3307   6 C     3451   1 H                                       1.0916933
  3307   6 C     3452   1 H                                       1.0936610
  3305   6 C     3453   1 H                                       1.0926912
  3306   6 C     3454   1 H                                       1.0883042
  3306   6 C     3455   1 H                                       1.0868136
  3306   6 C     3456   1 H                                       1.0874298
  3304   6 C     3457   1 H                                       1.0913360
  3304   6 C     3458   1 H                                       1.0935682
  3302   6 C     3459   1 H                                       1.0926356
  3303   6 C     3460   1 H                                       1.0863046
  3303   6 C     3461   1 H                                       1.0882444
  3303   6 C     3462   1 H                                       1.0886776
  3301   6 C     3463   1 H                                       1.0916846
  3301   6 C     3464   1 H                                       1.0939848
  3299   6 C     3465   1 H                                       1.0902903
  3300   6 C     3466   1 H                                       1.0882947
  3300   6 C     3467   1 H                                       1.0867497
  3300   6 C     3468   1 H                                       1.0882101
  3298   6 C     3469   1 H                                       1.0918417
  3298   6 C     3470   1 H                                       1.0935993
  3296   6 C     3471   1 H                                       1.0926445
  3297   6 C     3472   1 H                                       1.0877830
  3297   6 C     3473   1 H                                       1.0882961
  3297   6 C     3474   1 H                                       1.0879605
  3295   6 C     3475   1 H                                       1.0925712
  3295   6 C     3476   1 H                                       1.0925552
  3293   6 C     3477   1 H                                       1.0924305
  3294   6 C     3478   1 H                                       1.0886110
  3294   6 C     3479   1 H                                       1.0882947
  3294   6 C     3480   1 H                                       1.0878536
  3292   6 C     3481   1 H                                       1.0924999
  3292   6 C     3482   1 H                                       1.0918726
  3290   6 C     3483   1 H                                       1.0945987
  3291   6 C     3484   1 H                                       1.0875903
  3291   6 C     3485   1 H                                       1.0879937
  3291   6 C     3486   1 H                                       1.0883204
  3289   6 C     3487   1 H                                       1.0910456
  3289   6 C     3488   1 H                                       1.0921896
  3287   6 C     3489   1 H                                       1.0930558
  3288   6 C     3490   1 H                                       1.0878500
  3288   6 C     3491   1 H                                       1.0884480
  3288   6 C     3492   1 H                                       1.0875128
  3286   6 C     3493   1 H                                       1.0923387
  3286   6 C     3494   1 H                                       1.0933589
  3284   6 C     3495   1 H                                       1.0940293
  3285   6 C     3496   1 H                                       1.0857850
  3285   6 C     3497   1 H                                       1.0885626
  3285   6 C     3498   1 H                                       1.0879077
  3283   6 C     3499   1 H                                       1.0919453
  3283   6 C     3500   1 H                                       1.0935008
  3281   6 C     3501   1 H                                       1.0930111
  3282   6 C     3502   1 H                                       1.0880809
  3282   6 C     3503   1 H                                       1.0881488
  3282   6 C     3504   1 H                                       1.0867344
  3280   6 C     3505   1 H                                       1.0917023
  3280   6 C     3506   1 H                                       1.0933813
  3278   6 C     3507   1 H                                       1.0917878
  3279   6 C     3508   1 H                                       1.0876100
  3279   6 C     3509   1 H                                       1.0868320
  3279   6 C     3510   1 H                                       1.0881971
  3277   6 C     3511   1 H                                       1.0918305
  3277   6 C     3512   1 H                                       1.0933420
  3275   6 C     3513   1 H                                       1.0919730
  3276   6 C     3514   1 H                                       1.0881164
  3276   6 C     3515   1 H                                       1.0879992
  3276   6 C     3516   1 H                                       1.0863298
  3274   6 C     3517   1 H                                       1.0917531
  3274   6 C     3518   1 H                                       1.0941017
  3272   6 C     3519   1 H                                       1.0938949
  3273   6 C     3520   1 H                                       1.0881546
  3273   6 C     3521   1 H                                       1.0863119
  3273   6 C     3522   1 H                                       1.0886503
  3271   6 C     3523   1 H                                       1.0917682
  3271   6 C     3524   1 H                                       1.0936692
  3269   6 C     3525   1 H                                       1.0926812
  3270   6 C     3526   1 H                                       1.0881536
  3270   6 C     3527   1 H                                       1.0882675
  3270   6 C     3528   1 H                                       1.0864036
  3268   6 C     3529   1 H                                       1.0908477
  3268   6 C     3530   1 H                                       1.0932812
  3266   6 C     3531   1 H                                       1.0948489
  3267   6 C     3532   1 H                                       1.0872314
  3267   6 C     3533   1 H                                       1.0874910
  3267   6 C     3534   1 H                                       1.0881319
  3353   6 C     3535   1 H                                       1.0931539
  3353   6 C     3536   1 H                                       1.0914226

 * 2 distinct bonds (by element types)

   Z      Z             #   av. dist./Å        max./Å        min./Å
   1 H    6 C        2366     1.0900629     1.0968071     1.0839243
   6 C    6 C        1110     1.5324305     1.5400957     1.5229691


optimized geometry written to: xtbopt.xyz


           -------------------------------------------------
          | TOTAL ENERGY            -3716.264313124028 Eh   |
          | GRADIENT NORM               0.000972321589 Eh/α |
          | HOMO-LUMO GAP              11.466466995400 eV   |
           -------------------------------------------------

------------------------------------------------------------------------
 * finished run on 2024/10/04 at 21:05:52.121     
------------------------------------------------------------------------
 total:
 * wall-time:     0 d,  6 h, 53 min, 14.652 sec
 *  cpu-time:     1 d, 13 h, 51 min,  5.480 sec
 * ratio c/w:     5.496 speedup
 SCF:
 * wall-time:     0 d,  0 h, 16 min, 56.556 sec
 *  cpu-time:     0 d,  1 h, 50 min,  3.800 sec
 * ratio c/w:     6.496 speedup
 ANC optimizer:
 * wall-time:     0 d,  6 h, 34 min, 50.801 sec
 *  cpu-time:     1 d, 11 h, 59 min, 16.768 sec
 * ratio c/w:     5.469 speedup

