      -----------------------------------------------------------      
     |                   =====================                   |     
     |                           x T B                           |     
     |                   =====================                   |     
     |                         S. Grimme                         |     
     |          Mulliken Center for Theoretical Chemistry        |     
     |                    University of Bonn                     |     
      -----------------------------------------------------------      

   * xtb version 6.6.1 (8d0f1dd) compiled by 'stahn@M-Bot' on 2023-08-01

   xtb is free software: you can redistribute it and/or modify it under
   the terms of the GNU Lesser General Public License as published by
   the Free Software Foundation, either version 3 of the License, or
   (at your option) any later version.
   
   xtb is distributed in the hope that it will be useful,
   but WITHOUT ANY WARRANTY; without even the implied warranty of
   MERCHANTABILITY or FITNESS FOR A PARTICULAR PURPOSE.  See the
   GNU Lesser General Public License for more details.
   
   Cite this work as:
   * C. Bannwarth, E. Caldeweyher, S. Ehlert, A. Hansen, P. Pracht,
     J. Seibert, S. Spicher, S. Grimme, WIREs Comput. Mol. Sci., 2020, 11,
     e01493. DOI: 10.1002/wcms.1493
   
   for GFN2-xTB:
   * C. Bannwarth, S. Ehlert and S. Grimme., J. Chem. Theory Comput., 2019,
     15, 1652-1671. DOI: 10.1021/acs.jctc.8b01176
   for GFN1-xTB:
   * S. Grimme, C. Bannwarth, P. Shushkov, J. Chem. Theory Comput., 2017,
     13, 1989-2009. DOI: 10.1021/acs.jctc.7b00118
   for GFN0-xTB:
   * P. Pracht, E. Caldeweyher, S. Ehlert, S. Grimme, ChemRxiv, 2019, preprint.
     DOI: 10.26434/chemrxiv.8326202.v1
   for GFN-FF:
   * S. Spicher and S. Grimme, Angew. Chem. Int. Ed., 2020, 59, 15665-15673.
     DOI: 10.1002/anie.202004239
   
   for ALPB and GBSA implicit solvation:
   * S. Ehlert, M. Stahn, S. Spicher, S. Grimme, J. Chem. Theory Comput.,
     2021, 17, 4250-4261. DOI: 10.1021/acs.jctc.1c00471
   
   for DFT-D4:
   * E. Caldeweyher, C. Bannwarth and S. Grimme, J. Chem. Phys., 2017,
     147, 034112. DOI: 10.1063/1.4993215
   * E. Caldeweyher, S. Ehlert, A. Hansen, H. Neugebauer, S. Spicher,
     C. Bannwarth and S. Grimme, J. Chem. Phys., 2019, 150, 154122.
     DOI: 10.1063/1.5090222
   * E. Caldeweyher, J.-M. Mewes, S. Ehlert and S. Grimme, Phys. Chem. Chem. Phys.
     2020, 22, 8499-8512. DOI: 10.1039/D0CP00502A
   
   for sTDA-xTB:
   * S. Grimme and C. Bannwarth, J. Chem. Phys., 2016, 145, 054103.
     DOI: 10.1063/1.4959605
   
   in the mass-spec context:
   * V. Asgeirsson, C. Bauer and S. Grimme, Chem. Sci., 2017, 8, 4879.
     DOI: 10.1039/c7sc00601b
   * J. Koopman and S. Grimme, ACS Omega 2019, 4, 12, 15120-15133.
     DOI: 10.1021/acsomega.9b02011
   
   for metadynamics refer to:
   * S. Grimme, J. Chem. Theory Comput., 2019, 155, 2847-2862
     DOI: 10.1021/acs.jctc.9b00143
   
   for SPH calculations refer to:
   * S. Spicher and S. Grimme, J. Chem. Theory Comput., 2021, 17, 1701-1714
     DOI: 10.1021/acs.jctc.0c01306
   
   with help from (in alphabetical order)
   P. Atkinson, C. Bannwarth, F. Bohle, G. Brandenburg, E. Caldeweyher
   M. Checinski, S. Dohm, S. Ehlert, S. Ehrlich, I. Gerasimov, C. Hölzer
   A. Katbashev, J. Koopman, C. Lavigne, S. Lehtola, F. März, M. Müller,
   F. Musil, H. Neugebauer, J. Pisarek, C. Plett, P. Pracht, F. Pultar,
   J. Seibert, P. Shushkov, S. Spicher, M. Stahn, M. Steiner, T. Strunk,
   J. Stückrath, T. Rose, and J. Unsleber
   
 * started run on 2024/06/23 at 13:27:40.438     

           -------------------------------------------------
          |                Calculation Setup                |
           -------------------------------------------------

          program call               : /home/abt-grimme/AK-bin/xtb input.xyz --input input.inp --opt --gbsa water
          hostname                   : boar112.thch.uni-bonn.de
          coordinate file            : input.xyz
          omp threads                :                     8

   ID    Z sym.   atoms
    1    6 C      1-90, 273-362, 545-634, 817-906, 1089-1178, 1361-1450,
                  1633-1722, 1905-1994, 2177-2266, 2449-2538, 2721-2810,
                  2993-3082, 3265-3354
    2    1 H      91-272, 363-544, 635-816, 907-1088, 1179-1360, 1451-1632,
                  1723-1904, 1995-2176, 2267-2448, 2539-2720, 2811-2992,
                  3083-3264, 3355-3536

molecular fragmentation (1/2 indicates fragments):
111111111111111111111111111111111111111111111111111111111111111111111111
111111111111111111111111111111111111111111111111111111111111111111111111
111111111111111111111111111111111111111111111111111111111111111111111111
111111111111111111111111111111111111111111111111111111112222222222222222
222222222222222222222222222222222222222222222222222222222222222222222222
222222222222222222222222222222222222222222222222222222222222222222222222
222222222222222222222222222222222222222222222222222222222222222222222222
222222222222222222222222222222222222222222222222222222222222222222222222
222222222222222222222222222222222222222222222222222222222222222222222222
222222222222222222222222222222222222222222222222222222222222222222222222
222222222222222222222222222222222222222222222222222222222222222222222222
222222222222222222222222222222222222222222222222222222222222222222222222
222222222222222222222222222222222222222222222222222222222222222222222222
222222222222222222222222222222222222222222222222222222222222222222222222
222222222222222222222222222222222222222222222222222222222222222222222222
222222222222222222222222222222222222222222222222222222222222222222222222
222222222222222222222222222222222222222222222222222222222222222222222222
222222222222222222222222222222222222222222222222222222222222222222222222
222222222222222222222222222222222222222222222222222222222222222222222222
222222222222222222222222222222222222222222222222222222222222222222222222
222222222222222222222222222222222222222222222222222222222222222222222222
222222222222222222222222222222222222222222222222222222222222222222222222
222222222222222222222222222222222222222222222222222222222222222222222222
222222222222222222222222222222222222222222222222222222222222222222222222
222222222222222222222222222222222222222222222222222222222222222222222222
222222222222222222222222222222222222222222222222222222222222222222222222
222222222222222222222222222222222222222222222222222222222222222222222222
222222222222222222222222222222222222222222222222222222222222222222222222
222222222222222222222222222222222222222222222222222222222222222222222222
222222222222222222222222222222222222222222222222222222222222222222222222
222222222222222222222222222222222222222222222222222222222222222222222222
222222222222222222222222222222222222222222222222222222222222222222222222
222222222222222222222222222222222222222222222222222222222222222222222222
222222222222222222222222222222222222222222222222222222222222222222222222
222222222222222222222222222222222222222222222222222222222222222222222222
222222222222222222222222222222222222222222222222222222222222222222222222
222222222222222222222222222222222222222222222222222222222222222222222222
222222222222222222222222222222222222222222222222222222222222222222222222
222222222222222222222222222222222222222222222222222222222222222222222222
222222222222222222222222222222222222222222222222222222222222222222222222
222222222222222222222222222222222222222222222222222222222222222222222222
222222222222222222222222222222222222222222222222222222222222222222222222
222222222222222222222222222222222222222222222222222222222222222222222222
222222222222222222222222222222222222222222222222222222222222222222222222
222222222222222222222222222222222222222222222222222222222222222222222222
222222222222222222222222222222222222222222222222222222222222222222222222
222222222222222222222222222222222222222222222222222222222222222222222222
222222222222222222222222222222222222222222222222222222222222222222222222
222222222222222222222222222222222222222222222222222222222222222222222222
22222222
# atoms in fragment 1/2:   272  3264
 fragment masses (1/2) :     1264.41    15172.94
CMA distance (Bohr)    :  26.523
constraining FC (au)   :  0.0500

           -------------------------------------------------
          |                 G F N 2 - x T B                 |
           -------------------------------------------------

        Reference                      10.1021/acs.jctc.8b01176
      * Hamiltonian:
        H0-scaling (s, p, d)           1.850000    2.230000    2.230000
        zeta-weighting                 0.500000
      * Dispersion:
        s8                             2.700000
        a1                             0.520000
        a2                             5.000000
        s9                             5.000000
      * Repulsion:
        kExp                           1.500000    1.000000
        rExp                           1.000000
      * Coulomb:
        alpha                          2.000000
        third order                    shell-resolved
        anisotropic                    true
        a3                             3.000000
        a5                             4.000000
        cn-shift                       1.200000
        cn-exp                         4.000000
        max-rad                        5.000000

      * Solvation model:               GBSA
        Solvent                        water
        Parameter file                 internal GFN2-xTB/GBSA
        Dielectric constant                8.0200E+01
        Reference state                gsolv [1 M gas/solution]
        Free energy shift                  1.8574E-03 Eh       1.1656E+00 kcal/mol
        Temperature                        2.9815E+02 K
        Density                            1.0000E+00 kg/L
        Solvent mass                       1.8000E+01 g/mol
        Interaction kernel             Still
        Born radius scaling (c1)           1.5524E+00
        Born radii integrator          GBOBC
        Born offset                        2.4628E-02 a0       4.6540E-02 AA
        H-bond correction              true
        Ion screening                  false
        Surface tension                    1.0000E-05 Eh       1.5569E+01 dyn/cm
        Grid points                               230 per atom
q/qsh data taken from xtbrestart
CAMM data taken from xtbrestart

          ...................................................
          :                      SETUP                      :
          :.................................................:
          :  # basis functions                7046          :
          :  # atomic orbitals                7046          :
          :  # shells                         4706          :
          :  # electrons                      7046          :
          :  max. iterations                   250          :
          :  Hamiltonian                  GFN2-xTB          :
          :  restarted?                       true          :
          :  GBSA solvation                   true          :
          :  PC potential                    false          :
          :  electronic temp.          300.0000000     K    :
          :  accuracy                    1.0000000          :
          :  -> integral cutoff          0.2500000E+02      :
          :  -> integral neglect         0.1000000E-07      :
          :  -> SCF convergence          0.1000000E-05 Eh   :
          :  -> wf. convergence          0.1000000E-03 e    :
          :  Broyden damping             0.4000000          :
          ...................................................

 iter      E             dE          RMSdq      gap      omega  full diag
   1  -3764.2519652 -0.376425E+04  0.589E-05   10.59       0.0  T
   2  -3764.2519652 -0.267346E-08  0.452E-05   10.59      37.2  T
   3  -3764.2519652 -0.249111E-08  0.290E-05   10.59      57.9  T

   *** convergence criteria satisfied after 3 iterations ***

         #    Occupation            Energy/Eh            Energy/eV
      -------------------------------------------------------------
         1        2.0000           -0.6179424             -16.8151
       ...           ...                  ...                  ...
      3517        2.0000           -0.3768456             -10.2545
      3518        2.0000           -0.3765967             -10.2477
      3519        2.0000           -0.3763299             -10.2405
      3520        2.0000           -0.3759684             -10.2306
      3521        2.0000           -0.3747156             -10.1965
      3522        2.0000           -0.3742693             -10.1844
      3523        2.0000           -0.3731694             -10.1545 (HOMO)
      3524                          0.0160792               0.4375 (LUMO)
      3525                          0.0167486               0.4558
      3526                          0.0184320               0.5016
      3527                          0.0185797               0.5056
      3528                          0.0190095               0.5173
       ...                                ...                  ...
      7046                          0.3722675              10.1299
      -------------------------------------------------------------
                  HL-Gap            0.3892486 Eh           10.5920 eV
             Fermi-level           -0.1785451 Eh           -4.8585 eV

 SCC (total)                   0 d,  0 h,  8 min, 44.256 sec
 SCC setup                      ...        0 min,  1.924 sec (  0.367%)
 Dispersion                     ...        0 min,  4.193 sec (  0.800%)
 classical contributions        ...        0 min,  0.154 sec (  0.029%)
 integral evaluation            ...        0 min,  7.083 sec (  1.351%)
 iterations                     ...        3 min, 53.957 sec ( 44.627%)
 molecular gradient             ...        4 min, 25.975 sec ( 50.734%)
 printout                       ...        0 min, 10.969 sec (  2.092%)

         :::::::::::::::::::::::::::::::::::::::::::::::::::::
         ::                     SUMMARY                     ::
         :::::::::::::::::::::::::::::::::::::::::::::::::::::
         :: total energy           -3715.365110152683 Eh    ::
         :: total w/o Gsasa/hb     -3715.254234960703 Eh    ::
         :: gradient norm              0.661159143655 Eh/a0 ::
         :: HOMO-LUMO gap             10.591994624659 eV    ::
         ::.................................................::
         :: SCC energy             -3764.251965208553 Eh    ::
         :: -> isotropic ES            0.439052804419 Eh    ::
         :: -> anisotropic ES          1.496626079158 Eh    ::
         :: -> anisotropic XC          2.300299687455 Eh    ::
         :: -> dispersion             -4.684886708725 Eh    ::
         :: -> Gsolv                  -0.046683778299 Eh    ::
         ::    -> Gelec                0.064191413680 Eh    ::
         ::    -> Gsasa               -0.106251236992 Eh    ::
         ::    -> Ghb                 -0.006481398114 Eh    ::
         ::    -> Gshift               0.001857443127 Eh    ::
         :: repulsion energy          48.162787038673 Eh    ::
         :: add. restraining           0.000000000000 Eh    ::
         :: total charge              -0.000000000008 e     ::
         :::::::::::::::::::::::::::::::::::::::::::::::::::::

      ----------------------------------------------------------- 
     |              Fast Inertial Relaxation Engine              |
      ----------------------------------------------------------- 

          ...................................................
          :                      SETUP                      :
          :.................................................:
          :   energy convergence        0.5000000E-05 Eh    :
          :   grad. convergence         0.1000000E-02 Eh/a0 :
          :   optimization log               true           :
          :   writing optlog all                1     steps :
          :   Hessian reset                    20     steps :
          :   time step scaling                 5     steps :
          :   maximium step len.        1.0000000     a0    :
          :   initial time step         0.2500000     fs    :
          :   maximum time step         1.2500000     fs    :
          :   power reset thr           0.0000000     au    :
          :   alpha parameter           0.1000000           :
          :   BFGS update                   false           :
          :   preconditioning               false           :
          ...................................................

........................................................................
.............................. CYCLE    1 ..............................
........................................................................

 iter      E             dE          RMSdq      gap      omega  full diag
   1  -3764.5121813 -0.376451E+04  0.756E-03   10.61       0.0  T
   2  -3764.5122238 -0.424929E-04  0.411E-03   10.61       1.0  T
   3  -3764.5122244 -0.664198E-06  0.177E-03   10.61       1.0  T
   4  -3764.5122250 -0.524165E-06  0.433E-04   10.61       3.9  T
   5  -3764.5122252 -0.260679E-06  0.174E-04   10.61       9.7  T
     SCC iter.                  ...        6 min, 23.246 sec
     gradient                   ...        4 min, 29.811 sec
 * total energy  : -3715.4148660 Eh     change    :  -0.4975580E-01 Eh
   gradient norm :     0.6288060 Eh/a0  converged?    E=F G=F D=F
   time step     :     0.2500000 fs     power     :   0.2575077E-05
   step length   :     0.0774864 a0     speed     :   0.7497230E-02

........................................................................
.............................. CYCLE    2 ..............................
........................................................................

 iter      E             dE          RMSdq      gap      omega  full diag
   1  -3764.8960126 -0.376490E+04  0.111E-02   10.62       0.0  T
   2  -3764.8961041 -0.914306E-04  0.603E-03   10.62       1.0  T
   3  -3764.8961056 -0.147896E-05  0.260E-03   10.62       1.0  T
   4  -3764.8961067 -0.113000E-05  0.642E-04   10.62       2.6  T
   5  -3764.8961072 -0.567119E-06  0.268E-04   10.62       6.3  T
   6  -3764.8961073 -0.431960E-07  0.122E-04   10.62      13.8  T
     SCC iter.                  ...        7 min, 24.227 sec
     gradient                   ...        4 min, 24.119 sec
 * total energy  : -3715.4839138 Eh     change    :  -0.6904784E-01 Eh
   gradient norm :     0.5829737 Eh/a0  converged?    E=F G=F D=F
   time step     :     0.2500000 fs     power     :   0.3522219E-05
   step length   :     0.1142170 a0     speed     :   0.1105111E-01

........................................................................
.............................. CYCLE    3 ..............................
........................................................................

 iter      E             dE          RMSdq      gap      omega  full diag
   1  -3765.3936745 -0.376539E+04  0.143E-02   10.65       0.0  T
   2  -3765.3938242 -0.149688E-03  0.777E-03   10.64       1.0  T
   3  -3765.3938267 -0.245639E-05  0.331E-03   10.65       1.0  T
   4  -3765.3938285 -0.183172E-05  0.825E-04   10.64       2.0  T
   5  -3765.3938295 -0.932875E-06  0.347E-04   10.64       4.8  T
   6  -3765.3938295 -0.698988E-07  0.154E-04   10.64      10.9  T
     SCC iter.                  ...        7 min, 30.832 sec
     gradient                   ...        4 min, 25.367 sec
 * total energy  : -3715.5657659 Eh     change    :  -0.8185212E-01 Eh
   gradient norm :     0.5252534 Eh/a0  converged?    E=F G=F D=F
   time step     :     0.2500000 fs     power     :   0.4105937E-05
   step length   :     0.1482713 a0     speed     :   0.1434605E-01

........................................................................
.............................. CYCLE    4 ..............................
........................................................................

 iter      E             dE          RMSdq      gap      omega  full diag
   1  -3765.9925868 -0.376599E+04  0.171E-02   10.66       0.0  T
   2  -3765.9927953 -0.208451E-03  0.927E-03   10.66       1.0  T
   3  -3765.9927988 -0.353847E-05  0.390E-03   10.66       1.0  T
   4  -3765.9928013 -0.250012E-05  0.973E-04   10.66       1.7  T
   5  -3765.9928026 -0.128333E-05  0.420E-04   10.66       4.0  T
   6  -3765.9928027 -0.100186E-06  0.181E-04   10.66       9.3  T
   7  -3765.9928027 -0.474702E-07  0.119E-04   10.66      14.1  T
     SCC iter.                  ...        8 min, 42.253 sec
     gradient                   ...        4 min, 24.695 sec
 * total energy  : -3715.6529840 Eh     change    :  -0.8721807E-01 Eh
   gradient norm :     0.4592888 Eh/a0  converged?    E=F G=F D=F
   time step     :     0.2500000 fs     power     :   0.4287323E-05
   step length   :     0.1788220 a0     speed     :   0.1730199E-01

........................................................................
.............................. CYCLE    5 ..............................
........................................................................

 iter      E             dE          RMSdq      gap      omega  full diag
   1  -3766.6774431 -0.376668E+04  0.194E-02   10.68       0.0  T
   2  -3766.6777007 -0.257658E-03  0.105E-02   10.67       1.0  T
   3  -3766.6777053 -0.455619E-05  0.433E-03   10.67       1.0  T
   4  -3766.6777082 -0.293054E-05  0.107E-03   10.67       1.6  T
   5  -3766.6777097 -0.151411E-05  0.470E-04   10.67       3.6  T
   6  -3766.6777098 -0.103896E-06  0.187E-04   10.67       9.0  T
   7  -3766.6777099 -0.471987E-07  0.121E-04   10.67      13.9  T
     SCC iter.                  ...        8 min, 38.802 sec
     gradient                   ...        4 min, 26.101 sec
 * total energy  : -3715.7381274 Eh     change    :  -0.8514338E-01 Eh
   gradient norm :     0.3905097 Eh/a0  converged?    E=F G=F D=F
   time step     :     0.2500000 fs     power     :   0.4081410E-05
   step length   :     0.2051560 a0     speed     :   0.1984995E-01

........................................................................
.............................. CYCLE    6 ..............................
........................................................................

 iter      E             dE          RMSdq      gap      omega  full diag
   1  -3767.5128090 -0.376751E+04  0.234E-02   10.69       0.0  T
   2  -3767.5131625 -0.353488E-03  0.126E-02   10.69       1.0  T
   3  -3767.5131694 -0.694056E-05  0.505E-03   10.69       1.0  T
   4  -3767.5131732 -0.380174E-05  0.123E-03   10.68       1.4  T
   5  -3767.5131752 -0.192452E-05  0.577E-04   10.68       2.9  T
   6  -3767.5131753 -0.142405E-06  0.212E-04   10.68       7.9  T
   7  -3767.5131754 -0.591012E-07  0.139E-04   10.68      12.1  T
     SCC iter.                  ...        8 min, 39.287 sec
     gradient                   ...        4 min, 24.208 sec
 * total energy  : -3715.8221774 Eh     change    :  -0.8405007E-01 Eh
   gradient norm :     0.3200474 Eh/a0  converged?    E=F G=F D=F
   time step     :     0.2750000 fs     power     :   0.3482567E-05
   step length   :     0.2517357 a0     speed     :   0.2214253E-01

........................................................................
.............................. CYCLE    7 ..............................
........................................................................

 iter      E             dE          RMSdq      gap      omega  full diag
   1  -3768.4948967 -0.376849E+04  0.273E-02   10.70       0.0  T
   2  -3768.4953301 -0.433421E-03  0.146E-02   10.70       1.0  T
   3  -3768.4953404 -0.102734E-04  0.559E-03   10.70       1.0  T
   4  -3768.4953447 -0.427432E-05  0.133E-03   10.70       1.3  T
   5  -3768.4953466 -0.196056E-05  0.682E-04   10.70       2.5  T
   6  -3768.4953468 -0.181773E-06  0.224E-04   10.69       7.5  T
   7  -3768.4953469 -0.644186E-07  0.152E-04   10.69      11.1  T
     SCC iter.                  ...        8 min, 42.828 sec
     gradient                   ...        4 min, 25.694 sec
 * total energy  : -3715.8958749 Eh     change    :  -0.7369749E-01 Eh
   gradient norm :     0.2640197 Eh/a0  converged?    E=F G=F D=F
   time step     :     0.3025000 fs     power     :   0.2546741E-05
   step length   :     0.2996448 a0     speed     :   0.2396053E-01

........................................................................
.............................. CYCLE    8 ..............................
........................................................................

 iter      E             dE          RMSdq      gap      omega  full diag
   1  -3769.5894428 -0.376959E+04  0.303E-02   10.71       0.0  T
   2  -3769.5898932 -0.450425E-03  0.162E-02   10.71       1.0  T
   3  -3769.5899078 -0.146050E-04  0.573E-03   10.71       1.0  T
   4  -3769.5899118 -0.393120E-05  0.131E-03   10.70       1.3  T
   5  -3769.5899130 -0.122461E-05  0.752E-04   10.70       2.2  T
   6  -3769.5899132 -0.211636E-06  0.210E-04   10.70       8.0  T
   7  -3769.5899132 -0.551317E-07  0.150E-04   10.70      11.2  T
     SCC iter.                  ...        8 min, 44.682 sec
     gradient                   ...        4 min, 24.759 sec
 * total energy  : -3715.9512283 Eh     change    :  -0.5535336E-01 Eh
   gradient norm :     0.2420143 Eh/a0  converged?    E=F G=F D=F
   time step     :     0.3327500 fs     power     :   0.1477443E-05
   step length   :     0.3435286 a0     speed     :   0.2497238E-01

........................................................................
.............................. CYCLE    9 ..............................
........................................................................

 iter      E             dE          RMSdq      gap      omega  full diag
   1  -3770.7148802 -0.377071E+04  0.322E-02   10.72       0.0  T
   2  -3770.7152512 -0.371037E-03  0.174E-02   10.72       1.0  T
   3  -3770.7152696 -0.183569E-04  0.533E-03   10.72       1.0  T
   4  -3770.7152729 -0.331988E-05  0.129E-03   10.71       1.3  T
   5  -3770.7152734 -0.493584E-06  0.743E-04   10.71       2.3  T
   6  -3770.7152736 -0.196547E-06  0.163E-04   10.71      10.3  T
     SCC iter.                  ...        7 min, 22.973 sec
     gradient                   ...        4 min, 25.164 sec
 * total energy  : -3715.9857512 Eh     change    :  -0.3452295E-01 Eh
   gradient norm :     0.2499615 Eh/a0  converged?    E=F G=F D=F
   time step     :     0.3660250 fs     power     :   0.5722773E-06
   step length   :     0.3759271 a0     speed     :   0.2484323E-01

........................................................................
.............................. CYCLE   10 ..............................
........................................................................

 iter      E             dE          RMSdq      gap      omega  full diag
   1  -3771.7594160 -0.377176E+04  0.331E-02   10.73       0.0  T
   2  -3771.7596563 -0.240262E-03  0.184E-02   10.73       1.0  T
   3  -3771.7596719 -0.156045E-04  0.470E-03   10.73       1.0  T
   4  -3771.7596801 -0.823867E-05  0.144E-03   10.73       1.2  T
   5  -3771.7596812 -0.104246E-05  0.808E-04   10.73       2.1  T
   6  -3771.7596813 -0.124819E-06  0.134E-04   10.73      12.6  T
   7  -3771.7596813 -0.206342E-07  0.100E-04   10.73      16.8  T
     SCC iter.                  ...        8 min, 39.713 sec
     gradient                   ...        4 min, 24.496 sec
 * total energy  : -3716.0030869 Eh     change    :  -0.1733571E-01 Eh
   gradient norm :     0.2590368 Eh/a0  converged?    E=F G=F D=F
   time step     :     0.4026275 fs     power     :  -0.1972940E-07
   step length   :     0.3943653 a0     speed     :   0.2369247E-01

........................................................................
.............................. CYCLE   11 ..............................
........................................................................
 * reset velocities

 iter      E             dE          RMSdq      gap      omega  full diag
   1  -3771.7411037 -0.377174E+04  0.104E-03   10.73       0.0  T
   2  -3771.7411045 -0.826206E-06  0.639E-04   10.73       2.6  T
   3  -3771.7411045 -0.110767E-07  0.268E-04   10.73       6.3  T
     SCC iter.                  ...        3 min, 50.970 sec
     gradient                   ...        4 min, 23.783 sec
 * total energy  : -3716.0056058 Eh     change    :  -0.2518821E-02 Eh
   gradient norm :     0.2528524 Eh/a0  converged?    E=F G=F D=F
   time step     :     0.2013138 fs     power     :   0.1640396E-06
   step length   :     0.0098428 a0     speed     :   0.1182660E-02

........................................................................
.............................. CYCLE   12 ..............................
........................................................................

 iter      E             dE          RMSdq      gap      omega  full diag
   1  -3771.7044213 -0.377170E+04  0.208E-03   10.73       0.0  T
   2  -3771.7044244 -0.309939E-05  0.128E-03   10.73       1.3  T
   3  -3771.7044244 -0.280652E-07  0.518E-04   10.73       3.2  T
   4  -3771.7044245 -0.800637E-07  0.133E-04   10.73      12.7  T
     SCC iter.                  ...        4 min, 56.720 sec
     gradient                   ...        4 min, 23.692 sec
 * total energy  : -3716.0104060 Eh     change    :  -0.4800215E-02 Eh
   gradient norm :     0.2407910 Eh/a0  converged?    E=F G=F D=F
   time step     :     0.2013138 fs     power     :   0.3086266E-06
   step length   :     0.0194504 a0     speed     :   0.2337059E-02

........................................................................
.............................. CYCLE   13 ..............................
........................................................................

 iter      E             dE          RMSdq      gap      omega  full diag
   1  -3771.6505721 -0.377165E+04  0.300E-03   10.73       0.0  T
   2  -3771.6505791 -0.697271E-05  0.185E-03   10.73       1.0  T
   3  -3771.6505792 -0.101129E-06  0.781E-04   10.73       2.2  T
   4  -3771.6505794 -0.180537E-06  0.202E-04   10.73       8.3  T
     SCC iter.                  ...        4 min, 57.650 sec
     gradient                   ...        4 min, 24.336 sec
 * total energy  : -3716.0170395 Eh     change    :  -0.6633491E-02 Eh
   gradient norm :     0.2233301 Eh/a0  converged?    E=F G=F D=F
   time step     :     0.2013138 fs     power     :   0.4205499E-06
   step length   :     0.0285980 a0     speed     :   0.3436197E-02

........................................................................
.............................. CYCLE   14 ..............................
........................................................................

 iter      E             dE          RMSdq      gap      omega  full diag
   1  -3771.5809767 -0.377158E+04  0.388E-03   10.73       0.0  T
   2  -3771.5809884 -0.116590E-04  0.239E-03   10.73       1.0  T
   3  -3771.5809885 -0.174654E-06  0.101E-03   10.73       1.7  T
   4  -3771.5809888 -0.301140E-06  0.263E-04   10.73       6.4  T
   5  -3771.5809889 -0.866034E-07  0.671E-05   10.73      25.1  T
     SCC iter.                  ...        6 min,  9.254 sec
     gradient                   ...        4 min, 24.588 sec
 * total energy  : -3716.0248973 Eh     change    :  -0.7857801E-02 Eh
   gradient norm :     0.2012386 Eh/a0  converged?    E=F G=F D=F
   time step     :     0.2013138 fs     power     :   0.4902617E-06
   step length   :     0.0370759 a0     speed     :   0.4454859E-02

........................................................................
.............................. CYCLE   15 ..............................
........................................................................

 iter      E             dE          RMSdq      gap      omega  full diag
   1  -3771.4975571 -0.377150E+04  0.464E-03   10.73       0.0  T
   2  -3771.4975739 -0.168256E-04  0.286E-03   10.73       1.0  T
   3  -3771.4975742 -0.256890E-06  0.121E-03   10.73       1.4  T
   4  -3771.4975746 -0.419824E-06  0.315E-04   10.73       5.3  T
   5  -3771.4975747 -0.123656E-06  0.798E-05   10.73      21.1  T
     SCC iter.                  ...        6 min,  8.718 sec
     gradient                   ...        4 min, 24.149 sec
 * total energy  : -3716.0332780 Eh     change    :  -0.8380707E-02 Eh
   gradient norm :     0.1755692 Eh/a0  converged?    E=F G=F D=F
   time step     :     0.2013138 fs     power     :   0.5128729E-06
   step length   :     0.0446961 a0     speed     :   0.5370458E-02

........................................................................
.............................. CYCLE   16 ..............................
........................................................................

 iter      E             dE          RMSdq      gap      omega  full diag
   1  -3771.4027963 -0.377140E+04  0.527E-03   10.74       0.0  T
   2  -3771.4028181 -0.218164E-04  0.325E-03   10.74       1.0  T
   3  -3771.4028185 -0.338081E-06  0.138E-03   10.74       1.2  T
   4  -3771.4028190 -0.533516E-06  0.358E-04   10.74       4.7  T
   5  -3771.4028192 -0.159460E-06  0.910E-05   10.74      18.5  T
     SCC iter.                  ...        6 min,  8.403 sec
     gradient                   ...        4 min, 24.070 sec
 * total energy  : -3716.0414683 Eh     change    :  -0.8190374E-02 Eh
   gradient norm :     0.1479027 Eh/a0  converged?    E=F G=F D=F
   time step     :     0.2013138 fs     power     :   0.4890827E-06
   step length   :     0.0512935 a0     speed     :   0.6163162E-02

........................................................................
.............................. CYCLE   17 ..............................
........................................................................

 iter      E             dE          RMSdq      gap      omega  full diag
   1  -3771.2885417 -0.377129E+04  0.636E-03   10.74       0.0  T
   2  -3771.2885737 -0.320211E-04  0.394E-03   10.74       1.0  T
   3  -3771.2885742 -0.500166E-06  0.166E-03   10.74       1.0  T
   4  -3771.2885749 -0.763634E-06  0.434E-04   10.74       3.9  T
   5  -3771.2885752 -0.231866E-06  0.108E-04   10.74      15.5  T
     SCC iter.                  ...        6 min, 17.268 sec
     gradient                   ...        4 min, 24.824 sec
 * total energy  : -3716.0495388 Eh     change    :  -0.8070459E-02 Eh
   gradient norm :     0.1178564 Eh/a0  converged?    E=F G=F D=F
   time step     :     0.2214451 fs     power     :   0.4165825E-06
   step length   :     0.0630032 a0     speed     :   0.6881955E-02

........................................................................
.............................. CYCLE   18 ..............................
........................................................................

 iter      E             dE          RMSdq      gap      omega  full diag
   1  -3771.1570267 -0.377116E+04  0.739E-03   10.74       0.0  T
   2  -3771.1570700 -0.432549E-04  0.459E-03   10.74       1.0  T
   3  -3771.1570706 -0.676995E-06  0.193E-03   10.74       1.0  T
   4  -3771.1570716 -0.100916E-05  0.505E-04   10.74       3.3  T
   5  -3771.1570719 -0.311115E-06  0.125E-04   10.74      13.4  T
   6  -3771.1570720 -0.124496E-07  0.864E-05   10.74      19.5  T
     SCC iter.                  ...        7 min, 34.221 sec
     gradient                   ...        4 min, 25.617 sec
 * total energy  : -3716.0565213 Eh     change    :  -0.6982448E-02 Eh
   gradient norm :     0.0915557 Eh/a0  converged?    E=F G=F D=F
   time step     :     0.2435896 fs     power     :   0.2989790E-06
   step length   :     0.0751529 a0     speed     :   0.7462804E-02

........................................................................
.............................. CYCLE   19 ..............................
........................................................................

 iter      E             dE          RMSdq      gap      omega  full diag
   1  -3771.0166666 -0.377102E+04  0.809E-03   10.75       0.0  T
   2  -3771.0167179 -0.513046E-04  0.506E-03   10.75       1.0  T
   3  -3771.0167187 -0.764207E-06  0.210E-03   10.75       1.0  T
   4  -3771.0167199 -0.118962E-05  0.549E-04   10.75       3.1  T
   5  -3771.0167203 -0.364929E-06  0.128E-04   10.75      13.1  T
   6  -3771.0167203 -0.107884E-07  0.838E-05   10.75      20.1  T
     SCC iter.                  ...        7 min, 25.600 sec
     gradient                   ...        4 min, 24.332 sec
 * total energy  : -3716.0615218 Eh     change    :  -0.5000577E-02 Eh
   gradient norm :     0.0819894 Eh/a0  converged?    E=F G=F D=F
   time step     :     0.2679486 fs     power     :   0.1606306E-06
   step length   :     0.0863743 a0     speed     :   0.7797368E-02

........................................................................
.............................. CYCLE   20 ..............................
........................................................................

 iter      E             dE          RMSdq      gap      omega  full diag
   1  -3770.8855059 -0.377089E+04  0.812E-03   10.76       0.0  T
   2  -3770.8855548 -0.488927E-04  0.513E-03   10.76       1.0  T
   3  -3770.8855554 -0.622661E-06  0.205E-03   10.76       1.0  T
   4  -3770.8855566 -0.122720E-05  0.540E-04   10.76       3.1  T
   5  -3770.8855570 -0.350075E-06  0.128E-04   10.76      13.2  T
   6  -3770.8855570 -0.897899E-08  0.779E-05   10.76      21.6  T
     SCC iter.                  ...        7 min, 21.591 sec
     gradient                   ...        4 min, 25.240 sec
 * total energy  : -3716.0643634 Eh     change    :  -0.2841600E-02 Eh
   gradient norm :     0.0951434 Eh/a0  converged?    E=F G=F D=F
   time step     :     0.2947435 fs     power     :   0.5191714E-07
   step length   :     0.0941406 a0     speed     :   0.7725879E-02
 * RMSD in coord.:     0.0372580 a0     energy gain  -0.6992533E+00 Eh

........................................................................
.............................. CYCLE   21 ..............................
........................................................................

 iter      E             dE          RMSdq      gap      omega  full diag
   1  -3770.8061064 -0.377081E+04  0.577E-03   10.77       0.0  T
   2  -3770.8061276 -0.212165E-04  0.368E-03   10.77       1.0  T
   3  -3770.8061277 -0.138725E-06  0.134E-03   10.77       1.3  T
   4  -3770.8061284 -0.688984E-06  0.359E-04   10.77       4.7  T
   5  -3770.8061286 -0.155073E-06  0.926E-05   10.77      18.2  T
     SCC iter.                  ...        6 min,  9.988 sec
     gradient                   ...        4 min, 26.204 sec
 * total energy  : -3716.0657609 Eh     change    :  -0.1397511E-02 Eh
   gradient norm :     0.1112793 Eh/a0  converged?    E=F G=F D=F
   time step     :     0.2500000 fs     power     :   0.3303841E-07
   step length   :     0.0748288 a0     speed     :   0.7240084E-02

........................................................................
.............................. CYCLE   22 ..............................
........................................................................

 iter      E             dE          RMSdq      gap      omega  full diag
   1  -3770.7614043 -0.377076E+04  0.477E-03   10.77       0.0  T
   2  -3770.7614143 -0.992716E-05  0.305E-03   10.78       1.0  T
   3  -3770.7614142  0.102179E-06  0.864E-04   10.78       1.9  T
   4  -3770.7614147 -0.536977E-06  0.246E-04   10.78       6.8  T
     SCC iter.                  ...        5 min,  3.523 sec
     gradient                   ...        4 min, 24.307 sec
 * total energy  : -3716.0674449 Eh     change    :  -0.1683934E-02 Eh
   gradient norm :     0.1229444 Eh/a0  converged?    E=F G=F D=F
   time step     :     0.2500000 fs     power     :   0.6624756E-07
   step length   :     0.0698038 a0     speed     :   0.6753890E-02

........................................................................
.............................. CYCLE   23 ..............................
........................................................................

 iter      E             dE          RMSdq      gap      omega  full diag
   1  -3770.7507812 -0.377075E+04  0.418E-03   10.78       0.0  T
   2  -3770.7507842 -0.303607E-05  0.262E-03   10.78       1.0  T
   3  -3770.7507841  0.116147E-06  0.393E-04   10.78       4.3  T
   4  -3770.7507844 -0.327136E-06  0.147E-04   10.78      11.4  T
     SCC iter.                  ...        4 min, 58.590 sec
     gradient                   ...        4 min, 26.184 sec
 * total energy  : -3716.0700710 Eh     change    :  -0.2626072E-02 Eh
   gradient norm :     0.1276566 Eh/a0  converged?    E=F G=F D=F
   time step     :     0.2500000 fs     power     :   0.1265363E-06
   step length   :     0.0663867 a0     speed     :   0.6423268E-02

........................................................................
.............................. CYCLE   24 ..............................
........................................................................

 iter      E             dE          RMSdq      gap      omega  full diag
   1  -3770.7718854 -0.377077E+04  0.411E-03   10.79       0.0  T
   2  -3770.7718859 -0.486710E-06  0.247E-03   10.79       1.0  T
   3  -3770.7718860 -0.920081E-07  0.180E-04   10.79       9.3  T
   4  -3770.7718860 -0.439672E-07  0.100E-04   10.79      16.8  T
     SCC iter.                  ...        4 min, 52.786 sec
     gradient                   ...        4 min, 25.824 sec
 * total energy  : -3716.0738375 Eh     change    :  -0.3766574E-02 Eh
   gradient norm :     0.1253319 Eh/a0  converged?    E=F G=F D=F
   time step     :     0.2500000 fs     power     :   0.1902599E-06
   step length   :     0.0651444 a0     speed     :   0.6303069E-02

........................................................................
.............................. CYCLE   25 ..............................
........................................................................

 iter      E             dE          RMSdq      gap      omega  full diag
   1  -3770.8214259 -0.377082E+04  0.445E-03   10.80       0.0  T
   2  -3770.8214272 -0.129913E-05  0.259E-03   10.80       1.0  T
   3  -3770.8214272 -0.259292E-07  0.358E-04   10.80       4.7  T
   4  -3770.8214274 -0.145898E-06  0.114E-04   10.80      14.7  T
     SCC iter.                  ...        4 min, 59.593 sec
     gradient                   ...        4 min, 26.165 sec
 * total energy  : -3716.0785806 Eh     change    :  -0.4743069E-02 Eh
   gradient norm :     0.1169425 Eh/a0  converged?    E=F G=F D=F
   time step     :     0.2500000 fs     power     :   0.2400017E-06
   step length   :     0.0659014 a0     speed     :   0.6376312E-02

........................................................................
.............................. CYCLE   26 ..............................
........................................................................

 iter      E             dE          RMSdq      gap      omega  full diag
   1  -3770.9045287 -0.377090E+04  0.554E-03   10.81       0.0  T
   2  -3770.9045341 -0.547357E-05  0.316E-03   10.81       1.0  T
   3  -3770.9045340  0.112029E-06  0.753E-04   10.81       2.2  T
   4  -3770.9045345 -0.455826E-06  0.169E-04   10.81      10.0  T
     SCC iter.                  ...        5 min,  1.451 sec
     gradient                   ...        4 min, 26.820 sec
 * total energy  : -3716.0844795 Eh     change    :  -0.5898878E-02 Eh
   gradient norm :     0.1026128 Eh/a0  converged?    E=F G=F D=F
   time step     :     0.2750000 fs     power     :   0.2654401E-06
   step length   :     0.0754180 a0     speed     :   0.6633723E-02

........................................................................
.............................. CYCLE   27 ..............................
........................................................................

 iter      E             dE          RMSdq      gap      omega  full diag
   1  -3771.0226980 -0.377102E+04  0.683E-03   10.82       0.0  T
   2  -3771.0227110 -0.129608E-04  0.387E-03   10.82       1.0  T
   3  -3771.0227108  0.167096E-06  0.112E-03   10.82       1.5  T
   4  -3771.0227116 -0.774703E-06  0.242E-04   10.82       6.9  T
   5  -3771.0227117 -0.926443E-07  0.117E-04   10.82      14.4  T
     SCC iter.                  ...        6 min,  8.889 sec
     gradient                   ...        4 min, 24.982 sec
 * total energy  : -3716.0910067 Eh     change    :  -0.6527254E-02 Eh
   gradient norm :     0.0847731 Eh/a0  converged?    E=F G=F D=F
   time step     :     0.3025000 fs     power     :   0.2566226E-06
   step length   :     0.0876637 a0     speed     :   0.7009861E-02

........................................................................
.............................. CYCLE   28 ..............................
........................................................................

 iter      E             dE          RMSdq      gap      omega  full diag
   1  -3771.1734678 -0.377117E+04  0.809E-03   10.83       0.0  T
   2  -3771.1734898 -0.220083E-04  0.456E-03   10.83       1.0  T
   3  -3771.1734897  0.161890E-06  0.141E-03   10.83       1.2  T
   4  -3771.1734907 -0.101148E-05  0.308E-04   10.83       5.5  T
   5  -3771.1734908 -0.152499E-06  0.130E-04   10.83      13.0  T
   6  -3771.1734909 -0.170558E-07  0.786E-05   10.83      21.4  T
     SCC iter.                  ...        7 min, 22.966 sec
     gradient                   ...        4 min, 26.278 sec
 * total energy  : -3716.0973762 Eh     change    :  -0.6369457E-02 Eh
   gradient norm :     0.0700408 Eh/a0  converged?    E=F G=F D=F
   time step     :     0.3327500 fs     power     :   0.2144698E-06
   step length   :     0.1019697 a0     speed     :   0.7412562E-02

........................................................................
.............................. CYCLE   29 ..............................
........................................................................

 iter      E             dE          RMSdq      gap      omega  full diag
   1  -3771.3455028 -0.377135E+04  0.894E-03   10.84       0.0  T
   2  -3771.3455298 -0.269881E-04  0.502E-03   10.84       1.0  T
   3  -3771.3455296  0.133073E-06  0.151E-03   10.84       1.1  T
   4  -3771.3455307 -0.104359E-05  0.337E-04   10.84       5.0  T
   5  -3771.3455308 -0.182426E-06  0.130E-04   10.84      12.9  T
   6  -3771.3455309 -0.139398E-07  0.748E-05   10.84      22.5  T
     SCC iter.                  ...        7 min, 24.029 sec
     gradient                   ...        4 min, 24.908 sec
 * total energy  : -3716.1029345 Eh     change    :  -0.5558299E-02 Eh
   gradient norm :     0.0677765 Eh/a0  converged?    E=F G=F D=F
   time step     :     0.3660250 fs     power     :   0.1590424E-06
   step length   :     0.1168238 a0     speed     :   0.7720324E-02

........................................................................
.............................. CYCLE   30 ..............................
........................................................................

 iter      E             dE          RMSdq      gap      omega  full diag
   1  -3771.5150902 -0.377152E+04  0.899E-03   10.85       0.0  T
   2  -3771.5151119 -0.217010E-04  0.503E-03   10.85       1.0  T
   3  -3771.5151119 -0.831960E-08  0.131E-03   10.85       1.3  T
   4  -3771.5151126 -0.703848E-06  0.295E-04   10.85       5.7  T
   5  -3771.5151128 -0.132061E-06  0.124E-04   10.85      13.5  T
     SCC iter.                  ...        6 min, 12.413 sec
     gradient                   ...        4 min, 26.159 sec
 * total energy  : -3716.1077775 Eh     change    :  -0.4842991E-02 Eh
   gradient norm :     0.0759562 Eh/a0  converged?    E=F G=F D=F
   time step     :     0.4026275 fs     power     :   0.1245957E-06
   step length   :     0.1300823 a0     speed     :   0.7815014E-02

........................................................................
.............................. CYCLE   31 ..............................
........................................................................

 iter      E             dE          RMSdq      gap      omega  full diag
   1  -3771.6551532 -0.377166E+04  0.839E-03   10.86       0.0  T
   2  -3771.6551630 -0.979986E-05  0.473E-03   10.86       1.0  T
   3  -3771.6551633 -0.278960E-06  0.835E-04   10.86       2.0  T
   4  -3771.6551635 -0.211321E-06  0.193E-04   10.86       8.7  T
     SCC iter.                  ...        4 min, 53.995 sec
     gradient                   ...        4 min, 24.919 sec
 * total energy  : -3716.1128175 Eh     change    :  -0.5040023E-02 Eh
   gradient norm :     0.0817015 Eh/a0  converged?    E=F G=F D=F
   time step     :     0.4428903 fs     power     :   0.1263471E-06
   step length   :     0.1423332 a0     speed     :   0.7773651E-02

........................................................................
.............................. CYCLE   32 ..............................
........................................................................

 iter      E             dE          RMSdq      gap      omega  full diag
   1  -3771.7431075 -0.377174E+04  0.780E-03   10.87       0.0  T
   2  -3771.7431101 -0.268659E-05  0.457E-03   10.87       1.0  T
   3  -3771.7431100  0.167955E-06  0.621E-04   10.87       2.7  T
   4  -3771.7431107 -0.720455E-06  0.183E-04   10.87       9.2  T
     SCC iter.                  ...        4 min, 56.198 sec
     gradient                   ...        4 min, 25.801 sec
 * total energy  : -3716.1189169 Eh     change    :  -0.6099445E-02 Eh
   gradient norm :     0.0770398 Eh/a0  converged?    E=F G=F D=F
   time step     :     0.4871793 fs     power     :   0.1445047E-06
   step length   :     0.1567955 a0     speed     :   0.7785021E-02

........................................................................
.............................. CYCLE   33 ..............................
........................................................................

 iter      E             dE          RMSdq      gap      omega  full diag
   1  -3771.7645235 -0.377176E+04  0.783E-03   10.87       0.0  T
   2  -3771.7645342 -0.107149E-04  0.491E-03   10.87       1.0  T
   3  -3771.7645328  0.140383E-05  0.114E-03   10.87       1.5  T
   4  -3771.7645354 -0.259791E-05  0.224E-04   10.88       7.5  T
   5  -3771.7645355 -0.351897E-07  0.125E-04   10.88      13.5  T
   6  -3771.7645355 -0.776754E-08  0.537E-05   10.88      31.3  T
     SCC iter.                  ...        7 min, 22.630 sec
     gradient                   ...        4 min, 25.381 sec
 * total energy  : -3716.1258811 Eh     change    :  -0.6964196E-02 Eh
   gradient norm :     0.0639980 Eh/a0  converged?    E=F G=F D=F
   time step     :     0.5358972 fs     power     :   0.1435902E-06
   step length   :     0.1757122 a0     speed     :   0.7931137E-02

........................................................................
.............................. CYCLE   34 ..............................
........................................................................

 iter      E             dE          RMSdq      gap      omega  full diag
   1  -3771.7226819 -0.377172E+04  0.843E-03   10.89       0.0  T
   2  -3771.7227119 -0.300184E-04  0.549E-03   10.89       1.0  T
   3  -3771.7227112  0.650039E-06  0.166E-03   10.89       1.0  T
   4  -3771.7227136 -0.237706E-05  0.392E-04   10.89       4.3  T
   5  -3771.7227138 -0.209605E-06  0.155E-04   10.89      10.8  T
   6  -3771.7227139 -0.163704E-07  0.814E-05   10.89      20.7  T
     SCC iter.                  ...        7 min, 22.526 sec
     gradient                   ...        4 min, 24.530 sec
 * total energy  : -3716.1324858 Eh     change    :  -0.6604642E-02 Eh
   gradient norm :     0.0574045 Eh/a0  converged?    E=F G=F D=F
   time step     :     0.5894869 fs     power     :   0.1112251E-06
   step length   :     0.1981893 a0     speed     :   0.8132444E-02

........................................................................
.............................. CYCLE   35 ..............................
........................................................................

 iter      E             dE          RMSdq      gap      omega  full diag
   1  -3771.6569089 -0.377166E+04  0.893E-03   10.91       0.0  T
   2  -3771.6569425 -0.336772E-04  0.573E-03   10.91       1.0  T
   3  -3771.6569424  0.137017E-06  0.155E-03   10.91       1.1  T
   4  -3771.6569440 -0.158864E-05  0.480E-04   10.91       3.5  T
   5  -3771.6569443 -0.281011E-06  0.173E-04   10.91       9.7  T
   6  -3771.6569443 -0.154341E-07  0.752E-05   10.91      22.4  T
     SCC iter.                  ...        7 min, 20.235 sec
     gradient                   ...        4 min, 23.578 sec
 * total energy  : -3716.1382523 Eh     change    :  -0.5766552E-02 Eh
   gradient norm :     0.0637513 Eh/a0  converged?    E=F G=F D=F
   time step     :     0.6484356 fs     power     :   0.8490920E-07
   step length   :     0.2199353 a0     speed     :   0.8204331E-02

........................................................................
.............................. CYCLE   36 ..............................
........................................................................

 iter      E             dE          RMSdq      gap      omega  full diag
   1  -3771.6284360 -0.377163E+04  0.998E-03   10.93       0.0  T
   2  -3771.6284505 -0.144788E-04  0.600E-03   10.93       1.0  T
   3  -3771.6284513 -0.804726E-06  0.858E-04   10.93       2.0  T
   4  -3771.6284517 -0.412312E-06  0.313E-04   10.93       5.4  T
     SCC iter.                  ...        4 min, 53.227 sec
     gradient                   ...        4 min, 25.020 sec
 * total energy  : -3716.1443725 Eh     change    :  -0.6120181E-02 Eh
   gradient norm :     0.0630648 Eh/a0  converged?    E=F G=F D=F
   time step     :     0.7132792 fs     power     :   0.8842154E-07
   step length   :     0.2407611 a0     speed     :   0.8164730E-02

........................................................................
.............................. CYCLE   37 ..............................
........................................................................

 iter      E             dE          RMSdq      gap      omega  full diag
   1  -3771.6819722 -0.377168E+04  0.121E-02   10.96       0.0  T
   2  -3771.6819805 -0.836939E-05  0.700E-03   10.97       1.0  T
   3  -3771.6819803  0.219866E-06  0.125E-03   10.97       1.3  T
   4  -3771.6819824 -0.211566E-05  0.347E-04   10.97       4.8  T
   5  -3771.6819825 -0.153459E-07  0.126E-04   10.97      13.4  T
   6  -3771.6819825 -0.562295E-08  0.325E-05   10.97      51.7  T
     SCC iter.                  ...        7 min, 25.955 sec
     gradient                   ...        4 min, 25.369 sec
 * total energy  : -3716.1510246 Eh     change    :  -0.6652067E-02 Eh
   gradient norm :     0.0510495 Eh/a0  converged?    E=F G=F D=F
   time step     :     0.7846071 fs     power     :   0.8033221E-07
   step length   :     0.2661378 a0     speed     :   0.8204828E-02

........................................................................
.............................. CYCLE   38 ..............................
........................................................................

 iter      E             dE          RMSdq      gap      omega  full diag
   1  -3771.8143121 -0.377181E+04  0.132E-02   11.00       0.0  T
   2  -3771.8143354 -0.232450E-04  0.766E-03   11.00       1.0  T
   3  -3771.8143343  0.105473E-05  0.169E-03   11.00       1.0  T
   4  -3771.8143376 -0.326953E-05  0.359E-04   11.00       4.7  T
   5  -3771.8143377 -0.104987E-06  0.179E-04   11.00       9.4  T
   6  -3771.8143377 -0.102400E-07  0.605E-05   10.99      27.8  T
     SCC iter.                  ...        7 min, 28.698 sec
     gradient                   ...        4 min, 24.538 sec
 * total energy  : -3716.1564506 Eh     change    :  -0.5426069E-02 Eh
   gradient norm :     0.0534841 Eh/a0  converged?    E=F G=F D=F
   time step     :     0.8630678 fs     power     :   0.4523704E-07
   step length   :     0.2940587 a0     speed     :   0.8241461E-02

........................................................................
.............................. CYCLE   39 ..............................
........................................................................

 iter      E             dE          RMSdq      gap      omega  full diag
   1  -3771.9473791 -0.377195E+04  0.118E-02   11.02       0.0  T
   2  -3771.9473922 -0.131086E-04  0.684E-03   11.02       1.0  T
   3  -3771.9473926 -0.409860E-06  0.977E-04   11.02       1.7  T
   4  -3771.9473933 -0.751261E-06  0.272E-04   11.02       6.2  T
     SCC iter.                  ...        4 min, 56.511 sec
     gradient                   ...        4 min, 26.000 sec
 * total energy  : -3716.1614327 Eh     change    :  -0.4982010E-02 Eh
   gradient norm :     0.0579315 Eh/a0  converged?    E=F G=F D=F
   time step     :     0.9493746 fs     power     :   0.4294719E-07
   step length   :     0.3171912 a0     speed     :   0.8081625E-02

........................................................................
.............................. CYCLE   40 ..............................
........................................................................

 iter      E             dE          RMSdq      gap      omega  full diag
   1  -3772.0140297 -0.377201E+04  0.116E-02   11.02       0.0  T
   2  -3772.0140458 -0.161118E-04  0.692E-03   11.02       1.0  T
   3  -3772.0140439  0.195204E-05  0.158E-03   11.02       1.1  T
   4  -3772.0140485 -0.459114E-05  0.339E-04   11.02       5.0  T
   5  -3772.0140485 -0.378041E-07  0.182E-04   11.02       9.2  T
   6  -3772.0140485 -0.163500E-07  0.693E-05   11.03      24.3  T
     SCC iter.                  ...        7 min, 25.867 sec
     gradient                   ...        4 min, 25.303 sec
 * total energy  : -3716.1673030 Eh     change    :  -0.5870321E-02 Eh
   gradient norm :     0.0487670 Eh/a0  converged?    E=F G=F D=F
   time step     :     1.0443120 fs     power     :   0.4407480E-07
   step length   :     0.3450584 a0     speed     :   0.7992405E-02

........................................................................
.............................. CYCLE   41 ..............................
........................................................................

 iter      E             dE          RMSdq      gap      omega  full diag
   1  -3772.0354746 -0.377204E+04  0.126E-02   11.04       0.0  T
   2  -3772.0355048 -0.301463E-04  0.777E-03   11.04       1.0  T
   3  -3772.0355029  0.188010E-05  0.171E-03   11.04       1.0  T
   4  -3772.0355077 -0.485041E-05  0.428E-04   11.04       3.9  T
   5  -3772.0355079 -0.161834E-06  0.227E-04   11.04       7.4  T
   6  -3772.0355079 -0.318537E-07  0.100E-04   11.04      16.7  T
     SCC iter.                  ...        7 min, 20.734 sec
     gradient                   ...        4 min, 24.964 sec
 * total energy  : -3716.1722297 Eh     change    :  -0.4926693E-02 Eh
   gradient norm :     0.0498977 Eh/a0  converged?    E=F G=F D=F
   time step     :     1.1487432 fs     power     :   0.2110506E-07
   step length   :     0.3772230 a0     speed     :   0.7943105E-02

........................................................................
.............................. CYCLE   42 ..............................
........................................................................

 iter      E             dE          RMSdq      gap      omega  full diag
   1  -3772.1058265 -0.377211E+04  0.140E-02   11.08       0.0  T
   2  -3772.1058345 -0.803684E-05  0.814E-03   11.08       1.0  T
   3  -3772.1058348 -0.231922E-06  0.102E-03   11.08       1.7  T
   4  -3772.1058360 -0.124527E-05  0.321E-04   11.08       5.2  T
   5  -3772.1058360 -0.239434E-07  0.152E-04   11.08      11.1  T
   6  -3772.1058360 -0.935006E-08  0.456E-05   11.08      36.9  T
     SCC iter.                  ...        7 min, 22.238 sec
     gradient                   ...        4 min, 25.035 sec
 * total energy  : -3716.1762656 Eh     change    :  -0.4035957E-02 Eh
   gradient norm :     0.0466762 Eh/a0  converged?    E=F G=F D=F
   time step     :     1.2500000 fs     power     :   0.9098995E-08
   step length   :     0.4007112 a0     speed     :   0.7754193E-02
 * RMSD in coord.:     0.0601807 a0     energy gain  -0.1119022E+00 Eh

........................................................................
.............................. CYCLE   43 ..............................
........................................................................

 iter      E             dE          RMSdq      gap      omega  full diag
   1  -3772.1198616 -0.377212E+04  0.237E-03   11.08       0.0  T
   2  -3772.1198619 -0.279746E-06  0.137E-03   11.08       1.2  T
   3  -3772.1198618  0.158502E-07  0.206E-04   11.08       8.2  T
   4  -3772.1198619 -0.598397E-07  0.501E-05   11.08      33.6  T
     SCC iter.                  ...        4 min, 55.007 sec
     gradient                   ...        4 min, 24.679 sec
 * total energy  : -3716.1768421 Eh     change    :  -0.5765063E-03 Eh
   gradient norm :     0.0469493 Eh/a0  converged?    E=F G=F D=F
   time step     :     0.2500000 fs     power     :   0.2636965E-07
   step length   :     0.0734102 a0     speed     :   0.7102835E-02

........................................................................
.............................. CYCLE   44 ..............................
........................................................................

 iter      E             dE          RMSdq      gap      omega  full diag
   1  -3772.1327927 -0.377213E+04  0.227E-03   11.09       0.0  T
   2  -3772.1327932 -0.512684E-06  0.133E-03   11.09       1.3  T
   3  -3772.1327932  0.211635E-07  0.230E-04   11.09       7.3  T
   4  -3772.1327933 -0.670047E-07  0.494E-05   11.09      34.1  T
     SCC iter.                  ...        4 min, 55.459 sec
     gradient                   ...        4 min, 24.483 sec
 * total energy  : -3716.1776824 Eh     change    :  -0.8402872E-03 Eh
   gradient norm :     0.0435318 Eh/a0  converged?    E=F G=F D=F
   time step     :     0.2500000 fs     power     :   0.4032458E-07
   step length   :     0.0682585 a0     speed     :   0.6604377E-02

........................................................................
.............................. CYCLE   45 ..............................
........................................................................

 iter      E             dE          RMSdq      gap      omega  full diag
   1  -3772.1430269 -0.377214E+04  0.243E-03   11.09       0.0  T
   2  -3772.1430277 -0.784830E-06  0.146E-03   11.09       1.2  T
   3  -3772.1430277  0.801174E-08  0.250E-04   11.09       6.7  T
   4  -3772.1430278 -0.694718E-07  0.620E-05   11.09      27.1  T
     SCC iter.                  ...        5 min,  4.322 sec
     gradient                   ...        4 min, 25.505 sec
 * total energy  : -3716.1786654 Eh     change    :  -0.9829874E-03 Eh
   gradient norm :     0.0374825 Eh/a0  converged?    E=F G=F D=F
   time step     :     0.2500000 fs     power     :   0.4638293E-07
   step length   :     0.0644706 a0     speed     :   0.6237874E-02

........................................................................
.............................. CYCLE   46 ..............................
........................................................................

 iter      E             dE          RMSdq      gap      omega  full diag
   1  -3772.1489264 -0.377215E+04  0.268E-03   11.09       0.0  T
   2  -3772.1489273 -0.944764E-06  0.162E-03   11.09       1.0  T
   3  -3772.1489273 -0.107416E-07  0.260E-04   11.09       6.5  T
   4  -3772.1489274 -0.732343E-07  0.739E-05   11.09      22.8  T
     SCC iter.                  ...        5 min,  6.505 sec
     gradient                   ...        4 min, 24.890 sec
 * total energy  : -3716.1796318 Eh     change    :  -0.9663440E-03 Eh
   gradient norm :     0.0304790 Eh/a0  converged?    E=F G=F D=F
   time step     :     0.2500000 fs     power     :   0.4363478E-07
   step length   :     0.0616779 a0     speed     :   0.5967667E-02

........................................................................
.............................. CYCLE   47 ..............................
........................................................................

 iter      E             dE          RMSdq      gap      omega  full diag
   1  -3772.1488893 -0.377215E+04  0.287E-03   11.09       0.0  T
   2  -3772.1488902 -0.923934E-06  0.174E-03   11.09       1.0  T
   3  -3772.1488902 -0.242494E-07  0.261E-04   11.09       6.5  T
   4  -3772.1488903 -0.821415E-07  0.832E-05   11.09      20.2  T
     SCC iter.                  ...        4 min, 59.729 sec
     gradient                   ...        4 min, 24.688 sec
 * total energy  : -3716.1804472 Eh     change    :  -0.8154443E-03 Eh
   gradient norm :     0.0250286 Eh/a0  converged?    E=F G=F D=F
   time step     :     0.2500000 fs     power     :   0.3441278E-07
   step length   :     0.0594205 a0     speed     :   0.5749250E-02

........................................................................
.............................. CYCLE   48 ..............................
........................................................................

 iter      E             dE          RMSdq      gap      omega  full diag
   1  -3772.1410458 -0.377214E+04  0.320E-03   11.09       0.0  T
   2  -3772.1410467 -0.913207E-06  0.192E-03   11.09       1.0  T
   3  -3772.1410468 -0.226592E-07  0.292E-04   11.09       5.8  T
   4  -3772.1410469 -0.124616E-06  0.979E-05   11.09      17.2  T
     SCC iter.                  ...        5 min,  0.877 sec
     gradient                   ...        4 min, 25.758 sec
 * total energy  : -3716.1811014 Eh     change    :  -0.6542109E-03 Eh
   gradient norm :     0.0237490 Eh/a0  converged?    E=F G=F D=F
   time step     :     0.2750000 fs     power     :   0.2211710E-07
   step length   :     0.0628957 a0     speed     :   0.5532269E-02

........................................................................
.............................. CYCLE   49 ..............................
........................................................................

 iter      E             dE          RMSdq      gap      omega  full diag
   1  -3772.1249086 -0.377212E+04  0.327E-03   11.09       0.0  T
   2  -3772.1249094 -0.820219E-06  0.193E-03   11.09       1.0  T
   3  -3772.1249094  0.250111E-08  0.324E-04   11.09       5.2  T
   4  -3772.1249096 -0.172824E-06  0.103E-04   11.09      16.4  T
     SCC iter.                  ...        4 min, 55.163 sec
     gradient                   ...        4 min, 25.047 sec
 * total energy  : -3716.1815863 Eh     change    :  -0.4848878E-03 Eh
   gradient norm :     0.0269074 Eh/a0  converged?    E=F G=F D=F
   time step     :     0.3025000 fs     power     :   0.1334257E-07
   step length   :     0.0656104 a0     speed     :   0.5246413E-02

........................................................................
.............................. CYCLE   50 ..............................
........................................................................

 iter      E             dE          RMSdq      gap      omega  full diag
   1  -3772.1028607 -0.377210E+04  0.314E-03   11.09       0.0  T
   2  -3772.1028615 -0.804896E-06  0.182E-03   11.09       1.0  T
   3  -3772.1028615  0.166528E-07  0.333E-04   11.09       5.0  T
   4  -3772.1028617 -0.174051E-06  0.946E-05   11.09      17.8  T
     SCC iter.                  ...        4 min, 54.968 sec
     gradient                   ...        4 min, 24.899 sec
 * total energy  : -3716.1820157 Eh     change    :  -0.4293983E-03 Eh
   gradient norm :     0.0307495 Eh/a0  converged?    E=F G=F D=F
   time step     :     0.3327500 fs     power     :   0.1161141E-07
   step length   :     0.0675013 a0     speed     :   0.4906922E-02

........................................................................
.............................. CYCLE   51 ..............................
........................................................................

 iter      E             dE          RMSdq      gap      omega  full diag
   1  -3772.0783980 -0.377208E+04  0.301E-03   11.09       0.0  T
   2  -3772.0783989 -0.896010E-06  0.172E-03   11.09       1.0  T
   3  -3772.0783989  0.116688E-07  0.319E-04   11.09       5.3  T
   4  -3772.0783990 -0.130997E-06  0.796E-05   11.10      21.1  T
     SCC iter.                  ...        5 min,  1.212 sec
     gradient                   ...        4 min, 24.903 sec
 * total energy  : -3716.1825418 Eh     change    :  -0.5260878E-03 Eh
   gradient norm :     0.0324350 Eh/a0  converged?    E=F G=F D=F
   time step     :     0.3660250 fs     power     :   0.1531352E-07
   step length   :     0.0694690 a0     speed     :   0.4590872E-02

........................................................................
.............................. CYCLE   52 ..............................
........................................................................

 iter      E             dE          RMSdq      gap      omega  full diag
   1  -3772.0554376 -0.377206E+04  0.307E-03   11.10       0.0  T
   2  -3772.0554386 -0.100915E-05  0.176E-03   11.10       1.0  T
   3  -3772.0554386  0.122327E-08  0.294E-04   11.10       5.7  T
   4  -3772.0554387 -0.844029E-07  0.658E-05   11.10      25.6  T
     SCC iter.                  ...        5 min,  1.233 sec
     gradient                   ...        4 min, 25.449 sec
 * total energy  : -3716.1832585 Eh     change    :  -0.7167338E-03 Eh
   gradient norm :     0.0310143 Eh/a0  converged?    E=F G=F D=F
   time step     :     0.4026275 fs     power     :   0.2027990E-07
   step length   :     0.0723861 a0     speed     :   0.4348777E-02

........................................................................
.............................. CYCLE   53 ..............................
........................................................................

 iter      E             dE          RMSdq      gap      omega  full diag
   1  -3772.0383519 -0.377204E+04  0.337E-03   11.10       0.0  T
   2  -3772.0383529 -0.101587E-05  0.196E-03   11.10       1.0  T
   3  -3772.0383529 -0.103441E-07  0.268E-04   11.10       6.3  T
   4  -3772.0383530 -0.642408E-07  0.604E-05   11.10      27.8  T
     SCC iter.                  ...        4 min, 54.830 sec
     gradient                   ...        4 min, 23.763 sec
 * total energy  : -3716.1841435 Eh     change    :  -0.8849877E-03 Eh
   gradient norm :     0.0270773 Eh/a0  converged?    E=F G=F D=F
   time step     :     0.4428903 fs     power     :   0.2233292E-07
   step length   :     0.0767607 a0     speed     :   0.4192351E-02

........................................................................
.............................. CYCLE   54 ..............................
........................................................................

 iter      E             dE          RMSdq      gap      omega  full diag
   1  -3772.0317435 -0.377203E+04  0.377E-03   11.10       0.0  T
   2  -3772.0317444 -0.858064E-06  0.222E-03   11.10       1.0  T
   3  -3772.0317444 -0.662703E-08  0.269E-04   11.10       6.3  T
   4  -3772.0317445 -0.980513E-07  0.771E-05   11.10      21.8  T
     SCC iter.                  ...        5 min,  5.597 sec
     gradient                   ...        4 min, 25.641 sec
 * total energy  : -3716.1850621 Eh     change    :  -0.9186376E-03 Eh
   gradient norm :     0.0229311 Eh/a0  converged?    E=F G=F D=F
   time step     :     0.4871793 fs     power     :   0.1950051E-07
   step length   :     0.0825365 a0     speed     :   0.4098002E-02

........................................................................
.............................. CYCLE   55 ..............................
........................................................................

 iter      E             dE          RMSdq      gap      omega  full diag
   1  -3772.0388624 -0.377204E+04  0.398E-03   11.10       0.0  T
   2  -3772.0388632 -0.758666E-06  0.235E-03   11.10       1.0  T
   3  -3772.0388632  0.247915E-07  0.316E-04   11.10       5.3  T
   4  -3772.0388634 -0.181476E-06  0.100E-04   11.10      16.8  T
     SCC iter.                  ...        4 min, 57.525 sec
     gradient                   ...        4 min, 24.329 sec
 * total energy  : -3716.1858640 Eh     change    :  -0.8018436E-03 Eh
   gradient norm :     0.0217968 Eh/a0  converged?    E=F G=F D=F
   time step     :     0.5358972 fs     power     :   0.1370823E-07
   step length   :     0.0889031 a0     speed     :   0.4012828E-02

........................................................................
.............................. CYCLE   56 ..............................
........................................................................

 iter      E             dE          RMSdq      gap      omega  full diag
   1  -3772.0578435 -0.377206E+04  0.381E-03   11.10       0.0  T
   2  -3772.0578446 -0.107661E-05  0.225E-03   11.10       1.0  T
   3  -3772.0578446  0.150812E-07  0.351E-04   11.10       4.8  T
   4  -3772.0578448 -0.183040E-06  0.109E-04   11.10      15.4  T
     SCC iter.                  ...        4 min, 55.459 sec
     gradient                   ...        4 min, 24.372 sec
 * total energy  : -3716.1865319 Eh     change    :  -0.6679443E-03 Eh
   gradient norm :     0.0238880 Eh/a0  converged?    E=F G=F D=F
   time step     :     0.5894869 fs     power     :   0.9711825E-08
   step length   :     0.0946465 a0     speed     :   0.3883700E-02

........................................................................
.............................. CYCLE   57 ..............................
........................................................................

 iter      E             dE          RMSdq      gap      omega  full diag
   1  -3772.0811110 -0.377208E+04  0.348E-03   11.10       0.0  T
   2  -3772.0811125 -0.145906E-05  0.204E-03   11.10       1.0  T
   3  -3772.0811125 -0.286796E-07  0.352E-04   11.10       4.8  T
   4  -3772.0811126 -0.104983E-06  0.101E-04   11.10      16.6  T
     SCC iter.                  ...        5 min,  7.342 sec
     gradient                   ...        4 min, 26.043 sec
 * total energy  : -3716.1872268 Eh     change    :  -0.6949176E-03 Eh
   gradient norm :     0.0261034 Eh/a0  converged?    E=F G=F D=F
   time step     :     0.6484356 fs     power     :   0.1035863E-07
   step length   :     0.0999545 a0     speed     :   0.3728640E-02

........................................................................
.............................. CYCLE   58 ..............................
........................................................................

 iter      E             dE          RMSdq      gap      omega  full diag
   1  -3772.0991224 -0.377210E+04  0.338E-03   11.09       0.0  T
   2  -3772.0991236 -0.121939E-05  0.198E-03   11.09       1.0  T
   3  -3772.0991237 -0.505215E-07  0.310E-04   11.09       5.4  T
   4  -3772.0991237 -0.646519E-07  0.889E-05   11.09      18.9  T
     SCC iter.                  ...        4 min, 54.884 sec
     gradient                   ...        4 min, 22.992 sec
 * total energy  : -3716.1881516 Eh     change    :  -0.9247733E-03 Eh
   gradient norm :     0.0256589 Eh/a0  converged?    E=F G=F D=F
   time step     :     0.7132792 fs     power     :   0.1410763E-07
   step length   :     0.1066387 a0     speed     :   0.3616350E-02

........................................................................
.............................. CYCLE   59 ..............................
........................................................................

 iter      E             dE          RMSdq      gap      omega  full diag
   1  -3772.1031939 -0.377210E+04  0.375E-03   11.09       0.0  T
   2  -3772.1031946 -0.737038E-06  0.219E-03   11.09       1.0  T
   3  -3772.1031947 -0.630412E-07  0.293E-04   11.09       5.7  T
   4  -3772.1031948 -0.869031E-07  0.100E-04   11.09      16.8  T
     SCC iter.                  ...        5 min,  0.225 sec
     gradient                   ...        4 min, 23.962 sec
 * total energy  : -3716.1893322 Eh     change    :  -0.1180563E-02 Eh
   gradient norm :     0.0220290 Eh/a0  converged?    E=F G=F D=F
   time step     :     0.7846071 fs     power     :   0.1609957E-07
   step length   :     0.1163848 a0     speed     :   0.3588055E-02

........................................................................
.............................. CYCLE   60 ..............................
........................................................................

 iter      E             dE          RMSdq      gap      omega  full diag
   1  -3772.0884241 -0.377209E+04  0.435E-03   11.09       0.0  T
   2  -3772.0884254 -0.133948E-05  0.253E-03   11.09       1.0  T
   3  -3772.0884255 -0.862233E-07  0.388E-04   11.09       4.3  T
   4  -3772.0884256 -0.126520E-06  0.117E-04   11.09      14.4  T
     SCC iter.                  ...        5 min,  0.871 sec
     gradient                   ...        4 min, 26.028 sec
 * total energy  : -3716.1905362 Eh     change    :  -0.1204010E-02 Eh
   gradient norm :     0.0202713 Eh/a0  converged?    E=F G=F D=F
   time step     :     0.8630678 fs     power     :   0.1328738E-07
   step length   :     0.1290116 a0     speed     :   0.3615753E-02

........................................................................
.............................. CYCLE   61 ..............................
........................................................................

 iter      E             dE          RMSdq      gap      omega  full diag
   1  -3772.0598523 -0.377206E+04  0.445E-03   11.09       0.0  T
   2  -3772.0598544 -0.215407E-05  0.256E-03   11.09       1.0  T
   3  -3772.0598545 -0.942837E-07  0.465E-04   11.09       3.6  T
   4  -3772.0598546 -0.128581E-06  0.118E-04   11.09      14.2  T
     SCC iter.                  ...        4 min, 57.805 sec
     gradient                   ...        4 min, 24.649 sec
 * total energy  : -3716.1916920 Eh     change    :  -0.1155786E-02 Eh
   gradient norm :     0.0228596 Eh/a0  converged?    E=F G=F D=F
   time step     :     0.9493746 fs     power     :   0.1180539E-07
   step length   :     0.1420078 a0     speed     :   0.3618175E-02

........................................................................
.............................. CYCLE   62 ..............................
........................................................................

 iter      E             dE          RMSdq      gap      omega  full diag
   1  -3772.0342217 -0.377203E+04  0.424E-03   11.09       0.0  T
   2  -3772.0342234 -0.172599E-05  0.243E-03   11.09       1.0  T
   3  -3772.0342235 -0.966079E-07  0.444E-04   11.09       3.8  T
   4  -3772.0342237 -0.128827E-06  0.119E-04   11.09      14.1  T
     SCC iter.                  ...        4 min, 58.574 sec
     gradient                   ...        4 min, 25.953 sec
 * total energy  : -3716.1931009 Eh     change    :  -0.1408916E-02 Eh
   gradient norm :     0.0210890 Eh/a0  converged?    E=F G=F D=F
   time step     :     1.0443120 fs     power     :   0.1428782E-07
   step length   :     0.1563737 a0     speed     :   0.3622001E-02

........................................................................
.............................. CYCLE   63 ..............................
........................................................................

[...]
  3287   6 C     3288   6 C                                       1.5272080
  3287   6 C     3289   6 C                                       1.5313550
  3289   6 C     3290   6 C                                       1.5356642
  3290   6 C     3291   6 C                                       1.5273958
  3290   6 C     3292   6 C                                       1.5318140
  3292   6 C     3293   6 C                                       1.5359220
  3293   6 C     3294   6 C                                       1.5286519
  3293   6 C     3295   6 C                                       1.5332191
  3295   6 C     3296   6 C                                       1.5397836
  3296   6 C     3297   6 C                                       1.5308256
  3296   6 C     3298   6 C                                       1.5337785
  3298   6 C     3299   6 C                                       1.5303919
  3299   6 C     3300   6 C                                       1.5275598
  3299   6 C     3301   6 C                                       1.5363864
  3301   6 C     3302   6 C                                       1.5341194
  3302   6 C     3303   6 C                                       1.5274398
  3302   6 C     3304   6 C                                       1.5358376
  3304   6 C     3305   6 C                                       1.5318919
  3305   6 C     3306   6 C                                       1.5290208
  3305   6 C     3307   6 C                                       1.5344864
  3307   6 C     3308   6 C                                       1.5345876
  3308   6 C     3309   6 C                                       1.5259377
  3308   6 C     3310   6 C                                       1.5359359
  3310   6 C     3311   6 C                                       1.5337459
  3311   6 C     3312   6 C                                       1.5294929
  3311   6 C     3313   6 C                                       1.5319887
  3314   6 C     3315   6 C                                       1.5279910
  3314   6 C     3316   6 C                                       1.5348631
  3316   6 C     3317   6 C                                       1.5326598
  3317   6 C     3318   6 C                                       1.5297233
  3317   6 C     3319   6 C                                       1.5366094
  3319   6 C     3320   6 C                                       1.5338633
  3320   6 C     3321   6 C                                       1.5287173
  3320   6 C     3322   6 C                                       1.5380979
  3322   6 C     3323   6 C                                       1.5364941
  3323   6 C     3324   6 C                                       1.5259224
  3323   6 C     3325   6 C                                       1.5354329
  3325   6 C     3326   6 C                                       1.5370355
  3326   6 C     3327   6 C                                       1.5292724
  3326   6 C     3328   6 C                                       1.5332479
  3328   6 C     3329   6 C                                       1.5347141
  3329   6 C     3330   6 C                                       1.5285764
  3331   6 C     3332   6 C                                       1.5321818
  3332   6 C     3333   6 C                                       1.5296135
  3332   6 C     3334   6 C                                       1.5352725
  3334   6 C     3335   6 C                                       1.5361723
  3335   6 C     3336   6 C                                       1.5254094
  3335   6 C     3337   6 C                                       1.5356032
  3337   6 C     3338   6 C                                       1.5365185
  3338   6 C     3339   6 C                                       1.5290153
  3338   6 C     3340   6 C                                       1.5337323
  3340   6 C     3341   6 C                                       1.5366231
  3341   6 C     3342   6 C                                       1.5277559
  3341   6 C     3343   6 C                                       1.5333670
  3343   6 C     3344   6 C                                       1.5365780
  3344   6 C     3345   6 C                                       1.5284495
  3344   6 C     3346   6 C                                       1.5341773
  3346   6 C     3347   6 C                                       1.5363325
  3347   6 C     3348   6 C                                       1.5283768
  3347   6 C     3349   6 C                                       1.5332985
  3349   6 C     3350   6 C                                       1.5342456
  3350   6 C     3351   6 C                                       1.5290958
  3350   6 C     3352   6 C                                       1.5361284
  3352   6 C     3353   6 C                                       1.5267254
  3353   6 C     3354   6 C                                       1.5240808
  3265   6 C     3355   1 H                                       1.0877112
  3265   6 C     3356   1 H                                       1.0879015
  3265   6 C     3357   1 H                                       1.0872473
  3354   6 C     3358   1 H                                       1.0884140
  3354   6 C     3359   1 H                                       1.0883883
  3354   6 C     3360   1 H                                       1.0874080
  3352   6 C     3361   1 H                                       1.0943006
  3352   6 C     3362   1 H                                       1.0927245
  3349   6 C     3363   1 H                                       1.0907566
  3349   6 C     3364   1 H                                       1.0939203
  3347   6 C     3365   1 H                                       1.0935148
  3348   6 C     3366   1 H                                       1.0884663
  3348   6 C     3367   1 H                                       1.0883876
  3348   6 C     3368   1 H                                       1.0868665
  3346   6 C     3369   1 H                                       1.0917039
  3346   6 C     3370   1 H                                       1.0935607
  3343   6 C     3371   1 H                                       1.0915624
  3343   6 C     3372   1 H                                       1.0926797
  3350   6 C     3373   1 H                                       1.0964344
  3351   6 C     3374   1 H                                       1.0875185
  3351   6 C     3375   1 H                                       1.0881447
  3351   6 C     3376   1 H                                       1.0869196
  3344   6 C     3377   1 H                                       1.0927592
  3345   6 C     3378   1 H                                       1.0875584
  3345   6 C     3379   1 H                                       1.0886658
  3345   6 C     3380   1 H                                       1.0875502
  3341   6 C     3381   1 H                                       1.0934415
  3342   6 C     3382   1 H                                       1.0868267
  3342   6 C     3383   1 H                                       1.0875478
  3342   6 C     3384   1 H                                       1.0875676
  3340   6 C     3385   1 H                                       1.0920842
  3340   6 C     3386   1 H                                       1.0935708
  3338   6 C     3387   1 H                                       1.0943907
  3339   6 C     3388   1 H                                       1.0867867
  3339   6 C     3389   1 H                                       1.0878102
  3339   6 C     3390   1 H                                       1.0887549
  3337   6 C     3391   1 H                                       1.0937200
  3337   6 C     3392   1 H                                       1.0941440
  3335   6 C     3393   1 H                                       1.0935540
  3336   6 C     3394   1 H                                       1.0867632
  3336   6 C     3395   1 H                                       1.0870518
  3336   6 C     3396   1 H                                       1.0883777
  3334   6 C     3397   1 H                                       1.0934905
  3334   6 C     3398   1 H                                       1.0941594
  3332   6 C     3399   1 H                                       1.0953721
  3333   6 C     3400   1 H                                       1.0864965
  3333   6 C     3401   1 H                                       1.0886063
  3333   6 C     3402   1 H                                       1.0883531
  3331   6 C     3403   1 H                                       1.0899463
  3331   6 C     3404   1 H                                       1.0925991
  3329   6 C     3405   1 H                                       1.0931040
  3330   6 C     3406   1 H                                       1.0870274
  3330   6 C     3407   1 H                                       1.0871975
  3330   6 C     3408   1 H                                       1.0881606
  3328   6 C     3409   1 H                                       1.0918777
  3328   6 C     3410   1 H                                       1.0928848
  3326   6 C     3411   1 H                                       1.0942672
  3327   6 C     3412   1 H                                       1.0869055
  3327   6 C     3413   1 H                                       1.0881430
  3327   6 C     3414   1 H                                       1.0883374
  3325   6 C     3415   1 H                                       1.0938559
  3325   6 C     3416   1 H                                       1.0945222
  3323   6 C     3417   1 H                                       1.0927728
  3324   6 C     3418   1 H                                       1.0863649
  3324   6 C     3419   1 H                                       1.0874758
  3324   6 C     3420   1 H                                       1.0881622
  3322   6 C     3421   1 H                                       1.0932862
  3322   6 C     3422   1 H                                       1.0934373
  3320   6 C     3423   1 H                                       1.0942816
  3321   6 C     3424   1 H                                       1.0879121
  3321   6 C     3425   1 H                                       1.0863545
  3321   6 C     3426   1 H                                       1.0883670
  3319   6 C     3427   1 H                                       1.0924345
  3319   6 C     3428   1 H                                       1.0926658
  3317   6 C     3429   1 H                                       1.0924338
  3318   6 C     3430   1 H                                       1.0891458
  3318   6 C     3431   1 H                                       1.0869565
  3318   6 C     3432   1 H                                       1.0884822
  3316   6 C     3433   1 H                                       1.0922231
  3316   6 C     3434   1 H                                       1.0942457
  3314   6 C     3435   1 H                                       1.0941063
  3315   6 C     3436   1 H                                       1.0888526
  3315   6 C     3437   1 H                                       1.0884039
  3315   6 C     3438   1 H                                       1.0872283
  3313   6 C     3439   1 H                                       1.0898630
  3313   6 C     3440   1 H                                       1.0921311
  3311   6 C     3441   1 H                                       1.0940784
  3312   6 C     3442   1 H                                       1.0885490
  3312   6 C     3443   1 H                                       1.0881507
  3312   6 C     3444   1 H                                       1.0870531
  3310   6 C     3445   1 H                                       1.0938097
  3310   6 C     3446   1 H                                       1.0940739
  3308   6 C     3447   1 H                                       1.0938957
  3309   6 C     3448   1 H                                       1.0868663
  3309   6 C     3449   1 H                                       1.0867982
  3309   6 C     3450   1 H                                       1.0880352
  3307   6 C     3451   1 H                                       1.0929245
  3307   6 C     3452   1 H                                       1.0931973
  3305   6 C     3453   1 H                                       1.0931113
  3306   6 C     3454   1 H                                       1.0864216
  3306   6 C     3455   1 H                                       1.0879884
  3306   6 C     3456   1 H                                       1.0882159
  3304   6 C     3457   1 H                                       1.0917468
  3304   6 C     3458   1 H                                       1.0934476
  3302   6 C     3459   1 H                                       1.0927231
  3303   6 C     3460   1 H                                       1.0872941
  3303   6 C     3461   1 H                                       1.0858682
  3303   6 C     3462   1 H                                       1.0882798
  3301   6 C     3463   1 H                                       1.0924825
  3301   6 C     3464   1 H                                       1.0940142
  3299   6 C     3465   1 H                                       1.0923095
  3300   6 C     3466   1 H                                       1.0865891
  3300   6 C     3467   1 H                                       1.0866024
  3300   6 C     3468   1 H                                       1.0886036
  3298   6 C     3469   1 H                                       1.0910555
  3298   6 C     3470   1 H                                       1.0940231
  3296   6 C     3471   1 H                                       1.0910512
  3297   6 C     3472   1 H                                       1.0884261
  3297   6 C     3473   1 H                                       1.0878289
  3297   6 C     3474   1 H                                       1.0881419
  3295   6 C     3475   1 H                                       1.0914234
  3295   6 C     3476   1 H                                       1.0942614
  3293   6 C     3477   1 H                                       1.0912128
  3294   6 C     3478   1 H                                       1.0865275
  3294   6 C     3479   1 H                                       1.0885705
  3294   6 C     3480   1 H                                       1.0880294
  3292   6 C     3481   1 H                                       1.0924533
  3292   6 C     3482   1 H                                       1.0932697
  3290   6 C     3483   1 H                                       1.0939751
  3291   6 C     3484   1 H                                       1.0849501
  3291   6 C     3485   1 H                                       1.0883847
  3291   6 C     3486   1 H                                       1.0886870
  3289   6 C     3487   1 H                                       1.0935739
  3289   6 C     3488   1 H                                       1.0939523
  3287   6 C     3489   1 H                                       1.0934992
  3288   6 C     3490   1 H                                       1.0867159
  3288   6 C     3491   1 H                                       1.0884130
  3288   6 C     3492   1 H                                       1.0882824
  3286   6 C     3493   1 H                                       1.0923136
  3286   6 C     3494   1 H                                       1.0925249
  3284   6 C     3495   1 H                                       1.0946701
  3285   6 C     3496   1 H                                       1.0879757
  3285   6 C     3497   1 H                                       1.0884893
  3285   6 C     3498   1 H                                       1.0884288
  3283   6 C     3499   1 H                                       1.0893325
  3283   6 C     3500   1 H                                       1.0929462
  3281   6 C     3501   1 H                                       1.0937830
  3282   6 C     3502   1 H                                       1.0886381
  3282   6 C     3503   1 H                                       1.0884630
  3282   6 C     3504   1 H                                       1.0873549
  3280   6 C     3505   1 H                                       1.0935155
  3280   6 C     3506   1 H                                       1.0909388
  3278   6 C     3507   1 H                                       1.0962772
  3279   6 C     3508   1 H                                       1.0887012
  3279   6 C     3509   1 H                                       1.0879627
  3279   6 C     3510   1 H                                       1.0864976
  3277   6 C     3511   1 H                                       1.0906017
  3277   6 C     3512   1 H                                       1.0940099
  3275   6 C     3513   1 H                                       1.0937585
  3276   6 C     3514   1 H                                       1.0885057
  3276   6 C     3515   1 H                                       1.0865428
  3276   6 C     3516   1 H                                       1.0884161
  3274   6 C     3517   1 H                                       1.0918875
  3274   6 C     3518   1 H                                       1.0941699
  3272   6 C     3519   1 H                                       1.0924287
  3273   6 C     3520   1 H                                       1.0885947
  3273   6 C     3521   1 H                                       1.0882478
  3273   6 C     3522   1 H                                       1.0866189
  3271   6 C     3523   1 H                                       1.0923359
  3271   6 C     3524   1 H                                       1.0936195
  3269   6 C     3525   1 H                                       1.0947012
  3270   6 C     3526   1 H                                       1.0856639
  3270   6 C     3527   1 H                                       1.0866421
  3270   6 C     3528   1 H                                       1.0877508
  3268   6 C     3529   1 H                                       1.0934002
  3268   6 C     3530   1 H                                       1.0940131
  3266   6 C     3531   1 H                                       1.0946961
  3267   6 C     3532   1 H                                       1.0881542
  3267   6 C     3533   1 H                                       1.0870422
  3267   6 C     3534   1 H                                       1.0885236
  3353   6 C     3535   1 H                                       1.0908247
  3353   6 C     3536   1 H                                       1.0899979

 * 2 distinct bonds (by element types)

   Z      Z             #   av. dist./Å        max./Å        min./Å
   1 H    6 C        2366     1.0903037     1.0978548     1.0842465
   6 C    6 C        1112     1.5324222     1.5401025     1.5223185


optimized geometry written to: xtbopt.xyz


           -------------------------------------------------
          | TOTAL ENERGY            -3716.259493520681 Eh   |
          | GRADIENT NORM               0.000799732217 Eh/α |
          | HOMO-LUMO GAP              11.292191346457 eV   |
           -------------------------------------------------

------------------------------------------------------------------------
 * finished run on 2024/06/27 at 22:58:06.288     
------------------------------------------------------------------------
 total:
 * wall-time:     4 d,  9 h, 30 min, 25.849 sec
 *  cpu-time:    23 d, 17 h,  4 min, 27.260 sec
 * ratio c/w:     5.394 speedup
 SCF:
 * wall-time:     0 d,  0 h,  8 min, 44.446 sec
 *  cpu-time:     0 d,  0 h, 46 min, 54.668 sec
 * ratio c/w:     5.367 speedup
 ANC optimizer:
 * wall-time:     4 d,  9 h, 20 min, 13.578 sec
 *  cpu-time:    23 d, 16 h, 15 min, 47.552 sec
 * ratio c/w:     5.395 speedup

