3536
 energy: -3716.259493520681 gnorm: 0.000799732217 xtb: 6.6.1 (8d0f1dd)
C           48.02494494258315       38.26456572284290       48.20481086887970
C           48.06391979389783       38.88051139264707       49.60150131382821
C           46.96941673488114       39.93916235214474       49.72750611611380
C           49.42648214530896       39.51508084881036       49.90556324504781
C           50.59581875452173       38.53483941639894       50.05349892966841
C           50.44012533903517       37.68808098116378       51.31683620769495
C           51.93405966238370       39.28616720390524       50.12241383356265
C           52.39301375998485       39.97902388001307       48.83390738923129
C           52.57780623243575       38.97638331507214       47.69381498942345
C           53.72145782878952       40.71908669170372       49.05604191167081
C           53.70331060512605       41.84620420140394       50.09535315929995
C           52.58879981115575       42.84899677718823       49.79884215438427
C           55.04415919232411       42.59667163971060       50.11951511863804
C           56.29307382774021       41.76267606472578       50.42353448828189
C           56.15512736104584       41.01364475028100       51.74953042873634
C           57.54671849452986       42.64877457264754       50.49357166439451
C           57.86722325961264       43.50285837102246       49.25738048332376
C           57.96022593835210       42.66126659544118       47.98753835328021
C           59.18296362658239       44.25179630831760       49.51819114258090
C           59.61325307123155       45.28158535046860       48.46257557078118
C           60.99948241281528       45.81074393081725       48.82751311429943
C           58.61216739631048       46.43624212759907       48.36047330737802
C           58.77640790461140       47.37360441534669       47.15362161365635
C           57.81034327780239       48.54424227795621       47.32740693012612
C           58.52800229526643       46.60653640019104       45.84578447315000
C           58.36827857404358       47.43474098884687       44.56277356677060
C           58.00699846663452       46.48796658300459       43.41704661411038
C           59.62810781940501       48.23832799205719       44.22221009428245
C           59.39573690922015       49.37343418426794       43.20997646722792
C           60.72192222777295       49.77256399423976       42.56559687102169
C           58.73573023561784       50.56985248492362       43.90541469408801
C           58.35675682127548       51.76607341643132       43.01980680099496
C           57.81344666234872       52.87589721803479       43.91951869701486
C           57.33330961590453       51.35774967314119       41.95315791659155
C           56.76114681690882       52.48809318992644       41.08274089092897
C           55.71508795385475       51.89377250145474       40.14030046934081
C           57.87894994478798       53.19687782992003       40.30893531180276
C           57.47451519308965       54.35486773397219       39.37953258151983
C           58.74548033427523       54.86293109588234       38.69517779414657
C           56.77770802307559       55.46916779375640       40.17027184493973
C           56.30887996695022       56.70467677458538       39.37979549635957
C           56.54490665773787       57.96323107216752       40.21953510049357
C           54.81925488776606       56.65508327631300       39.01267745462054
C           54.37389038202868       55.55437232326176       38.04490953246290
C           55.11310677737627       55.64828566621157       36.70981347965153
C           52.86504110423348       55.65554106127379       37.76591289148122
C           51.94107423069836       55.51633050128122       38.98009893849799
C           52.11191752453158       54.14711242129401       39.63956068249279
C           50.46514329945884       55.68576528532126       38.58889369126937
C           50.08034195480921       56.98251558449992       37.86515869117768
C           50.58264235070795       58.22363430209004       38.60249770770783
C           48.55337583138531       57.09797265498191       37.72859063006972
C           47.83447087284703       55.90746700338527       37.08535263637515
C           48.35656617413836       55.62929696392416       35.67739313962230
C           46.31926062455540       56.16332181567113       37.04664450945864
C           45.49991164456564       54.86600069216069       37.08578090711441
C           44.07487711962779       55.12708198961433       36.59879876810800
C           45.49401954881609       54.25640068104177       38.50200449181563
C           45.92611179794596       52.78736606244065       38.56663036663109
C           44.99430658187437       51.89343548824551       37.74666527083279
C           45.93287140131709       52.26793061588916       40.01118355335328
C           46.87211540545424       52.95255215799205       41.01404073509511
C           48.32841254645054       52.84932455509112       40.57139206181231
C           46.65890452118710       52.29097141631291       42.38348421379582
C           47.29399369863317       53.00128186002080       43.58521234908834
C           47.21414316504087       52.07831412418658       44.80184662680662
C           46.62347587813629       54.35834275011513       43.87213580945630
C           47.62251181819097       55.51215323752308       44.00226964923232
C           48.46756819030628       55.35823304836874       45.26592652385293
C           46.92891885400252       56.87937223611075       44.04247924702114
C           46.20966213503051       57.35434779831880       42.76938328177687
C           47.14960062753806       57.41443175184618       41.56885085087685
C           45.61471834009064       58.73395881898467       43.09146610965664
C           44.95837717175765       59.51919393124919       41.94994301427433
C           44.62847912680509       60.92372024890073       42.45954864657617
C           43.70318344676644       58.82338661322277       41.41200842887856
C           43.18565806482686       59.41385652088794       40.09194612470480
C           41.71375040312146       59.05731198638525       39.88939788664469
C           44.02025254653899       58.92907946718140       38.89895346452528
C           43.92865233427948       59.84276346036413       37.66114114802311
C           43.32528047998452       59.09855165845979       36.46970654480415
C           45.30559125906719       60.39534522281270       37.26651612250156
C           45.93707096344691       61.35246805974912       38.28880279063021
C           45.24777586470960       62.71465452582603       38.25651084792533
C           47.43862321393298       61.48366513052181       37.99719981776911
C           48.27728026150999       62.21758759112532       39.05457696449422
C           49.67170866088779       62.48318237865747       38.48530500985790
C           48.34927135607102       61.40559681382977       40.35221149009215
C           49.18626397442222       62.05235786497979       41.45452777123722
C           49.00658626260281       61.32682290323438       42.78219043866447
H           48.74697146151687       37.45769744205566       48.10764217873611
H           47.03753679452345       37.85670456254738       47.99792746455384
H           48.24615905349113       39.01880087874946       47.45191321767773
H           49.64248430590025       61.76159647252171       43.54970433851547
H           47.97173534403139       61.39061665867066       43.11287301986138
H           49.26402160954176       60.27521259452017       42.67715893589500
H           47.33656729303080       61.27253663203120       40.73595683039959
H           48.75386439703023       60.41523282225864       40.12977099949281
H           47.86004134788758       60.48172094131443       37.87716948213441
H           47.55236288670163       61.99967519700841       37.03960909804488
H           45.80617680992667       60.92779848324654       39.28595556959780
H           45.63448094890093       63.36495102036588       39.03700809026342
H           45.40532017372949       63.19994907972599       37.29494239063693
H           44.17684273450671       62.60970463425008       38.41296315897889
H           45.97423891771510       59.54440075179746       37.11146749632207
H           45.21896791917958       60.91725517664155       36.30975425749718
H           45.06417565852249       58.85109963056149       39.20275668841999
H           43.69317790025802       57.92080733486458       38.63632799493890
H           47.81469528776440       63.18588394453202       39.27332139909548
H           50.20376786292805       61.54709449031543       38.32857730906013
H           49.60007486380015       62.99964424621940       37.53008507842959
H           50.25729456171679       63.10399162449521       39.15774765680323
H           43.26888325790907       60.68574815986702       37.89090933579686
H           43.20170546715422       59.76794933399548       35.62028290551060
H           43.97410579886103       58.27962765366257       36.16753165525756
H           42.35006378119871       58.68897167006266       36.72370848939484
H           43.25979219769832       60.50439329122847       40.14491312070589
H           41.10349654286963       59.45994343915074       40.69594033967695
H           41.34441806051513       59.46515804310997       38.95116906203823
H           41.58328626447430       57.97655944320238       39.86666347837644
H           43.90734766481224       57.76233475296282       41.25753556847229
H           42.91983013706952       58.89623286013327       42.17054586105174
H           45.68455152615221       59.62203510450050       41.13937613051220
H           45.52055015422432       61.40696476282164       42.85185911545224
H           44.23042036791507       61.55425888444154       41.66814392231404
H           43.89095879470241       60.87780203453664       43.25871185573094
H           44.88088331717361       58.60978148044828       43.89002340203524
H           46.42378955451068       59.35220047967648       43.48801724138323
H           45.39648506166572       56.65842665637739       42.53799561408101
H           46.60028439886403       57.67431386548571       40.66721084447951
H           47.92631678393032       58.15902580816835       41.72848303144076
H           47.62299705641127       56.45113593815292       41.39642861002181
H           46.20327485287863       56.86924399019190       44.86078015194915
H           47.68314862692083       57.63094686354130       44.29348351518801
H           48.29711726261443       55.48050636716410       43.14021027267344
H           49.01161245645172       54.41853416871103       45.25962125059622
H           49.18942715659384       56.16889146722934       45.34605689134418
H           47.83470763292822       55.38467512494704       46.15069355219393
H           45.92577650954077       54.58973824494327       43.06701657584420
H           46.03796714390116       54.29227412735226       44.79194942695109
H           48.35287975725160       53.16882504226402       43.36441291949162
H           47.63106453535360       52.55874818407434       45.68299061436333
H           46.17933055050960       51.81831739765397       45.01526242991290
H           47.76447234396512       51.15642789371880       44.62210287688486
H           45.58530303074771       52.20873048223091       42.56866785711544
H           47.05959974500295       51.27651834024671       42.32992873435053
H           46.60392916851944       54.01057912241276       41.08855220948536
H           48.98784621572856       53.29186167435611       41.31382715535862
H           48.61447364986378       51.80815615636494       40.43760604150754
H           48.48780144954256       53.37306282041305       39.63263488362004
H           44.91143099756852       52.34394687874986       40.39446898137654
H           46.19101058317233       51.20551677842852       39.98449950559175
H           46.93374159842454       52.69854150473574       38.14669186025648
H           45.31379840979974       50.85471734531251       37.80877690283112
H           43.97579779751646       51.95906903328527       38.12557675959195
H           44.98853278436119       52.17928652884736       36.69826371276949
H           46.16480104054037       54.83584683860034       39.13630372919386
H           44.49237607245705       54.34243927706331       38.92931659161398
H           45.96743807182461       54.15733921970974       36.39450263650349
H           43.48275228688608       54.21570215002024       36.62969766800317
H           43.59054014146689       55.87149139571567       37.22755138320923
H           44.07731650847371       55.49571521376858       35.57440743384209
H           46.02348416988091       56.78653247229635       37.89286898653675
H           46.08050892125348       56.71931601523945       36.13657679982551
H           48.00838029436524       55.02243069030038       37.70299378688381
H           49.39192445267667       55.29862140685371       35.69828330328821
H           47.76619423260696       54.85183902769855       35.19700649890742
H           48.29619955282825       56.52839968164317       35.06650296183441
H           48.13775039962891       57.24813029698770       38.72841128507007
H           48.32816969829879       57.99361022732467       37.14143632074242
H           50.51886729794276       56.97686682461944       36.86253158699099
H           50.19555860073993       58.24136126776159       39.61865911900767
H           51.66767369137432       58.25299764159501       38.64575593233414
H           50.24266753861360       59.12232753392359       38.09048925699425
H           50.19397362120992       54.83971736942755       37.95391492170916
H           49.86643585897183       55.61855407876200       39.50160923420191
H           52.19017029042862       56.28738002744030       39.71339419184621
H           52.00675886092976       53.35292333300855       38.90271669848271
H           53.08900110418334       54.05306308449737       40.10634627025795
H           51.35323900208569       53.99548552392097       40.40440510002964
H           52.68473560490028       56.62001367676968       37.28740362549215
H           52.59570559396691       54.87927509832428       37.04327294651719
H           54.58797367199595       54.57773014408004       38.48653971824818
H           56.17729952335371       55.46824635586253       36.83118063529824
H           54.72697189507132       54.90902027892754       36.01028116793776
H           54.97885563784547       56.63515527233916       36.27018212591587
H           54.25721067108164       56.55661325513494       39.94361682919849
H           54.54864820159778       57.61813594242832       38.56875611591939
H           56.89472135648946       56.80736776875045       38.46444914479878
H           55.99613280419174       57.90250728748978       41.15723635780576
H           57.60102478116181       58.08095204673586       40.44656751891792
H           56.21192252446428       58.85224365520754       39.68724983559488
H           55.91025951087978       55.04573632077593       40.67614942049747
H           57.47355090836145       55.79644668797248       40.94729400223098
H           56.80118663494602       53.97582491981831       38.60645441365172
H           58.52894656134937       55.62896087778805       37.95517911915469
H           59.42969982104440       55.28530122516406       39.42872903685712
H           59.25353443079863       54.04585785029848       38.18639399949095
H           58.60026472817184       53.59396357003320       41.02631918815125
H           58.39947188179952       52.44606575104199       39.70674577941518
H           56.25999240719689       53.20383649240910       41.73811502294303
H           56.18036849993829       51.20612528395046       39.43622455828277
H           54.96207651609743       51.34661450173024       40.70438906301855
H           55.20863034123630       52.66996495308915       39.57314171816365
H           57.79300635753683       50.62339360179978       41.28745900908904
H           56.49788051145861       50.86516340143212       42.45829629133351
H           59.26172188511202       52.13490578550848       42.52864588156538
H           56.85329044560611       52.58376217788229       44.34044272339706
H           58.50211415579759       53.06776396720696       44.74019824490077
H           57.68334953357540       53.80274908489649       43.36711152716091
H           57.82587214571020       50.22803324000241       44.40343274851431
H           59.42163521814232       50.92715993893371       44.67856302407016
H           58.73246619328949       49.00549312267960       42.42230459217610
H           60.57252494943433       50.51252043961557       41.78348689903645
H           61.39336764751301       50.19364431715256       43.31053120689306
H           61.20673309063742       48.90655596585432       42.11874003240734
H           60.03960181326055       48.67287159047622       45.13368551574957
H           60.37795755830007       47.54929546621759       43.82488113027601
H           57.53418659853333       48.12573235584981       44.69301408695763
H           57.87866885842469       47.02974700466657       42.48331610345738
H           58.78866435438675       45.74350086209436       43.27367413356897
H           57.07610284978465       45.96651536242665       43.63109712383372
H           59.35165701189675       45.90570699049702       45.68898141141062
H           57.61559813643331       46.01556123067694       45.97025014520295
H           59.79514334952435       47.77226783201176       47.14904595676108
H           56.78060266881178       48.19673754698863       47.26346133913113
H           57.95296286474534       49.00527508213784       48.30180517140360
H           57.97142794569659       49.30755507723282       46.57237278290442
H           57.59970950006514       46.03142583334883       48.32235183890811
H           58.68970462839362       47.03050843028690       49.27443118575657
H           59.68666672025957       44.77482936027194       47.49738660298047
H           61.71166983472614       44.99377326503686       48.91992767159292
H           61.36540916071399       46.49394132637152       48.06528154029283
H           60.96595099005480       46.34148771468908       49.77676976163241
H           59.11043273395653       44.76101777436510       50.48295563311274
H           59.98080495830860       43.50898973897231       49.60874506083156
H           57.06395568745658       44.23414387102157       49.13273148404893
H           58.76146448742799       41.93113368942739       48.07418077841340
H           57.03116748954204       42.12925952901851       47.80051377802033
H           58.15837038138771       43.29054971199160       47.12331685678578
H           57.44067424808576       43.31928250687626       51.35100660664757
H           58.40333572701428       41.99977910602416       50.69264818914096
H           56.43533360567561       41.02468480071774       49.62845696579287
H           55.37453126618876       40.25884689056164       51.69827308963671
H           57.08746733510907       40.51044636359701       51.99974020473208
H           55.91664675669779       41.70496651160497       52.55467563654143
H           55.17280550369398       43.07496465623109       49.14630258138244
H           54.97868086697365       43.38925047810964       50.87092282712106
H           53.52586398785021       41.42104043378225       51.08695278213593
H           52.69594013080781       43.72692712061205       50.43272202615925
H           52.63313453271934       43.17047515434355       48.75987861660864
H           51.60792330844015       42.42060563649500       49.98533731740590
H           54.47221003518683       39.97940404241672       49.34309342537397
H           54.03426042433057       41.14761348419533       48.09895647193644
H           51.63954033339419       40.70632742340811       48.52041317025751
H           53.25633646333754       38.17897378275114       47.99157202361570
H           51.63038380701035       38.53121860649627       47.40147033803623
H           52.99667218144423       39.47028247917002       46.81895178829944
H           51.85366690745629       40.02995310557958       50.91692122520583
H           52.71232320873051       38.57539334513904       50.41509277733216
H           50.61356268722281       37.85895714086011       49.19508244080451
H           50.39152595815622       38.32767001303851       52.19507549485554
H           49.53554321410093       37.08681254645641       51.27945797551037
H           51.28561469868348       37.01240938791106       51.43027954465986
H           49.64853015223976       40.22050630375458       49.10204822399222
H           49.34612166142679       40.08920587505725       50.83323957536005
H           47.85958156690880       38.09185619156933       50.33278175842376
H           47.14978176593610       40.75219770798106       49.02732169245618
H           45.99200971161108       39.51144704907141       49.51309436934984
H           46.94613974958698       40.34999974158417       50.73463883113999
H           50.24287080623706       62.03468226252693       41.18235472102354
H           48.88933228319709       63.09822807930457       41.56866504573879
C           40.92971877140040       41.25745712215056       59.64114755448921
C           42.33678457003213       41.65781342675258       60.08558028720226
C           42.31612607185703       43.07163784907774       60.66017508926602
C           43.29664375208834       41.54041584425512       58.89604565238931
C           44.76742528843205       41.89578454381508       59.16118986733812
C           45.53444010717826       41.79354589806731       57.84389198893674
C           45.36506485206328       40.97636413420341       60.23246507829511
C           46.85664827202926       41.16825466349705       60.54844392751550
C           47.27378021731550       40.11671834434136       61.57754498864664
C           47.12726360119662       42.59193684393546       61.05120604177617
C           48.55082766778757       42.89019146183840       61.54781002604639
C           48.57951939503704       44.31383285831796       62.10180601603565
C           49.57714900099992       42.70855639805977       60.42426477306487
C           51.05536511034954       42.76728732753896       60.83845455995449
C           51.91398959727913       42.86965144130264       59.57783232097458
C           51.44793801909340       41.53164855849248       61.65737285338152
C           52.76490745405827       41.64787592631098       62.44141439750293
C           53.21885931042510       40.24674419143389       62.85098707918774
C           52.57848046482088       42.55520560873834       63.66441390492160
C           53.84437510592173       42.90634779754539       64.46074258609049
C           53.42519205411731       43.54633333913691       65.78573765140312
C           54.76737379894948       43.85701342263213       63.68755688780873
C           56.18337572668299       43.98472043427606       64.28446200681482
C           56.56328148928041       45.45796343452437       64.43577584330279
C           57.24684666126600       43.27940575873743       63.43063910573623
C           57.07545438338931       41.76336885719627       63.29511159767581
C           57.33448490942133       41.06084173434274       64.62844066605997
C           58.02827174363938       41.17606613224344       62.24277162576696
C           57.83915976353962       41.65544423997083       60.79797331947189
C           56.37664229692722       41.57781418899626       60.36240118897903
C           58.68135540749183       40.80936315302415       59.83122287174972
C           60.19462418828747       40.80018857454388       60.07565281910470
C           60.76190855997440       42.21892861847374       60.11774599810351
C           60.92267984480060       40.01951640473504       58.97001362132317
C           60.50139553535934       38.56032968000773       58.76615427300720
C           60.70128421975136       37.74174645387589       60.04170655883587
C           61.30939624252535       37.92032020555091       57.62632592671411
C           60.96958225801866       38.39371730012257       56.20431377467337
C           59.59547920470557       37.88772606895033       55.77355828936157
C           62.07339029100102       37.89618999725587       55.25992183057451
C           61.91451565768661       38.22025687844790       53.76614535837112
C           63.11252335337161       37.63386824649575       53.01810013876822
C           61.79170290784450       39.73193531298819       53.54303007584922
C           61.79302537972828       40.21665879794610       52.08444080956788
C           61.64115030607962       41.73697707950708       52.07948564349854
C           60.67897025176261       39.54398649209118       51.27459972084221
C           60.55485826480545       39.94617659582153       49.79589931826072
C           59.38596175489712       39.16838547020764       49.19158154280813
C           61.86544437478356       39.70493139405529       49.03800642164335
C           61.83953681047196       40.07234938452571       47.54168677720251
C           61.69688324438137       38.82477347634068       46.66948717002896
C           63.11523502669711       40.83207258406106       47.14307708223032
C           63.07751277998365       42.32599938560550       47.49859227828611
C           62.38740577040102       43.11303430353149       46.38588410250736
C           64.49321649276764       42.86953070506892       47.74463972872433
C           65.01227446516154       42.55632076161075       49.15676513850416
C           64.48120098986537       43.58631110885422       50.14920491140678
C           66.54509610559191       42.51542010736971       49.17381303661328
C           67.18566204965126       42.09442286416247       50.50689885142177
C           68.69027843302440       42.35688762905873       50.43913674494003
C           66.89428244360516       40.61797565384884       50.80184007432452
C           67.30773932737969       40.10682170817825       52.18943983856728
C           67.28864511636520       38.57756730587217       52.17456717077955
C           66.38346283599172       40.64472024305019       53.28830801660788
C           66.89162156608080       40.36839662214948       54.71772077803502
C           65.88340431869102       39.52959267247716       55.50411307817847
C           67.17272470673112       41.66158762732879       55.49151245486336
C           68.31695194211967       42.52814700974213       54.95271523115859
C           69.65599672352212       41.79769258200736       55.03655476374632
C           68.38110477236225       43.83271978440922       55.76018974439633
C           69.08061184430530       45.00091267042852       55.04886805212593
C           69.51621426642336       46.03549842971589       56.08482018672569
C           68.13193099849570       45.61209676811043       54.01105018623081
C           68.70392240479765       46.72862209080123       53.12631909246969
C           67.54742825720777       47.39526014483918       52.38255663395897
C           69.74682768927666       46.18476396406112       52.14505070123814
C           70.51981411746303       47.24227293517104       51.34395326997186
C           71.38281387408922       46.53560893949942       50.29658068156144
C           71.39631182562675       48.13759082156776       52.24077951646189
C           70.82188806164967       49.53493677649688       52.51054351745054
C           70.90944415651583       50.40489635954200       51.25632098948353
C           71.57243550690450       50.23745854174139       53.65195577474730
C           71.30788314156973       49.69173560560003       55.05947250486567
C           69.87008699483751       49.96371979884106       55.49919833801275
C           72.24989162420809       50.32472983961635       56.09369714788898
C           73.74847209039656       50.02166035172632       55.95815100515394
C           74.01940055346952       48.51970717855023       55.97837426488046
C           74.47984733429901       50.73807170387001       57.10352192521197
C           76.00806233788883       50.69426891189718       57.05404991216066
C           76.59874980612231       51.38988927436952       55.83292137912188
H           40.56731213258394       41.93600450578236       58.87146538305694
H           40.92619126793137       40.24733511895598       59.23721850031751
H           40.23839613722639       41.29180867210218       60.48050737150820
H           76.32937721545514       50.86947494363341       54.91741371164272
H           76.23797544454634       52.41372511330107       55.76613199277035
H           77.68443180513530       51.41181026259331       55.90021468422224
H           74.17156058229379       51.78693382467171       57.10662893201629
H           74.15352278493836       50.29746184808619       58.04907774265818
H           72.11365552048129       51.40839725536600       56.06025048412553
H           71.93241011918244       49.99028429297616       57.08530751968141
H           71.46539879172016       48.60969536557302       55.06390466369508
H           69.14894979615836       49.49479524145141       54.83599282853244
H           69.70326206983060       49.57902636029840       56.50259020561802
H           69.67698002691691       51.03439237883397       55.51009273987740
H           72.64137446494698       50.17516470351487       53.43621816861803
H           71.29925433289323       51.29632656052742       53.64364570921496
H           71.56319229460188       47.62245145167048       53.18802357369927
H           72.37671047261144       48.26553255946934       51.77435035886619
H           74.11078254341540       50.42882093647778       55.00938529770451
H           73.59839002441466       48.07168117994461       56.87582965048910
H           73.58074402835315       48.03580215101000       55.10958793984314