3864
 energy: -5104.253791007409 gnorm: 0.000850040958 xtb: 6.6.1 (8d0f1dd)
C           49.28823572307551       69.32754834704562       50.46293399936363
C           49.98122510407330       68.52915608693074       51.36610339963906
C           50.39884852841998       69.09678965623522       52.56327419055801
C           50.13642707618811       70.42438351289425       52.85329938540183
C           49.44868932904686       71.20949299227810       51.94430587103012
C           49.02521960595907       70.65502763493312       50.74801126299634
C           50.27367167315645       67.07843128934715       51.06533679976365
C           48.96685489789556       66.32010459615006       50.83118945596100
C           51.24306306140028       66.99387220078238       49.87391182036938
C           51.64252667046203       65.57190297147446       49.44582307192085
C           52.58701392656027       65.64459371597140       48.26873033879028
C           52.19867602516274       65.17233801778454       47.02147894113106
C           53.07243870183375       65.19001889522936       45.94854743117910
C           54.35703859485524       65.67846976669658       46.10607089116888
C           54.75293467803964       66.16632375582579       47.33941601360634
C           53.87404534398745       66.15333352056845       48.40660400884014
C           52.27863257238928       64.77273514644408       50.59017404184808
C           52.71306898072287       63.37262679571450       50.13747259505733
C           51.52301679432784       62.55208521373136       49.70337045486447
C           50.47151800187889       62.27483588074987       50.57064644016684
C           49.38519469157774       61.52810299732330       50.14969257663606
C           49.33927279500063       61.03562774961015       48.85687593654120
C           50.38698190260089       61.28705480102126       47.98874856585734
C           51.46532264426945       62.04474481903128       48.41126105821094
C           53.49422966112937       62.65724395294531       51.25174020714724
C           54.97755056463541       63.06085101070399       51.29721163089268
C           55.56089647506776       62.79380562806605       52.66185637871398
C           55.45911440841743       61.53638113892921       53.24765770339808
C           56.00000668911391       61.29153585159602       54.49612803828710
C           56.66151283558261       62.29967669153211       55.17760517907129
C           56.77111384628770       63.55391472342866       54.60566459661561
C           56.22371756344481       63.79670695570277       53.35797321097094
C           55.78278194198596       62.30957763713903       50.22716381446857
C           57.26180061515441       62.74867148841390       50.18357163290435
C           57.57796720358036       63.53473581129538       48.93810400696206
C           58.08116484941633       64.82611376540757       49.03884812956833
C           58.39094018491838       65.56161627728295       47.90849924923136
C           58.19077194934520       65.01838311697597       46.65151794141633
C           57.67467578317238       63.73912053812377       46.53804446544660
C           57.37642381495938       63.00191031621755       47.66972715475329
C           58.17875675849766       61.52402850882309       50.33188975094582
C           59.67376633673660       61.85498806000474       50.25708229091752
C           60.06315051267379       63.03930638278399       51.10718105149393
C           60.86926504071115       64.03810927745045       50.57378130576010
C           61.29450582387215       65.10196547056663       51.35005044812295
C           60.92219443179421       65.18225617031509       52.68112841715900
C           60.12040819080320       64.19263795037186       53.22330678235573
C           59.69624331480643       63.13149194191793       52.44453454016657
C           60.54797767361276       60.66354711328349       50.69567090454615
C           60.78428692122224       59.59355099272416       49.61335300575933
C           59.63802589591081       58.61280266581231       49.58196160795007
C           59.45120047214610       57.71402953201770       50.62567417959138
C           58.38621127523815       56.83191782771215       50.62797320847586
C           57.48625783014110       56.82395533299233       49.57691614273443
C           57.66448374608395       57.70964184957085       48.52974325719417
C           58.72978169988765       58.59412503253967       48.53149854214328
C           62.10995159020816       58.85193935829905       49.86854590605316
C           63.34596114022805       59.71964179059654       49.60617875199658
C           63.62592858748298       59.96449479314240       48.14676442492365
C           63.75250034809958       58.91977816284113       47.23996888907909
C           64.10032049494006       59.16713740571402       45.92478209912345
C           64.34318557133211       60.46179709640578       45.49890669418714
C           64.22859443705499       61.51057262443223       46.39392715879203
C           63.85861385018494       61.26063611119234       47.70257208317717
C           64.59553086558026       59.10781297466210       50.26131868540888
C           65.74462893564314       60.12411090833642       50.37408475281890
C           67.04826493443134       59.39671740528295       50.58028658578760
C           68.06284027931756       59.48225995416254       49.63561150817583
C           69.25531011266767       58.80098295377292       49.81010721863991
C           69.45003183392225       58.01696130510210       50.93447098536146
C           68.44314825210662       57.91819307591165       51.88006805537171
C           67.25475039689422       58.60260924932674       51.70351965191986
C           65.48156224787145       61.12021414173631       51.51155547212895
C           66.37429694815370       62.36667846969667       51.43413278114558
C           65.99938827595921       63.21084729112737       50.24111167464494
C           64.75205714442318       63.82161505404912       50.15630895067217
C           64.41034808574155       64.58773914404799       49.05613538492808
C           65.31063978065892       64.76439790902360       48.02020119863817
C           66.55856409223655       64.17266555872213       48.09961521717879
C           66.89679255955899       63.40100089219433       49.19790490368218
C           66.26052559583893       63.19342174170959       52.72547154567597
C           67.02261278357747       62.55540714179848       53.90049971919905
C           68.46988303937256       62.97223648244911       53.86326544170642
C           68.86444117312595       64.24998574991093       54.24320221187857
C           70.19436618730779       64.62543921662748       54.19011106257180
C           71.15372068420717       63.72994750218820       53.74735978190967
C           70.77220258465071       62.45755143993751       53.35929022911609
C           69.44118811932381       62.08291014040968       53.41956264138138
C           66.35408153416932       62.89053458841837       55.24413271695158
C           65.11992007661432       62.00518442230409       55.50273369929709
C           64.19099433849273       62.65741775782437       56.49429183960230
C           64.61071537884148       62.94732108653658       57.78860092272343
C           63.75089476549118       63.53439962099001       58.69906263495521
C           62.45381920607279       63.85027647093820       58.32898925157365
C           62.03043439844043       63.58142477138831       57.03959611633845
C           62.89200386825925       62.99089049220204       56.13093195515822
C           65.54896731035106       60.60485094431827       55.96300327218620
C           64.42657053090497       59.55321997730429       55.86311132211942
C           64.98576252670513       58.24690434248439       55.35660580510839
C           66.07621945461737       57.65217697365693       55.98254942838728
C           66.61652440427319       56.47604319125999       55.49562416731793
C           66.07085970347414       55.86816954002801       54.37749356369079
C           64.97487066162698       56.44117000346048       53.75677776404974
C           64.44193873234839       57.62340550643351       54.24131040314092
C           63.72260229118477       59.35459552073297       57.21261943503387
C           62.49863493064439       58.43624933959885       57.10197599026722
C           61.44386916855004       59.01010519644279       56.19175605484973
C           60.95369606123221       58.26355172451906       55.12851586643320
C           59.94501363591590       58.75657031564687       54.32089625065687
C           59.41575398592860       60.01184064369581       54.55623742190625
C           59.91361550521489       60.77609219174414       55.59676679300507
C           60.91215135202127       60.27522421010938       56.41152372641354
C           61.91117207397335       58.15969221768633       58.49445219261016
C           60.71604569830415       57.17945275183840       58.45706793146000
C           60.95783433015207       56.03078424692291       59.40306959838560
C           61.10412055092292       54.73468364878882       58.92380087850982
C           61.36308665033304       53.67953110651154       59.78155942113475
C           61.49039548587552       53.90763828471370       61.14036323993556
C           61.36118976494917       55.19665110678919       61.62907055839364
C           61.09133715538512       56.24644968178045       60.77044834099591
C           59.39960557220777       57.90638327045266       58.76573082438021
C           58.17209572335035       56.99364232706429       58.64168953042189
C           57.98358712956782       56.53056131411135       57.21706304425380
C           58.17345873267349       55.19757162370389       56.87381367753753
C           57.95464783842504       54.75408591102633       55.58167399862192
C           57.54324913230103       55.64532781077644       54.60649003630579
C           57.36697572660074       56.97993756991074       54.93100766074586
C           57.58619681225014       57.41811525656943       56.22446489350713
C           56.90217790585866       57.71422833922071       59.13331646935422
C           56.65957182861538       57.61850555438087       60.64889015555715
C           55.64083886119903       58.64974912835392       61.06930758505207
C           55.95862859969054       59.60594792388744       62.02537298210971
C           55.01774572058962       60.52932147128811       62.44879798958370
C           53.73966902549118       60.51557479609945       61.91705925309542
C           53.41521409486271       59.57531542663325       60.95349559139134
C           54.35755466170746       58.65482323023065       60.53133609679932
C           56.19421831868052       56.21043447751509       61.05305611691982
C           55.80237424944032       56.10500089619413       62.53109519697296
C           56.91080763712796       56.48940321925524       63.47845146178351
C           58.15646966610404       55.87388651791583       63.44387446347267
C           59.11384165439675       56.16600669659960       64.39876791211140
C           58.85368049675524       57.09133442150220       65.39467666119106
C           57.62328205779991       57.72405460130435       65.42975387390986
C           56.66237399679817       57.41687526243159       64.48375444222025
C           55.34413949776767       54.67664240056737       62.88600239357287
C           53.85726247602071       54.37934232642476       62.62704359989110
H           50.76601078895909       66.65096855331575       51.94492553227889
H           50.79228367867847       67.49427687798523       49.01377567810152
H           52.14477735322757       67.55479589181957       50.13453443342674
H           50.74370169589256       65.03762601865817       49.12076801562654
H           53.14536255234642       65.31418782756187       50.97372367419015
H           51.56203083321383       64.67420779965573       51.40629630227509
H           53.37535656936888       63.48543525101480       49.27268957056521
H           53.03356696694775       62.88636636543002       52.21578789468246
H           53.42650575930354       61.57806473038423       51.09625859008560
H           55.05961870318986       64.13418295604446       51.09172600329389
H           55.32059984945163       62.47554722013045       49.25258067757520
H           57.45567760386656       63.40227187140091       51.03990396941056
H           57.95634321878378       61.05791501232776       51.29466033944364
H           57.94585838959556       60.79782606428153       49.55236337330228
H           59.91929320630793       62.10217982545310       49.21734739336307
H           61.51361942806430       61.07032003349658       51.00136312580725
H           60.10751191258102       60.20048011507920       51.58044118760033
H           60.85790426337086       60.08802119529408       48.63771831267338
H           62.13690033498084       58.52631406332585       50.90989098970763
H           62.14568194278300       57.95841635135465       49.24366768634629
H           63.17697269275413       60.69728367957578       50.06561763695614
H           65.80596402022009       60.67924695711251       49.43111149280158
H           64.44017998459830       61.44358972881199       51.48199144949859
H           65.63709398815810       60.61422291550164       52.46517577851717
H           67.41692899112192       62.04900524272596       51.31857525992375
H           66.65568345480543       64.19649974664692       52.54648732602591
H           65.20678345619069       63.30004425624940       52.98732257425400
H           67.00153865288473       61.46976175625996       53.77487984280152
H           67.07620595528812       62.75135095812080       56.05131509241050
H           66.04961268931424       63.93924272525377       55.24955730111445
H           64.57782692975397       61.89909978656573       54.55743757189234
H           66.38446971632558       60.28139748771126       55.33861581893733
H           65.91732369510599       60.65622186966038       56.98881540017840
H           63.67710303490216       59.90507996902698       55.14579995625268
H           64.42710647418417       58.91615568873229       57.92415966622310
H           63.42319296693662       60.32940129227335       57.60116220824742
H           62.83520436709087       57.47967494624481       56.68401470538020
H           62.70452356883030       57.74340874171413       59.12085232578823
H           61.60091591316089       59.10245089102081       58.94942463728077
H           60.63247464278557       56.77077323932801       57.44464710282669
H           59.43641902308926       58.31959341190215       59.77623103692258
H           59.29924212596119       58.74051188601593       58.06842706689015
H           58.34668520098823       56.11077155510728       59.26507404351974
H           56.96764595217401       58.77121174496249       58.86488918143149
H           56.03728503465499       57.29614889037088       58.61367918863083
H           57.59694370646965       57.83407510381365       61.17368677727802
H           55.32767676708458       55.93326764000628       60.44936295006832
H           56.98978299228601       55.49612682047265       60.83526715485345
H           48.94076618419732       68.91462515143496       49.52723220503724
H           48.48220189922658       71.25849844047031       50.03442787498948
H           49.24120102307641       72.24608984054035       52.16780104230090
H           50.46790781329766       70.84756132621359       53.79101316543386
H           50.93280988214286       68.48964056722325       53.28161790309735
H           51.20215382111153       64.77347267316047       46.89244534146963
H           52.75496093761890       64.81807256205869       44.98431330339295
H           55.04842442809741       65.67895531967216       45.27601560488751
H           55.75518224798423       66.54787654607277       47.47142417245904
H           54.20512491514370       66.53757181915475       49.36064225094785
H           50.49880598832505       62.64221434083303       51.58743543272698
H           48.57126579188412       61.32097401205522       50.82977701244208
H           48.48676220073254       60.45572046346934       48.53541024229578
H           50.36861072609141       60.88996228720330       46.98355703823243
H           52.27865707945763       62.25296482043233       47.72928296428333
H           54.94590209736855       60.74126754275485       52.72870469440106
H           55.89884542253992       60.31194520014982       54.94140490601108
H           57.08631869397018       62.11100620604680       56.15157126506386
H           57.27490879250977       64.35192317110918       55.13375111597277
H           56.30889609400172       64.78521348565894       52.92554991928962
H           55.72635464692334       61.24133665561814       50.44124787695348
H           58.23867474183830       65.26152115728632       50.01678369726360
H           58.78539516368959       66.56422654539728       48.00901020485900
H           58.43476367334775       65.58928792176320       45.76648474957550
H           57.50132740403119       63.31491409314626       45.56037703937690
H           56.97840804159218       62.00270679291220       47.55952112729312
H           61.16577223216925       63.98155079651328       49.53482803540092
H           61.91978410501428       65.87218354666471       50.91932805414356
H           61.25576158920931       66.01051215847410       53.29042354963258
H           59.82414963763596       64.24849245490898       54.26081517668253
H           59.07058805386121       62.37310947498543       52.88702168032881
H           60.15307379549946       57.70023509245463       51.44572929543877
H           58.25857304375016       56.15138502958448       51.45777840619127
H           56.65142046659631       56.13801603216876       49.56745704954314
H           56.96065592616969       57.71243323005795       47.71212466002392
H           58.85731406994638       59.28546177781667       47.70910593627396
H           63.59393383177105       57.90286079240396       47.56560361517828
H           64.19276167123672       58.34947381494545       45.22590876712878
H           64.61906082972754       60.65270370758535       44.47325477183798
H           64.42961686070862       62.52580316729348       46.08138323186925
H           63.76392342089651       62.09034660768486       48.38867779429954
H           64.34653588698326       58.74404691865988       51.25987125198127
H           64.93073747328069       58.25179224766259       49.67231551431664
H           67.91945761067414       60.08749159616514       48.75023187186579
H           70.03482908510314       58.88418323471057       49.06438544881853
H           70.38062603311701       57.48455920584442       51.07277153148779
H           68.57948297331963       57.30348497164657       52.75945308159234
H           66.47986400321422       58.50264669050213       52.44976719414324
H           64.03115815460761       63.70098949335352       50.95264553552754
H           63.43409864656020       65.04626523325945       48.99991192596556
H           65.03802460975047       65.35662226583580       47.15811876479020
H           67.27247417686003       64.31958610344310       47.30127531710372
H           67.87397909124668       62.93947997021212       49.24786158092061
H           68.12547219806035       64.95901487858589       54.58655668945230
H           70.48527608336828       65.62099242921798       54.49389258242283
H           72.19254043257597       64.02376750233252       53.70553857541370
H           71.51331207681940       61.75301621929688       53.00952312668172
H           69.15479495955809       61.08455534881417       53.11630214076989
H           65.62048966407016       62.71079860330306       58.09147823185140
H           64.09315036665238       63.74705869171748       59.70214216400392
H           61.77789836184684       64.30171388310465       59.04115417073024
H           61.02140415289956       63.82894162867077       56.74349100941440
H           62.54310155271332       62.78028015769127       55.12944750907354
H           66.51452606476026       58.11827573192844       56.85348545663650
H           67.47122366090393       56.03077324882369       55.98655212475732
H           66.50793571536219       54.95700510889901       53.99702850353469
H           64.53427492524132       55.97203230344250       52.89013634952735
H           63.59167483542159       58.07271293970711       53.74699777383761
H           61.36619905560786       57.28403298159896       54.93264283177886
H           59.56258636361687       58.15681697051181       53.50981551579885
H           58.61172002255684       60.39029686181856       53.94151961068847
H           59.51990302441066       61.76623693387300       55.77633004216728
H           61.28234277145129       60.88234112183603       57.22415037320435
H           61.02102419882553       54.54998920469441       57.86204657243385
H           61.48602763522995       52.67964290426799       59.39110705646387
H           61.69848241719281       53.08754896236150       61.81321440457103
H           61.48415302432813       55.38641550714227       62.68516277977553
H           60.99679769696990       57.24648606394176       61.16927784449441
H           58.48791157156695       54.49435377518360       57.63110080431464
H           58.09421013429484       53.71090400975485       55.33555154985927
H           57.35917286628720       55.29138486674630       53.60201699505839
H           57.05520432997151       57.68823345083707       54.17639938224357
H           57.44231141151886       58.46196535114170       56.46278895190952
H           56.95286355160840       59.62567996018055       62.45066822347781
H           55.28353856446143       61.25672742570548       63.20316407798821
H           53.00052962683021       61.22864638418095       62.25278933834149
H           52.41742649550364       59.55323052531500       60.53881838652230
H           54.08519831053290       57.93495053910696       59.77419217388840
H           55.69923604209060       57.90643602459245       64.53021487919681
H           57.40953021793365       58.44989354624048       66.20189840246474
H           59.60352796475441       57.31491136941603       66.14034613024107
H           60.06764930214081       55.65949757523052       64.37650547230950
H           58.38783478509922       55.15553506339517       62.67077239457222
H           48.45547497596720       66.69495983588210       49.94822512840823
H           49.14929965467446       65.25459920703553       50.71351734102372
H           48.30929864640534       66.46273198857142       51.68710660713519
H           54.97413923822590       56.79329654461012       62.71239408875140
H           55.94566453277114       53.95835874184912       62.32213346620928
H           55.54019609936262       54.49882304058533       63.94639880144192
C           52.93241545784364       55.24663009370921       63.50664937139241
C           53.65153435358850       52.90426395869427       62.87865282731400
C           53.83480167316724       52.37523289411930       64.15242673055052
C           53.74877817336441       51.01301974037609       64.37041599068839
C           53.44966071198493       50.15705884486057       63.32388189149906
C           53.21832930924543       50.67510629690643       62.06185204688771
C           53.33220357725107       52.03727465765169       61.84178010687270
H           54.06048047447950       53.02661297648883       64.98474036345834
H           53.92828500067710       50.62174519710016       65.36238137168854
H           53.39937430945531       49.09054835441904       63.49243995265518
H           52.95338745354678       50.01883252474664       61.24505262808182
H           53.17626367471078       52.42721358228719       60.84603378952515
C           52.20893319642416       56.34904622837173       62.71806800763748
H           52.17914053378777       54.61151957131475       63.98011783092638
H           53.51497060388851       55.70358163449017       64.31002674101089
C           51.57934624593589       57.34772014694198       63.64688490793354
C           50.23581320687251       57.27203166941811       63.98692883889888
C           49.67299401206218       58.18183538449546       64.86409310101513
C           50.44876182330686       59.18606879111358       65.41495030979934
C           51.78976358475288       59.27375207185006       65.08125522873418
C           52.34875431300428       58.36070965862800       64.20642159226411
H           49.62591611052278       56.49194621497770       63.55772774608837
H           48.62627069104911       58.10977804529333       65.12436663849738
H           50.01125110377399       59.89633409890044       66.10170662772997
H           52.40166196952414       60.05847297353233       65.50433173401265
H           53.39415511187045       58.44485708957784       63.94311554514416
H           53.63437302524177       54.57928764400005       61.57446367432797
H           52.92276173210420       56.87125301029756       62.07767255701580
H           51.44545860572526       55.89353563337564       62.08428851397654
C           63.09133035069383       39.15380596540152       51.24049387405505
C           63.01369391328040       39.08824293429699       52.62716668140762
C           64.18471267213268       38.87883468458829       53.34435675952116
C           65.40215943692149       38.74245227954803       52.69966142238408
C           65.46581654181877       38.81503078124820       51.31912700111580
C           64.30547268471437       39.01941685224822       50.59220674861611
C           61.69777293236427       39.25140402792971       53.34962394484300
C           61.06345120157124       40.59466388142197       52.97964609296989
C           60.79314131390980       38.04699660928093       53.03543238518668
C           59.42068388579801       38.06006798107863       53.73194820872113
C           58.52974113631722       37.01612138615325       53.09992633352645
C           58.73222869814364       35.65643518204781       53.30458383608382
C           57.89438197463865       34.71973281888707       52.72438181089183
C           56.85536188602784       35.12247810261402       51.90326957679112
C           56.65713209466733       36.47158851140240       51.67176509045109
C           57.48305496087182       37.40472000284362       52.27249718317773
C           59.55286589109104       37.87973219097270       55.24981070245204
C           58.19295458886297       37.94040457944536       55.98010436773465
C           58.24927345345481       38.91381655383508       57.13125481770936
C           57.47030273543219       40.06382636857573       57.12829344474858
C           57.52540082795260       40.96422048299712       58.17760126763888
C           58.36106741274142       40.72441103470948       59.25383956716681
C           59.14743320316603       39.58454830701626       59.26767408188519
C           59.09444641507627       38.69131641130633       58.21320666423702
C           57.74741818214459       36.55229928772717       56.45912515408779
C           56.36902889564426       36.58678763618556       57.12977314609741
C           55.32003980221391       37.13517117485938       56.19739631641327
C           54.57629802540764       38.24588534887317       56.57571595170415
C           53.58919578978215       38.75308857155547       55.75144287494844
C           53.34435445237786       38.16812263558554       54.52103604929179
C           54.08981177561218       37.07117206020263       54.12734372100454
C           55.06362652186107       36.55150199572748       54.96232592199072
C           55.97708371431003       35.18790368526673       57.62625649657980
C           54.64251000710474       35.19468324406642       58.37969044897725
C           54.65012926134588       36.11837714498987       59.57274765862484
C           53.60610941109211       37.01690937194527       59.75732312700874
C           53.55276531706435       37.83834569062932       60.86936844206726
C           54.55826764203793       37.77806904786163       61.81859502448898
C           55.60556135510620       36.88844459024479       61.64872072100850
C           55.64653101690906       36.06158257466518       60.53985264548289
C           54.25346064204301       33.78185616585192       58.85301834404911
C           53.66038386623338       32.89592096145489       57.74520387545798
C           53.66378013673535       31.45525622427855       58.19096085849915
C           54.45812910058682       30.52071612646858       57.53907986061616
C           54.46502020833081       29.19404863263400       57.93262194377946
C           53.67205527281678       28.77937349968440       58.98844882322847
C           52.87895228377385       29.70247633740087       59.64884601980351
C           52.87841406905328       31.02775256358280       59.25571483486263
C           52.24030140255445       33.34355886187087       57.37765924686849
C           51.58990878207708       32.41832481772859       56.34292796452063
C           52.43455804376451       32.27442001173322       55.10109075182782
C           52.72141817480694       31.01157457212471       54.59848603930376
C           53.46890424938722       30.85631465616337       53.44377229644787
C           53.94422673664140       31.96813654804653       52.77033318109512
C           53.66836267181280       33.23215033439909       53.26227786059452
C           52.91908535564047       33.38255835911578       54.41466483370948
C           50.19500007743757       32.91688354474653       55.93371913450787
C           49.21131574233076       33.06339205680224       57.10191625647337
C           49.14760268510274       31.82286650962230       57.95256121675726
C           49.33102751520505       31.90127427008164       59.32697860968378
C           49.27084566532309       30.76772377508264       60.11873443905378