3864
 energy: -5104.109502447471 gnorm: 0.000785541899 xtb: 6.6.1 (8d0f1dd)
C           49.28991602997333       69.29250554292709       50.44582827243990
C           49.98478647716698       68.50234377487152       51.35441794757240
C           50.40780342775046       69.07896544020680       52.54503384686324
C           50.14776192545020       70.40925591541136       52.82388800117938
C           49.45744740498691       71.18656164096302       51.91052812135504
C           49.02915204653240       70.62264943505403       50.72066241350944
C           50.27582253110299       67.04844831324971       51.06560386044209
C           48.96808716520741       66.29015844033246       50.83430407789225
C           51.24772818166760       66.95401440955911       49.87720029632009
C           51.64139151149915       65.52854492224624       49.45648498752161
C           52.59275565065281       65.58810878422408       48.28372904964552
C           52.20113239812685       65.12719197675733       47.03343069517927
C           53.08092163983711       65.12944851748020       45.96511439477354
C           54.37506372645890       65.58854037059885       46.13179388537195
C           54.77395233424954       66.06644572509410       47.36798588081997
C           53.88869716799608       66.07119530998345       48.42980979812646
C           52.26703447237532       64.73256521331257       50.60897194599711
C           52.70506358221687       63.33179763735885       50.16224534747511
C           51.51655357256139       62.51072909241954       49.72538100523340
C           50.45746331874282       62.24037236592775       50.58569212180178
C           49.36866192434056       61.50134107976881       50.15735302114255
C           49.32867699612586       61.00804469935115       48.86455661030175
C           50.38486279168037       61.25054495662427       48.00402481633061
C           51.46495621091236       62.00166629880660       48.43351123937206
C           53.48661334046260       62.62151093928122       51.27953027356254
C           54.96891892408043       63.03026803081963       51.32030319077715
C           55.55767319024776       62.77318953953218       52.68479421003330
C           55.45842127365189       61.52028914409181       53.28046821649500
C           56.00600027516265       61.28505786305702       54.52818125450539
C           56.67177485541052       62.29826684880096       55.19787032747048
C           56.77837334074151       63.54813163706440       54.61582606801193
C           56.22434657743229       63.78149230134606       53.36954403791297
C           55.77368546834280       62.27639573321374       50.25151903333381
C           57.25229879547487       62.71579204325501       50.20417176144709
C           57.56903272205905       63.50583186262984       48.96069591853862
C           58.09329015456210       64.78823910637281       49.06772133458534
C           58.41142053495773       65.52404646231315       47.94000013200446
C           58.19798738745680       64.99087503255282       46.68087775138635
C           57.65904165711027       63.72165015154003       46.56196986005645
C           57.35275209480346       62.98280959734840       47.69085592550481
C           58.16776134687993       61.48875355147430       50.34433546174775
C           59.66315479881987       61.81771314805265       50.26748482270327
C           60.06179784965556       62.99441734870758       51.12481629255645
C           60.88157604339479       63.98483229759396       50.59686117893717
C           61.32088358611799       65.03751298622797       51.38036310240456
C           60.94886893587175       65.11395812052835       52.71162326944258
C           60.13116491577147       64.13406041891656       53.24700881482099
C           59.69290159297019       63.08334745496042       52.46154255167649
C           60.53457287716267       60.62049791069198       50.69510275207993
C           60.76499613582236       59.55821720535122       49.60385126118230
C           59.61972335006617       58.57696527600266       49.57718852722749
C           59.43612089454869       57.68040948025664       50.62350664487353
C           58.36916156333448       56.80072815328386       50.63302564962254
C           57.46364116451698       56.79290138721256       49.58657232831661
C           57.63907297096326       57.67579807432804       48.53649919776443
C           58.70631930769362       58.55781573217340       48.53111902439097
C           62.09479578900540       58.81768552372248       49.84110163647658
C           63.32352219044629       59.69599845133877       49.57926545902657
C           63.59716354120194       59.95211847574632       48.12035374331637
C           63.72361697662897       58.91465697282572       47.20538840365401
C           64.06878901585708       59.17404451394590       45.89154768846733
C           64.30886657470293       60.47261080089071       45.47660140586617
C           64.19468616499194       61.51399428230135       46.38015356213656
C           63.82726061380546       61.25250174940882       47.68704095454554
C           64.58106934825840       59.09377452350022       50.22800038137257
C           65.71959611241076       60.12168485336075       50.34264362909737
C           67.03062239182250       59.40691964424452       50.54907892038071
C           68.04188316855831       59.50032175401525       49.60162861562837
C           69.24137637501454       58.83151297615586       49.77599618483842
C           69.44697860691792       58.05488900291963       50.90351469423583
C           68.44391841602864       57.94974427016224       51.85243080741513
C           67.24732834595825       58.61996112668928       51.67524956800296
C           65.44662248383263       61.11506037919680       51.47997429128224
C           66.33580958314629       62.36444373468990       51.40650309813814
C           65.95926948471077       63.20772329110169       50.21315317622825
C           64.71113907379809       63.81668458782032       50.12960588706195
C           64.36703991596129       64.57967361563301       49.02781755069873
C           65.26600850269178       64.75468381673355       47.99055936776415
C           66.51501869044789       64.16558371725459       48.07008314830097
C           66.85584354576730       63.39624013533905       49.16910088871597
C           66.21848656826572       63.18604229742466       52.70032071307346
C           66.98104707032978       62.54379376231223       53.87272172027699
C           68.43242030748024       62.94519604067320       53.82214981412365
C           68.84514314867556       64.21468114197317       54.20885029746304
C           70.17788739043144       64.57660826623591       54.13781979777384
C           71.12002445561495       63.67612079144937       53.66997332872271
C           70.71957357161082       62.41187022874109       53.27532465817499
C           69.38623040006266       62.04971648112815       53.35391717567764
C           66.32063650835838       62.88735065977306       55.21818394509076
C           65.09082299128396       61.99884049996355       55.48624980965663
C           64.15757831242536       62.64760878702249       56.47613372900881
C           64.57245868677091       62.93414299491841       57.77258503219870
C           63.70638117124543       63.51104586143516       58.68339737838570
C           62.40846143827262       63.82037774669667       58.31149713752202
C           61.99085448788705       63.55742462010130       57.01908906506534
C           62.85836536495154       62.97658673669496       56.10964633376960
C           65.52892791324766       60.60353089499149       55.95355351543970
C           64.41319515863655       59.54462200175897       55.85479388018784
C           64.97636253006009       58.24546217204561       55.33472976023717
C           66.08069100455774       57.65785216389880       55.94277198883656
C           66.62415487361714       56.48860599549825       55.44383662855803
C           66.06629730965254       55.87907733570307       54.33278933797190
C           64.95637874890072       56.44460417601010       53.73020258239496
C           64.42141892309391       57.62174778176755       54.22510740990410
C           63.72075941986467       59.33097185705398       57.20826501128217
C           62.50047587677782       58.40789322087540       57.09657406169304
C           61.44290343875215       58.97946232924875       56.18793587256764
C           60.94869608039108       58.22841138863254       55.12945535102474
C           59.93546944762323       58.71723312848197       54.32493151307866
C           59.40581037342301       59.97284025995349       54.55808187997280
C           59.90838867612764       60.74181870657506       55.59281874988167
C           60.91101638636810       60.24504737382735       56.40491457403663
C           61.91238272071094       58.12508892517856       58.48786306274458
C           60.70888788567228       57.15545021122293       58.44161808291231
C           60.93601168289104       55.99413787681465       59.37643960364508
C           61.08448151162677       54.70469580804321       58.88017875804992
C           61.32201992128029       53.63524646611377       59.72638282308871
C           61.42489124216039       53.84252384960833       61.09044910766431
C           61.29638834932314       55.12495565559632       61.59554853098982
C           61.04880288550592       56.18966900137935       60.74851622905105
C           59.39940337954550       57.89303675673671       58.75517978338642
C           58.16466372131048       56.98949749419308       58.63403792600246
C           57.96440551540618       56.53491244323018       57.20849837910325
C           58.16095117243979       55.20585963026465       56.85339528279037
C           57.93247947808791       54.76969157390344       55.56045753630605
C           57.50491757530663       55.66504484218589       54.59585761947511
C           57.32221873718861       56.99611824998067       54.93181965900549
C           57.55075821925269       57.42653446025400       56.22617963340679
C           56.90264725431067       57.71589870684056       59.13711435670474
C           56.66791904062073       57.61347493477922       60.65329198108952
C           55.64500971550385       58.63785556346713       61.08132767758379
C           55.95943432445979       59.58771925847370       62.04481325046766
C           55.01478034744330       60.50426203130504       62.47413347428697
C           53.73675746728671       60.48923201364099       61.94244821518079
C           53.41528399270926       59.55441325462738       60.97271834486143
C           54.36162034731432       58.64085091181308       60.54367912799400
C           56.21241492096864       56.20163309834836       61.05547631973876
C           55.81670859451116       56.09151742454136       62.53213714669638
C           56.91717370677954       56.47988213193033       63.48799456638136
C           58.17924373091545       55.90067055572221       63.43732645673507
C           59.12824224338130       56.19771178276454       64.39952317006342
C           58.84105342143877       57.08822076836345       65.41900187115350
C           57.59287266096554       57.68321630152447       65.47085687539146
C           56.64140166940186       57.37345804265640       64.51660837629888
C           55.36146301238522       54.66034558758747       62.87900435729660
C           53.87541787416448       54.36364216109263       62.61472628528325
H           50.76453869906133       66.62502206148349       51.94946595259680
H           50.80125159527937       67.45139394812169       49.01355534245041
H           52.15195705562479       67.51025760174760       50.13761171744061
H           50.74124120859027       64.99626505299648       49.13040072366135
H           53.13107474277987       65.27342318904302       50.99825858963485
H           51.54387835514214       64.63478398411826       51.41950265001125
H           53.36857282407983       63.44166707521514       49.29853588135929
H           53.02631690239517       62.85290185577516       52.24311253315092
H           53.42081062965592       61.54113119557972       51.12843583106240
H           55.04653026055114       64.10195711602002       51.10851155478665
H           55.30965919472287       62.43728859722798       49.27690384599939
H           57.44985138792605       63.36334279629489       51.06366748656828
H           57.94712482803110       61.01587541297809       51.30473583865231
H           57.93102936179955       60.76637425547335       49.56181645592349
H           59.90543490259625       62.06902835845815       49.22844730480068
H           61.50222036851380       61.02050504717005       51.00302741145150
H           60.09489941642440       60.15084697365912       51.57706115366338
H           60.82863169105264       60.05735334902339       48.63013348287021
H           62.13037238084991       58.47775151758494       50.87817675652563
H           62.12860895305697       57.93102777412461       49.20556345814271
H           63.14660877269007       60.66912307502021       50.04463231298942
H           65.77465155476609       60.67684624583832       49.39972471325955
H           64.40340147230300       61.43381343138797       51.44749081530983
H           65.59829134045854       60.60694203644497       52.43343440782985
H           67.37859109684695       62.04850759580039       51.29210281798384
H           66.61303798666763       64.18969283626922       52.52517260169819
H           65.16374764403614       63.28997667476516       52.96133307430656
H           66.94764530971595       61.45787677304555       53.74956570955113
H           67.04653102206912       62.75445219749308       56.02288240516062
H           66.01195813673824       63.93471254770395       55.21843963738014
H           64.54762118740807       61.88373017427909       54.54201422042450
H           66.36792719210436       60.28259684026108       55.33261627936562
H           65.89326229108865       60.66130223010421       56.98023870067043
H           63.65538455915213       59.89585459837069       55.14557494967573
H           64.43180154725567       58.88771881606005       57.90954265426738
H           63.41932544281402       60.30082840195783       57.60690000380171
H           62.83907163829542       57.45390986652819       56.67478253226856
H           62.70185485281133       57.69575752178453       59.10934623223476
H           61.60900323923089       59.06638838805324       58.94974664759038
H           60.62151121175672       56.75706210863014       57.42535227477150
H           59.44071882424440       58.30366932436235       59.76605377072770
H           59.30176101955677       58.72790445893097       58.05859345507821
H           58.33611828112838       56.10125052496557       59.25009603352837
H           56.97284058302885       58.77382882821006       58.87389308339061
H           56.03177635939748       57.30660479208068       58.61905764653665
H           57.60632077344401       57.83203841377135       61.17369384186907
H           55.34945081009870       55.91794527966383       60.44812688520756
H           57.01255957652953       55.49207593417277       60.83783037322610
H           48.93910336624558       68.87079286581621       49.51531917148198
H           48.48469447067279       71.21942158683646       50.00320267371598
H           49.25211748380065       72.22494389637734       52.12573423664835
H           50.48359472836133       70.83946036721879       53.75653078773939
H           50.94376046443272       68.47635375666704       53.26575457685068
H           51.19706796087359       64.74888694774528       46.89887295259109
H           52.75848591043117       64.76841635201806       44.99848859276199
H           55.07043274037227       65.57525340407501       45.30601771753846
H           55.78216415755820       66.42695127726981       47.50692832075251
H           54.22039340105431       66.44797389066530       49.38625693674943
H           50.47932711523842       62.60774608345451       51.60231744684024
H           48.54792350504959       61.30034388870678       50.83064059319196
H           48.47374919049840       60.43469967572548       48.53651306767668
H           50.37011792764260       60.85256272915217       46.99895589424086
H           52.28307899756319       62.20466248404900       47.75647220632793
H           54.94183457789918       60.72095441597087       52.77076871621561
H           55.90510320038844       60.30846555022586       54.98095038413312
H           57.10046126588875       62.11523142394140       56.17098031601603
H           57.28467890219407       64.34883289195166       55.13508246388687
H           56.30630059610336       64.76523568685708       52.92837590464404
H           55.71779529855330       61.20841608971692       50.46951118158067
H           58.26068815128889       65.21312214902970       50.04781856566569
H           58.82228475238945       66.51841819692787       48.04512031181249
H           58.44927550695403       65.56033474047658       45.79804167820477
H           57.47438721133751       63.30409795770261       45.58383571140300
H           56.93868694007247       61.99006299956457       47.57775144495161
H           61.17698013312344       63.92768035215646       49.55817866251206
H           61.95732487466042       65.80033580549072       50.95489673925716
H           61.29457250777498       65.93155837840389       53.32724101995049
H           59.83309160173539       64.18686680908185       54.28369611173905
H           59.05571238854402       62.33051032108617       52.89715166431474
H           60.14143211644486       57.66698468037107       51.44075656032959
H           58.24418479982224       56.12235347918796       51.46495805111012
H           56.62680771146788       56.10968504555482       49.58314247154275
H           56.93122153765508       57.67785497434394       47.72271578205096
H           58.83079140415645       59.24708895774465       47.70704153886408
H           63.56669919487349       57.89446278713098       47.52277477707992
H           64.16220082636823       58.36130512200791       45.18626567625487
H           64.58256446950217       60.67008092847436       44.45196127993152
H           64.39386226453986       62.53060152581491       46.07555315296572
H           63.73280444069336       62.07438464136777       48.38142879492028
H           64.33718961907169       58.72102655557534       51.22500883318151
H           64.92204796891168       58.24370573029779       49.63344148873900
H           67.88933807441437       60.10135557266486       48.71552338683013
H           70.01695041420547       58.92052098024691       49.02769116670096
H           70.38336425643747       57.53424732602306       51.04268080353107
H           68.58776161285144       57.34314893883130       52.73576414101560
H           66.47448040696624       58.51570754203716       52.42331106038736
H           63.99287767865120       63.69674402469875       50.92875969334597
H           63.39085323664705       65.03763171755905       48.97270358531372
H           64.99136239991807       65.34506560848415       47.12855920441686
H           67.22845034542517       64.31394202186577       47.27238397134912
H           67.83320155573362       62.93627940181484       49.22076372298029
H           68.11802989404663       64.92688232150094       54.57058254861597
H           70.48330594908597       65.56584996569718       54.44710906084099
H           72.16068070456400       63.95981728132571       53.61351611697100
H           71.44655474100786       61.70301694861314       52.90603177535179
H           69.08416095254051       61.05724653056242       53.04609198091451
H           65.58327194658285       62.70272478456171       58.07557294366773
H           64.04485875544928       63.72050340461884       59.68797586759437
H           61.72737784094188       64.26320895327839       59.02349180455020
H           60.98183956738414       63.80136368855311       56.72041680513921
H           62.51487746176614       62.77005979225264       55.10508376608166
H           66.52598756074119       58.12566820803824       56.80864075731348
H           67.48938273947923       56.04871164947640       55.91886511187114
H           66.50388560693214       54.97264564766460       53.94289178170609
H           64.50459881214299       55.97497449148921       52.86908954232185
H           63.56089727124880       58.06587189003655       53.74291003221425
H           61.36094850233814       57.24866802086301       54.93389069008244
H           59.54934582760801       58.11337793357126       53.51807600952146
H           58.59807482635109       60.34618130723410       53.94512475239217
H           59.51409135625973       61.73158256501635       55.76925480769578
H           61.28453547095092       60.85539774705414       57.21269322898959
H           61.01932551442934       54.53702411202352       57.81399322094563
H           61.44643575893956       52.64152887558549       59.32199872256447
H           61.61432560896070       53.01090915708937       61.75356266198695
H           61.40259896303397       55.29756076776059       62.65556727400071
H           60.95386519888221       57.18459026958362       61.15888779622401
H           58.48876199342226       54.49965267577934       57.60162126902450
H           58.07780520845057       53.72981726522442       55.30439628945186
H           57.31424607714938       55.31745733610840       53.59016753268806
H           56.99961086573887       57.70768264758200       54.18482966060169
H           57.40133006609872       58.46735707594549       56.47261935958490
H           56.95313320408716       59.60631452482393       62.46917557168382
H           55.27728238795918       61.22699767895007       63.23283736255274
H           52.99377729353208       61.19593785310843       62.28175383388366
H           52.41758593072043       59.52908925086923       60.55738850512139
H           54.09193059404193       57.92440425905440       59.78146238385056
H           55.66438229580264       57.83301477312958       64.57320217666921
H           57.35747350649756       58.38201056978942       66.26055277882605
H           59.58449163865536       57.31439696688152       66.16931548622593
H           60.09687409080566       55.72190336024750       64.36355292825372
H           58.42947860393772       55.20879353061432       62.64588803112470
H           48.46000107977053       66.65678330910355       49.94591017158052
H           49.14609890179307       65.22209700545648       50.72631131430411
H           48.30791744374771       66.44133523311878       51.68682301287781
H           54.98313696847795       56.77465483310949       62.70876871746541
H           55.96462605845712       53.94609298901052       62.31130414938261
H           55.55503953642040       54.47717094592493       63.93836514386106
C           52.94901669805071       55.22674830372453       63.49737808628177
C           53.66579226390564       52.88735705363818       62.85642779106686
C           53.85359283845770       52.34874753826654       64.12551400907222
C           53.76173396157567       50.98543855570676       64.33390832093701
C           53.44898659247156       50.13898759290813       63.28374671374741
C           53.21245934344598       50.66711124784667       62.02675272953605
C           53.33563190028656       52.03001921714809       61.81497127747512
H           54.08762756547291       52.99439103884509       64.95922077772465
H           53.94736851526216       50.58669489365889       65.32055885490912
H           53.39286167932799       49.07224493043944       63.44324692882281
H           52.93615828418879       50.02038633907132       61.20636446845552
H           53.17850795785083       52.42919479574595       60.82221715404633
C           52.22354244675525       56.33122717236129       62.71345807893313
H           52.19637273991003       54.58858998321659       63.96744329149112
H           53.53141765021045       55.68192963249053       64.30129148541209
C           51.59875246577387       57.33224283203895       63.64397787057608
C           50.25137658551269       57.27286843401831       63.97053510678253
C           49.69356608522362       58.18384204269731       64.84983774788837
C           50.47836910792596       59.17279664647565       65.41468138823433
C           51.82277606134743       59.24560242595214       65.09208658380778
C           52.37710788194399       58.33112427885059       64.21598820907282
H           49.63497196781189       56.50503027223971       63.52777645942147
H           48.64362392938232       58.12303986709556       65.09876423899055
H           50.04432758333139       59.88293430838105       66.10262827740654
H           52.44176717394938       60.01897060604058       65.52393768595635
H           53.42496488874671       58.40186437096431       63.96002232679227
H           53.65493868018190       54.57040439815064       61.56197047659634
H           52.93519650976577       56.85177541547540       62.06840754327987
H           51.45705781291854       55.87755135201342       62.08063519578457
C           63.05113300931736       39.15850206581678       51.20585203630488
C           62.99726239220668       39.08391179000493       52.59299874146115
C           64.17922269489200       38.86785560567768       53.28958869009552
C           65.38509334488491       38.73257978318487       52.62352333881127
C           65.42533440500591       38.81217243349878       51.24268820934531
C           64.25382375357540       39.02391552607888       50.53649043382452
C           61.69279230753757       39.24171665085283       53.33793821206115
C           61.05934145077461       40.59384359118553       52.99868038940524
C           60.78009981708963       38.04501995508364       53.01825094864735
C           59.40888437399563       38.06042484833967       53.71693666841695
C           58.51919791875410       37.01128378639307       53.09156956814731
C           58.72089105195552       35.65320472893485       53.30780301886009
C           57.88269990127373       34.71191309086275       52.73583603306566
C           56.84385831691691       35.10768230796279       51.91116391449171
C           56.64723229568683       36.45483543929618       51.66691088180030
C           57.47359059317955       37.39309702476765       52.25946316832643
C           59.54194537117424       37.88959089972216       55.23589562399899
C           58.18091484366501       37.94786840579940       55.96427105333435
C           58.23136580189923       38.92473875376309       57.11336590386558
C           57.45549321094931       40.07667313900679       57.10086833518701
C           57.50366081338987       40.97866945106392       58.14940036343867
C           58.32853315137162       40.73745248841205       59.23349188037547
C           59.11206768280638       39.59609027050377       59.25591456861024
C           59.06683790703510       38.70154918902568       58.20242522842261
C           57.73902261606819       36.55941180900084       56.44584977208001
C           56.36267501275355       36.59462805306250       57.12046248296449
C           55.31355211771692       37.14908507431385       56.19208670388470
C           54.57449611045705       38.26152298093236       56.57520394849267
C           53.58813342060589       38.77496944918890       55.75397427019006
C           53.33883085787248       38.19476844663212       54.52202278763807
C           54.08003520972398       37.09655575279893       54.12340761549844
C           55.05315447225035       36.57069594360406       54.95517717652616
C           55.96730941892612       35.19520324977876       57.61195721895322
C           54.63311527811520       35.20346005685040       58.36613314839401
C           54.64005364264725       36.13036917684019       59.55698873623026
C           53.58505016252424       37.01455470996979       59.74869473056752
C           53.53132520179030       37.84048955596948       60.85762412978112
C           54.54842045096591       37.79959772631683       61.79541734136703
C           55.60628687147989       36.92437367532629       61.61819529296151
C           55.64735597353335       36.09232170080728       60.51343690439305
C           54.24439324200667       33.79026611179028       58.83911119249674
C           53.64883090844637       32.90697269632929       57.73099473361644
C           53.64237113409313       31.46390393733098       58.17045935237157
C           54.40865922886077       30.52239472916116       57.49600642425381
C           54.39759313563678       29.19242073820266       57.87769098985795
C           53.61472095977810       28.78276443602790       58.94263544315764
C           52.85016496531504       29.71325488306253       59.62535898130072
C           52.86761356160649       31.04209868702424       59.24493947773125
C           52.22878442842639       33.35813810849476       57.36653146157091
C           51.57696129157185       32.43809177126401       56.32850748264435
C           52.40885915071859       32.30809674571821       55.07653042461618
C           52.67461612810970       31.05113096848281       54.54801851676503
C           53.40578183134109       30.90828403931595       53.38169756659214
C           53.88589175143320       32.02606735318218       52.72180919376719
C           53.63123218842826       33.28400166925609       53.23967228715655
C           52.89738678283275       33.42262727439030       54.40369177219961
C           50.17575835710718       32.93054590509629       55.93407482927152
C           49.20414014762979       33.07684781176227       57.11234617162701
C           49.16188375536772       31.84385482094230       57.97588807884325
C           49.34203571547052       31.94244548123737       59.34920718568463
C           49.30244427685041       30.81683131612449       60.15340640946172