3795
 energy: -5103.654256426101 gnorm: 0.000906519880 xtb: 6.6.1 (8d0f1dd)
C          112.87669456379220      135.36854876759006      116.57391568453902
C          112.16330963033916      134.06416336540136      116.83868753239111
C          114.28422519563740      135.15886905628815      115.99651142942524
C          114.24506198466706      134.44168432860647      114.64796250698662
H          114.74324554013643      136.14038819229199      115.87068579495505
H          114.89466064228952      134.59427987984731      116.70126071171518
C          115.52305891679265      134.61267560811345      113.81773103352346
H          114.05282731110663      133.37848516318411      114.81258013483091
H          113.41495754389004      134.84209667341986      114.06183891188512
C          116.72183327383271      133.85710645021067      114.36059593683449
H          115.33885095881675      134.29668009453897      112.79118637524269
H          115.79299609070911      135.67133320004788      113.80348401534049
N          117.35926979271665      133.10467033981732      113.45917408812683
O          111.22979200961794      133.79895380801855      115.94365473848150
O          112.40684456950984      133.33342904853956      117.77601085063533
H          110.71057093600928      132.97187813296816      116.15883961734717
H          112.96086939528819      135.89884743396851      117.52313131685965
H          112.27515712542061      135.95167976107649      115.87715706429950
C          118.60700455741477      132.41373272500627      113.70952340903125
H          116.97998140425594      133.03166583683247      112.51677732498082
C          118.55739933143727      130.94173041023038      113.30017586666629
H          119.40254530213821      132.91538788289049      113.14684091772349
H          118.82213300008600      132.50406725724403      114.77581714018334
C          117.52316929377648      130.15229159574952      114.10058769409541
H          118.33015648935103      130.88293919259698      112.23490686811319
H          119.54787311788493      130.51347449450856      113.46095795747247
C          117.68194361821824      128.63378461741451      113.99489736676873
H          117.61764483469391      130.41939624038307      115.15518152325104
H          116.51977539430021      130.43703988551968      113.78118230271271
C          117.68486480788401      128.07401704549210      112.57283630775922
H          118.61461017079087      128.33836068324996      114.48014077343512
H          116.85995072108234      128.17229257891992      114.54762174105136
C          116.43762961782281      128.45647754097203      111.78655357722729
H          118.56782753077835      128.41547945128767      112.03085079243509
H          117.74352740890866      126.98467200266866      112.62838225641828
N          116.36274941374975      127.68426653419247      110.56334589237244
H          115.53021401399026      128.26007509610380      112.36904599158049
H          116.45928840719193      129.52576910712051      111.55045457641761
C          115.25279950912289      127.57360684336702      109.83137470797621
H          117.23282311876960      127.30247984456837      110.21320689514998
O          117.08864527339928      133.95701099531107      115.53252825224807
C          115.36717060753395      126.62662848463872      108.65298868413387
C          115.60738829145561      125.18744349397684      109.11249370383831
H          114.44992114899937      126.68718425760808      108.06502082017666
H          116.20992539958596      126.93459371919067      108.03136845849775
C          114.50790426561399      124.66756809206603      110.03473762739117
H          115.67111038637987      124.54773012477537      108.23023399654264
H          116.56937696586867      125.13420063979689      109.62637764646446
C          114.81237792677324      123.24441612199895      110.49065945735522
H          114.43007362593735      125.32208787574868      110.90577070126379
H          113.54569878147440      124.68935367859429      109.52053260715813
C          113.80571670079605      122.67520629178115      111.48157574159643
H          114.82574491649196      122.58207910336915      109.62116079783567
H          115.80014971606097      123.20137202787632      110.95304766939084
N          114.26457644215445      121.60122162713820      112.12650633587626
C          113.50227083224121      120.89825914863128      113.13538942729534
H          115.23717439899207      121.32637459404675      112.00795521620557
O          114.21585319496006      128.18325394428274      110.09169791975448
C          114.23562962194872      119.65189111144936      113.62529337768794
H          113.31869854302380      121.57677032581539      113.98047627609270
H          112.52790559697000      120.63225627693743      112.71103619240539
C          113.65409722745832      119.21483818319341      114.96816331134622
H          114.14890479105782      118.86136254889519      112.87864822256736
H          115.29529809051579      119.89104409707360      113.74084332583560
C          114.38600735221920      118.05684373885862      115.64689585175076
H          113.68115873281560      120.08946447118961      115.61861737629273
H          112.60996763035030      118.93864332130785      114.82303666830146
C          114.16708966109179      118.01285897567624      117.16515116817548
H          114.06746958830304      117.11342386169861      115.20031130012231
H          115.45928573563265      118.15585568294217      115.46689017338727
C          112.71544512818679      117.90525832719349      117.62386130749725
N          111.97781899488201      119.13458455067179      117.40706342054857
H          112.19606074938315      117.10525661652449      117.08770345228555
H          112.69650859946435      117.65434337441478      118.69167741892652
C          110.64915650492085      119.18218248543647      117.33258388879739
H          112.49672659589845      119.98783164671153      117.24669277354278
O          112.68132670482900      123.14143115121381      111.65825612596441
C          110.09211344622940      120.47682672756821      116.78134634083035
C          109.98918811734596      120.31687314555376      115.25959366558494
H          109.10362796503514      120.66018622440662      117.19681752961749
H          110.75444461223145      121.30472972612685      117.02301210704198
C          109.17450119820924      121.40932228030454      114.57720647339745
H          110.99349830636601      120.31415266731740      114.83637285988372
H          109.51962532009526      119.35686509495355      115.04121401865815
C          109.84593153847929      122.78579560134888      114.63572262293583
H          109.04357703133175      121.13691759163076      113.52723484635342
H          108.18145109961108      121.47182091897271      115.02748525641076
C          109.00826212947028      123.72130076722742      113.78859160786843
H          109.87913995084914      123.14888897577036      115.66273229234712
H          110.85965744342211      122.71893202609760      114.24270284816993
N          109.38502692684830      123.79215618710641      112.50750074016541
C          108.59740626613379      124.47242098752272      111.50150410129963
H          110.29321832047842      123.44969421227727      112.22907902514275
H          114.70014978183420      117.14729808085251      117.56103587491140
H          114.60175659376335      118.90525113865944      117.61883765286771
O          109.93190656311458      118.22426815531674      117.62277815401748
O          108.00207400891475      124.27561586716935      114.22261302792732
C          108.96132901088410      124.00618900238446      110.10033896291122
H          107.54357886077086      124.25664573383823      111.70023988693941
H          108.72365931322737      125.55482069083766      111.58559747331775
C          110.31429275819762      124.51097514079343      109.59497285528995
H          108.95466035058135      122.91363275768011      110.08289271701953
H          108.17717049401956      124.35440080858911      109.42830824325763
C          110.37089467764807      126.02972360444961      109.38782043975245
H          111.10902544631901      124.20500380028703      110.27735622508203
H          110.49790527750240      124.02193545931028      108.63546469670352
C          110.97427156228420      126.80447475641685      110.55707414038382
H          110.98013704295869      126.24860499069679      108.50885598354439
H          109.36401813227801      126.40061575744606      109.18695113405398
C          111.04071052030515      128.29475741821184      110.23296101703004
H          110.39285066067657      126.66736019633558      111.46929050171724
H          111.98587175084293      126.44455713352508      110.75597577913173
N          111.45512641032623      129.06853019179442      111.37750023002253
H          111.75873274491457      128.45660429627631      109.42297692763219
H          110.05530636896178      128.66618927437023      109.93874727263615
C          110.73181397630287      130.05590409216850      111.90522862236529
H          112.29405976905913      128.75549449917372      111.84447489828096
C          111.33831291746782      130.72325568230394      113.11780460100401
C          111.79755286381724      132.13990435064679      112.77181474640150
H          110.57589042040526      130.77808677558983      113.89477939820618
H          112.16061122230163      130.11985441873884      113.49432087193561
C          112.85452782907913      132.18071927926729      111.67017334509285
H          110.93181664605422      132.70892858456142      112.42912472118489
H          112.17665612767567      132.61908084256820      113.67459194192666
C          114.16440994573371      131.47902643757050      112.04997733810224
H          112.45214449960550      131.71559218069996      110.76788986997906
H          113.07413948394303      133.22595792674701      111.43797097160122
C          115.16146347088331      131.72506805291550      110.93706232977492
H          114.54955179410358      131.89914132211300      112.97966287482751
H          114.00329909579750      130.40959137018891      112.17653987380406
N          115.02473217727258      130.91163687842993      109.89018455068556
C          115.79865798045299      131.02356974504153      108.67235087914977
H          114.44568294569085      130.08027905334626      109.98206039057776
O          109.67028872177467      130.43416667950740      111.40890462331197
C          114.89500749352040      130.77565116586899      107.46661759294189
H          116.22197578551317      132.03089554967019      108.64748399466770
H          116.62092155047846      130.29844205737200      108.69196346834741
C          115.52586864815012      131.18167010913089      106.13524679074901
H          114.62073099858002      129.72004758800568      107.45175712657706
H          113.98172563819952      131.35808988358684      107.60631264626602
C          116.77752489480937      130.39298072238719      105.74928434834327
H          114.77824452694769      131.05767983778537      105.35001634400244
H          115.78459953966009      132.24103004444589      106.18618761824440
C          116.49897954801911      128.92895025562413      105.41651026492114
H          117.22170907600609      130.86736989651149      104.87190365059894
H          117.51196355648406      130.44745671650080      106.55435961285491
C          117.78654977767590      128.22723114336807      104.98302672381693
H          116.08708148331880      128.40897564837155      106.28140298954848
H          115.76460702786152      128.85836609050099      104.61312584845946
N          117.56225907486935      126.84221960603676      104.63309720056584
H          118.20022235739526      128.73371804609826      104.10513759137123
H          118.52412810814259      128.27335445851071      105.78545163715478
O          115.98440913044806      132.64191273850966      110.97547475710229
C          118.01589517016177      125.78264060336078      105.29341321221833
H          116.98420141326928      126.69408831126601      103.80523459499516
C          117.65187190386251      124.44909163522085      104.67777777856060
C          116.27205813383415      123.98750404507230      105.14912373552377
H          117.65809186126050      124.53867035789706      103.59480429876245
H          118.40316992469697      123.71974636039963      104.98776369546087
C          116.00002463911129      122.53023697693510      104.78417236829218
H          116.22850014483296      124.08422763021727      106.23685121265936
H          115.50807358740879      124.64116409939641      104.72589993595275
C          115.99482619116550      122.25557653195430      103.27989750059554
H          116.76010673111082      121.89481673740694      105.24601674449518
H          115.03250246358427      122.23321811830785      105.19566729083090
C          115.91104273043358      120.76320779347918      103.02621846715604
H          115.17151681837611      122.76910273122432      102.78636355012972
H          116.93428813375796      122.59282663969871      102.83801011354326
N          114.98751306368565      120.38364888429682      102.14427913898628
O          118.69813054093049      125.83257140864055      106.32398884191957
C          114.80569468322447      119.00168044880999      101.75190136148348
H          114.39180430195344      121.08465632100149      101.71251438783075
C          113.35601171819148      118.72107989841760      101.37987435982578
H          115.46306061007157      118.77535016545885      100.90459604893593
H          115.12670961185718      118.37467524669421      102.58732606961053
C          112.39145668871535      118.80734533412975      102.56246222184681
H          113.05784785541297      119.44478335461142      100.61846624056984
H          113.28869774949504      117.72400882339024      100.94122904164931
C          112.61696025185016      117.69951304974843      103.59421991084741
H          112.48856716213233      119.78261056745464      103.04331540226677
H          111.37625364305968      118.72618766811340      102.17195385251885
C          111.39295802420979      117.47118084221795      104.48422281547477
H          112.84602994958554      116.76528853917037      103.07594515592892
H          113.47552014996917      117.94777129844033      104.22075008404683
C          110.29823515491267      116.67410821584070      103.76915506244110
H          111.68560400426708      116.91090161150781      105.37490736639502
H          110.98530128959807      118.42937932634324      104.80812111041401
N          110.70842951083384      115.30831112451256      103.53650755119303
H          109.38518878114313      116.66791025201483      104.37251381684635
H          110.07254950003075      117.11038794710637      102.79422867091374
C          110.89966942541272      114.78166678602433      102.32132491120132
H          110.91530503096673      114.75644536731372      104.36309149715196
O          116.64948585731135      119.96411998337807      103.60323546887047
C          111.31162403252524      113.32038269413985      102.33689291262579
C          110.07921185888443      112.43396217907353      102.52347598085801
H          111.79091504020469      113.07951575504961      101.38631906466986
H          112.02001065434649      113.13376726675628      103.14440826594507
C          110.45598111769878      110.95711022835697      102.49552661160152
H          109.59668146815766      112.67729710538778      103.47283304496735
H          109.36617190769340      112.63941495586106      101.72483802867228
C          109.23213349262997      110.05799719496082      102.69380139440014
H          110.92953477584805      110.71984323478803      101.53922786699538
H          111.18258814310936      110.76097071160875      103.28547685693349
C          109.66208645652317      108.60633220618196      102.65785013788670
H          108.77645245847049      110.26945334513384      103.66269787219703
H          108.49995352662080      110.25859350086226      101.91217938798296
N          109.53266728513481      108.01771130817691      101.46612108435971
C          109.91164667799431      106.64939843788974      101.19499041413599
H          109.26124913473855      108.57878587073509      100.67441658063406
O          110.72933953570430      115.40101822366638      101.27578301830007
C          108.90615275696207      105.93679392414050      100.29215805693651
H          110.90275781862003      106.63044054159668      100.72703391473269
H          109.98102967708965      106.14537011622330      102.16216488265565
C          108.81691778025841      106.53458107664974       98.87902116453101
H          109.21862135568007      104.89458115709012      100.23030367848932
H          107.92288345902249      105.96249736251353      100.76304065782156
C          107.60320393252938      107.44652329031949       98.70026874391154
H          109.73018663421173      107.09091560030511       98.66642814367900
H          108.74641654847387      105.72725296328252       98.14858948235978
C          107.44723299146420      107.98444983488665       97.27678135791761
H          106.70243279041475      106.87944380928492       98.94466729124797
H          107.65566536657849      108.28188805036827       99.39750391133994
C          108.57992590875911      108.89459631677805       96.81777968753610
H          107.38809660586594      107.14940913713264       96.57739229644002
H          106.50986114064490      108.54034461170484       97.21387036017663
N          108.73377526727415      110.05268718512188       97.67812163570163
H          109.53552239989003      108.36157372820412       96.79800222172595
H          108.38551638446461      109.23525038005647       95.79302732061812
C          109.74754577038917      110.91060228428819       97.51792550835631
H          108.02179494722185      110.23449519730673       98.37617337544707
O          110.11206820649070      108.02649505279373      103.64408364320819
C          109.78495142293251      112.05560003455953       98.51150046390607
C          109.72845828871584      113.41192989045837       97.80429780851817
H          108.95632700123163      111.95639857149813       99.21042545128982
H          110.71893054262813      111.97263299485630       99.07129820833417
C          108.47895451109288      113.53719965447148       96.93577646179459
H          109.74949999148009      114.20532585781072       98.55475456717441
H          110.61105196149457      113.51606475276188       97.17143134436365
C          108.28630091506672      114.95151746822943       96.37434913557323
H          108.55678912035572      112.82450743687342       96.11170518831106
H          107.59697433590728      113.28116682089191       97.52606222894460
C          107.60003389026329      115.82733183509215       97.40219894437595
H          109.24216441154141      115.38297016637722       96.08245092802970
H          107.63334010535036      114.90160290725677       95.50154234665348
N          108.33023020305200      116.80890960805569       97.90870617324624
O          110.58618038152555      110.77411604982620       96.63003369082105
C          107.86105144929229      117.73574181566806       98.91833118356497
H          109.28381766210899      116.93674086991678       97.58157154486504
C          109.00576019461488      118.20376057014650       99.81201750721465
H          107.37982060203760      118.58795139177622       98.42732168516001
H          107.10451902418892      117.22831109928276       99.52104723746699
C          109.97179480753478      119.17868134151401       99.13492783141803
H          108.57363242642438      118.68109277135669      100.69442699351069
H          109.56214752263845      117.32436699071530      100.14563834621083
C          109.34374065258191      120.53877054416901       98.83568511709043
H          110.81580030925851      119.31305203081334       99.81105535668540
H          110.35313553530591      118.73838690315858       98.21374987722363
C          110.33160572105041      121.54888051620709       98.24614055335843
H          108.53704285919082      120.41444526322228       98.11179397891324
H          108.90415005749171      120.93792192295275       99.75042595520544
C          111.51625219638190      121.88395101427361       99.14500404130757
H          110.72968601458051      121.15345314568492       97.31081740011963
H          109.79228638749026      122.46905084735066       98.01922750745857
N          111.09298398563385      122.37099852055862      100.44482854193539
H          112.15681354109857      121.00669457038629       99.28231049569783
H          112.12952331138996      122.65800714569187       98.66961631598151
C          111.95825992719278      122.63690203855356      101.42801509041109
H          110.10429737865371      122.36100652156695      100.65810750764871
O          106.42539583579573      115.60059132667131       97.72908436490704
C          111.29487502508329      123.10264623532311      102.71136220897741
C          112.27971308678909      123.67876937571366      103.72207884432267
H          110.52591557870990      123.83757361021094      102.46851814000146
H          110.78945566856976      122.23675019029893      103.14581197295512
C          111.58314640835425      124.07115099645442      105.02144089446035
H          113.04874854179937      122.93392538433754      103.93458435094809
H          112.77928195231350      124.54678379566677      103.29220297939695
C          112.54598878926340      124.73846061404784      106.01056233838594
H          110.74955246390022      124.74616193068050      104.82165411768088
H          111.17548538818528      123.17280091309101      105.48911199664666
C          112.85880686014958      126.17938068342578      105.64147403834934
H          112.10251604168897      124.73282698127454      107.00693566008181
H          113.48497251152433      124.18399706867689      106.04177019087066
N          111.91952086800764      127.04968138659174      106.02545633553203
C          112.03112212615967      128.48912216610012      105.87807530552681
H          111.00224371530375      126.69515247851652      106.27742169657253
O          113.17455439761429      122.51762301638514      101.29251477123067
C          110.73997031796834      129.16556937469622      106.32364154925335
H          112.87354651540106      128.83509786184450      106.48590724187906
H          112.25477865714647      128.74309834278134      104.83802062935867
C          110.76330086563779      130.66972670367662      106.05690490952743
H          109.91080462981543      128.71705946755785      105.77439616511114
H          110.59313440013820      128.97712697082233      107.38735943869746
C          109.51784696516411      131.38964389571674      106.58439951851619
H          111.65096884869403      131.10780593037930      106.51604501591349
H          110.83544724511036      130.83126537990310      104.98017367384202
C          109.57337074986020      131.65215715071105      108.08903848431198
H          109.41943604542743      132.34993255767262      106.07512386034371
H          108.62773567683273      130.80444761226346      106.34509190238964
C          108.30326508036897      132.33221850151679      108.59455506052851
H          109.70724345167072      130.71976062043180      108.63885356576586
H          110.42794033435359      132.29451978665190      108.31104725718988
N          108.42138273137903      132.64572134626411      110.00293769670542
H          108.11723200044551      133.26969898130523      108.06339784503135
H          107.43752807105359      131.67761396116262      108.43504818640027
C          107.90186163330470      133.74203682579721      110.56304144797848
H          108.88653479223480      131.94728401173768      110.57377479550195
O          113.89445262633893      126.50852612413767      105.06405143373641
C          108.16008792437734      133.89220926200468      112.05617032524759
C          107.73056497780446      132.68283353342915      112.88677084672761
H          109.23137942798643      134.06442430556953      112.18720890443599
H          107.63570407498504      134.78905420898141      112.39007058280197
C          108.16344367821961      132.81824262444323      114.34669862641501
H          106.64630683758507      132.57295548170762      112.82860346466853
H          108.18372735631364      131.77820971584524      112.48221773851800
C          107.85965731678810      131.52771611677460      115.11464843405064
H          109.23510184996967      133.01812235198253      114.38630540357404
H          107.64986913106456      133.65831112877737      114.81786537348320
C          108.50559253628695      131.48411232668994      116.47704264093079
H          106.78558017563721      131.38166094840301      115.18939018460604
H          108.27691753949330      130.68743741853339      114.55229317328418
N          107.75507146837602      131.14533978586394      117.52453514392366
O          107.29210557189143      134.59856017339953      109.92503926418796
C          106.33443849350951      130.84532575781265      117.57389290322595
H          108.24276110173584      131.12133050658326      118.41239295852515
C          105.90342477977777      130.50887143680046      119.00023001806893
H          105.77273366603222      131.71792504107702      117.22574609987110
H          106.10920392924140      129.99713624794802      116.91892290499371
C          106.40892517971412      129.14045052501007      119.45934287290589
H          106.26259842779535      131.28385053694922      119.68046633716661
H          104.81496284703348      130.51788855272835      119.03278050596087
C          105.90286438843310      128.74425191871342      120.85438117865129
H          106.09811345852171      128.38831757479667      118.73297959945860
H          107.50068755677025      129.14876522870674      119.46811034623826
C          104.69532677106821      127.80466677405182      120.84551841656456
H          106.70880456716529      128.23825988069885      121.39018991023217
H          105.65067699637935      129.64356530894685      121.41896758785794
C          103.43273090346378      128.41772635244217      120.22366701626231
H          104.95390844896664      126.89141162228914      120.30358833565347
H          104.46827237058611      127.51808615538567      121.87808589934242
N          102.22501344310695      127.61977444855901      120.36425325954409
H          103.23539027208545      129.38490762863188      120.69712246287732
H          103.58712010000927      128.57883999273764      119.15422790925506
H          102.06709790939966      127.41275554787251      121.34493606880667
H          102.32940686659168      126.72861175269449      119.88655231367176
O          109.71205322395230      131.71793896059711      116.64285221301866
C          120.52405541100359      129.05151786827020      109.32697040413365
C          119.76707987588770      127.91106695374708      108.68756712537326
C          121.70497647479247      128.50559921986161      110.14113264989356
C          122.86139880735416      128.03842632398388      109.26114953436246
H          122.06115121751891      129.29148726400879      110.80978554569641
H          121.35644748245966      127.66719333720076      110.74750690914688
C          123.95358519136498      127.40883793110036      110.11909868301542
H          122.50564582091496      127.30450500684940      108.53549942961953
H          123.27449145558849      128.88090910171115      108.70280246519820
C          125.16919965610353      126.98585160356150      109.33151604515221
H          124.28082945545255      128.11166767911271      110.89037498354254
H          123.54198127120198      126.52714358094281      110.61562019881120
N          126.16868182334946      126.45248717234411      110.04948826948439
O          120.12205991891017      127.68398778925578      107.44571427472216
O          118.90745246208958      127.27137794710703      109.26228898931419
H          119.58785971145429      126.92443788343417      107.02898339771566
H          119.84167767299708      129.58471829427762      109.99023783249170
H          120.88516073741305      129.72191267173704      108.54798258048491
C          126.21812539157938      126.31777588943368      111.49107377762292
H          127.02191755424305      126.22942623023930      109.55332113364740
C          127.52530257938589      125.66138736874629      111.92223993768118
H          126.12617902640919      127.30430615510433      111.96028092731930
H          125.37038265127022      125.70395773965046      111.81085648217658
C          127.70215958653213      125.66639387933849      113.44070848404996
H          127.55762156021613      124.63342644532695      111.55616896382460
H          128.36258824955590      126.19509231813147      111.46860844848678
C          126.69902542089920      124.76869403288076      114.16300050143771
H          128.71180240418153      125.32131283845612      113.66867780020560
H          127.60603674057604      126.69006680579294      113.80810686016657
C          127.01170023506572      124.64979309823707      115.65375140465400
H          125.69083801054880      125.16759940213709      114.04116418160936
H          126.72201381732663      123.77319096197922      113.71560858154179
C          125.95040447539267      123.82585396231538      116.38397977612229
H          127.98152148550543      124.16580162455497      115.77876246611754
H          127.07014759045819      125.64548987771086      116.09646168865272
N          126.51115498927585      123.09041386244482      117.49780947851387
H          125.13388845518013      124.47323376193076      116.72650212566458
H          125.52771013278195      123.08103178261091      115.70438993572672