3536
 energy: -3716.259515470293 gnorm: 0.000975793595 xtb: 6.6.1 (8d0f1dd)
C           62.73027051003879       64.04171281772462       66.80645248203790
C           63.23854033563145       64.42166371972073       65.41808098190603
C           63.92773227517227       65.78428607895729       65.48358415315913
C           62.10419957917701       64.47320907803240       64.38685384633763
C           61.29894914567635       63.18138083829057       64.20983308887969
C           62.20393528216884       61.99942253775939       63.86083203225444
C           60.24357423667382       63.33102454920542       63.10193679080772
C           59.21293191209292       64.45995615814412       63.26055198938860
C           58.44617691292566       64.34346824237430       64.57394280570644
C           58.26117209680908       64.40529761330987       62.05430762143938
C           57.11366892282036       65.42636121875805       62.02738166666751
C           56.17790309530138       65.07967180849553       60.86821370291847
C           57.64681446583440       66.85659420557724       61.89603138111131
C           56.60545562623009       67.96650732076951       62.09651034843838
C           57.23587053466235       69.31173966185854       61.73287347480665
C           56.05919687578859       68.00123550809410       63.53795371740512
C           54.60232394078709       67.53899193267158       63.67255904355567
C           53.66115450486673       68.58953383329472       63.08270707083864
C           54.22068014901316       67.30155466310239       65.14193288381557
C           54.83049300854124       66.05774022972626       65.80507668213731
C           54.25885265835772       64.77697730894387       65.20377611108188
C           54.56395823565188       66.10590345166929       67.31678489156619
C           55.37455162190015       65.12780732545308       68.18505084859932
C           54.79183815059276       65.14119964075553       69.59726271183381
C           56.85681216676494       65.52350852469498       68.18961825396526
C           57.78710674407894       64.78386800853067       69.16495426437966
C           59.15811972699701       65.45800987123133       69.09840632298631
C           57.86374379387676       63.28347997845515       68.84931843214133
C           58.79445963846440       62.48024104333297       69.77876601403216
C           60.15773166367881       62.25282731950440       69.12010521636039
C           58.23092344050221       61.09972309280098       70.15284724439149
C           56.95386836951405       61.05605007477582       70.99977272477803
C           57.09702655153691       61.87977064751356       72.27937270244466
C           56.62548092671221       59.60318503903584       71.38669375930813
C           56.33450300842649       58.63878229507214       70.22996677072426
C           55.13762539552716       59.12856773706795       69.41392279309119
C           56.03730733744685       57.22043298543204       70.74686151239365
C           57.17098452381866       56.50825590141373       71.49419339842501
C           58.40706230330856       56.33425043051169       70.61103379288042
C           56.73231930967712       55.11812152666275       71.98504792000541
C           55.56093810310927       55.06232487330126       72.97700684037613
C           55.74200769985325       56.05450765646140       74.12613033581708
C           55.42990017846216       53.64739879421816       73.56763894105748
C           54.89152052680141       52.56342733489239       72.62175712509750
C           53.39133810007186       52.74943333343646       72.40354320261403
C           55.16855331152193       51.17537399676685       73.21853895183339
C           55.00140221916921       50.00730504239498       72.23622291713495
C           54.89916300550058       48.69653177021130       73.01736127618504
C           56.16240137119981       49.94261270167436       71.22489649013286
C           55.76187076138230       50.20000450537412       69.76706045425539
C           54.95353814029497       49.02789880620132       69.21404993771837
C           57.01803911703279       50.42289992673565       68.91169058221199
C           57.60984712563488       51.83281292031663       69.05348243406209
C           56.93124723854823       52.78325711375722       68.06914728437788
C           59.12643606068811       51.84131407893375       68.82279089795321
C           59.95547216765477       51.28090222759223       69.98669023629522
C           59.95933921749165       52.25105365813526       71.16617565472772
C           61.38846960598533       51.00106841599480       69.51445564368566
C           62.24579237883562       50.21105089126005       70.52144444647973
C           63.38472055941736       51.07642539731467       71.06254311633380
C           62.83789621828562       48.94099815491436       69.89494068076542
C           61.81923117745370       47.85474390560777       69.52994330083104
C           61.18771702434552       47.24615442325796       70.78261677162570
C           62.48440917843833       46.72945900868779       68.72256292546055
C           62.99723270799900       47.09553004673419       67.32517316254666
C           61.87260569746749       47.61819945260451       66.43145164847088
C           63.62714055107863       45.87008112645202       66.64613950689025
C           64.90143881015540       45.30529831135863       67.28422276539594
C           65.98536128329913       46.37626742446562       67.42129658401944
C           65.47010414815988       44.14701783437198       66.44690260571268
C           64.55199382220803       42.93918087184946       66.21565722588319
C           64.06424135841841       42.35169267040423       67.53977078233835
C           65.29474620797990       41.84958932328283       65.42321248760476
C           65.50052964725937       42.14636606445361       63.93158427838037
C           64.18334675322021       42.03430200007937       63.16679826820533
C           66.53775399222529       41.18817566422305       63.32211945311246
C           67.26902822027850       41.77441938706077       62.10461328887805
C           67.85043957974037       40.65558016586192       61.24279739743402
C           68.37618138441262       42.72955698081688       62.57027203190077
C           68.92092523699158       43.67342435480759       61.47969419315174
C           70.43486452148188       43.52367842939553       61.33509958347364
C           68.56949375825434       45.13476797844892       61.78797674991593
C           67.08089786715648       45.45387818749706       61.57323364625714
C           66.84295497315325       45.87033090277487       60.12487357767051
C           66.62125687699185       46.53994327816839       62.55249219588188
C           65.15911533303185       46.99103492153387       62.41893116981424
C           64.90060748961939       48.10590127870545       63.43211787827519
C           64.18027633435047       45.82484693760694       62.60268566147496
C           62.73892393608791       46.18585672086819       62.25263101767486
C           61.80070780327502       44.99014185246087       62.35882370834769
H           63.54049154943660       64.09135283774270       67.53085596005907
H           61.95015310831124       64.73190700614344       67.12253315868911
H           62.32885676511028       63.03214647394690       66.82013219221082
H           62.12156657688008       44.18907027280699       61.69666605885959
H           61.78114167280145       44.60756204404146       63.37732860206380
H           60.78776195101651       45.27651998359248       62.08280818903366
H           64.47837933212298       45.00185406057932       61.95289938394829
H           64.23107989770416       45.46470973376632       63.63196528592538
H           66.77737889436933       46.17464495273657       63.57183732531724
H           67.26174812700853       47.41568161304787       62.41861806254867
H           66.51056389163702       44.54434218981197       61.77325050000530
H           67.26372009482995       45.13400888455487       59.44443175078305
H           65.78192541771458       45.96004957245687       59.91032540560863
H           67.31593019727252       46.83000957053073       59.92794058903057
H           68.85398161103754       45.34859818138907       62.82078676178997
H           69.16568323981082       45.79064018098238       61.14908514529908
H           67.99573012138853       43.32858583035861       63.39877802469197
H           69.19335099381640       42.12462220176783       62.96865406935121
H           65.00991291966808       47.40911072828497       61.41809349716772
H           65.59567965608463       48.92678363888949       63.27439611243263
H           63.89303005356942       48.49921771756807       63.33363879031471
H           65.03106973575841       47.73981460242158       64.44842296936537
H           68.46566363532504       43.40793698285691       60.52002918392707
H           70.69910790809161       42.49204839000591       61.11388820266326
H           70.80782717234088       44.15121295630039       60.52804659654263
H           70.93363352336556       43.81781302243609       62.25644523319458
H           66.54833181538572       42.33105527332001       61.49605469939797
H           68.41042183654932       41.06359923791570       60.40448537719065
H           68.52162223657614       40.03454859768732       61.83260676806029
H           67.05811464505426       40.02334345186991       60.84673643165218
H           67.28657132922771       40.92322564078115       64.07182905401694
H           66.03161587092050       40.26450131565218       63.03300760057763
H           65.87282769552820       43.16934449618726       63.82892292399622
H           64.34368482785277       42.18773812277295       62.10195672091191
H           63.74859686329486       41.04591135521577       63.30412977916858
H           63.46590634716910       42.77441349004927       63.50781482771427
H           66.26854737990315       41.69437566402932       65.89464455291446
H           64.74150526783079       40.91105769462200       65.50933049907620
H           63.68040459537337       43.25560388734685       65.63667646194293
H           63.45498378524731       41.46766150123770       67.36086978934127
H           64.90990557780836       42.06293996871147       68.16057116547022
H           63.46192887639130       43.06920152005792       68.09112835381015
H           65.76938054803149       44.54990082272231       65.47637579674964
H           66.37681789659068       43.78965955531855       66.94293804581041
H           64.67202102103553       44.92952420186131       68.28474935797611
H           66.91259394855707       45.93190238865026       67.77707627822113
H           66.18321322660488       46.84685622910456       66.45972531569679
H           65.69247514537423       47.14616916927583       68.13003220379167
H           62.87016210750837       45.08512884969535       66.61322204144183
H           63.86119123817488       46.14236440628317       65.61518395226359
H           63.75354892851330       47.88026443618254       67.40576235923413
H           61.47012314750344       48.55375347286733       66.81107880403572
H           62.24523675774090       47.79819914381059       65.42532665151523
H           61.06376522153986       46.89382164074367       66.37157988970820
H           63.31801798560510       46.34477099810446       69.31371919562820
H           61.76294886039825       45.91511217467183       68.60983893323586
H           61.01594470039694       48.29676016443078       68.93483322085741
H           60.64996200167766       47.99576139793157       71.35678148291782
H           60.48100796037849       46.46445589398999       70.51043428774280
H           61.95203589681346       46.80748287097534       71.42111050793623
H           63.38713237745149       49.23764200770391       68.99920289810503
H           63.56016187750254       48.50968939657912       70.59313974775925
H           61.62040142339579       49.91826477529895       71.36885902179439
H           63.00022169345046       51.99888622321570       71.49108531409009
H           63.93910000054207       50.54664167732501       71.83466983857925
H           64.07874486691929       51.33027945217920       70.26304521195993
H           61.33885219232858       50.44927024820157       68.57448954342344
H           61.87066016199724       51.95496995201177       69.29411430494316
H           59.51015087637551       50.33496750509376       70.31308025639407
H           60.41225264666906       53.19657808183536       70.87322381153031
H           58.94868795905179       52.45181625073294       71.51276101217064
H           60.52332459013433       51.84402578597522       72.00151210259507
H           59.33723290347481       51.26442665194529       67.91898618565324
H           59.44956053812252       52.86821074144927       68.63531470464095
H           57.40981704434952       52.20103465430366       70.06287617966883
H           55.85098446296016       52.70758794320862       68.15220345198341
H           57.21848931062197       53.81332120194040       68.26586397296103
H           57.21546915348990       52.54024204396503       67.04754853981770
H           57.75908301653668       49.67232315852823       69.19210723795520
H           56.77392130663834       50.25520016754665       67.86039530513975
H           55.13839190287021       51.09958283023379       69.72332604150129
H           55.57241644735396       48.13457249504776       69.16240656232810
H           54.09591471299909       48.81179375888954       69.84614348254685
H           54.58986813054407       49.25080558305767       68.21297535381716
H           56.92484376480731       50.66759872019525       71.51193979579173
H           56.63121093009828       48.95714036492085       71.27362578697792
H           54.06239044679236       50.14545333413194       71.69340198618791
H           55.80238845125158       48.53255157117081       73.60184146075220
H           54.05188696310135       48.71752958908718       73.70010883950657
H           54.76908331293685       47.85555783561359       72.33983475890938
H           56.18726675114950       51.14472785302312       73.61352640982442
H           54.49305633469796       51.02829506245800       74.06519014521973
H           55.40348441292023       52.64106485176149       71.65894148358969
H           53.01313302617655       52.05702905910199       71.65592065264369
H           52.85171331582421       52.57685416022023       73.33276317903751
H           53.16934526666024       53.75971246994745       72.07062644521665
H           56.41497595147165       53.34574947753885       73.93317169956987
H           54.76667643396882       53.69018124212977       74.43533848952340
H           54.63581866282038       55.31432283700136       72.45093272573794
H           56.68712916319901       55.87717922949303       74.63506692979844
H           55.72608443850471       57.08064370098653       73.76981752236620
H           54.93828664317819       55.94120190359611       74.85093015113293
H           56.47887823452104       54.51429689862625       71.11053899388637
H           57.59936080039347       54.65429334173931       72.46362260261073
H           57.46135699679918       57.10314332917511       72.36318234354337
H           58.81259942885566       57.29502002451479       70.30549838054833
H           59.18457957984381       55.79970295121693       71.15274721302369
H           58.16149702999557       55.76049594944344       69.71948912359792
H           55.16993431502276       57.28081976340457       71.40551770562439
H           55.75808425343184       56.59868187381787       69.89162443790225
H           57.20377500431874       58.59021460064231       69.56917423896881
H           54.84304357712698       58.38564846796258       68.67529540155421
H           54.28850679137111       59.31489712896229       70.06742005771726
H           55.37150124390054       60.05035555758307       68.88717549677393
H           57.46725863982745       59.21977938600412       71.96648139746534
H           55.75141947348859       59.61200625617209       72.04413651295928
H           56.11697151030165       61.46829625027965       70.42859191448247
H           57.97786701581938       61.56884470053561       72.83746480104577
H           57.18654033397621       62.93948228304078       72.05521883656479
H           56.22477602843883       61.74275898726994       72.91559802145895
H           58.05578719943369       60.54863601981673       69.22748381526181
H           59.01000976927795       60.56614387742544       70.70467118951109
H           58.95138790754798       63.04854252499496       70.69936761416123
H           60.61227593115367       63.18882388440396       68.81433066165299
H           60.83789976147298       61.75607426614621       69.80950075162863
H           60.04717751429806       61.62272591766260       68.23940833482855
H           56.85459004800280       62.87658141894128       68.91653257654704
H           58.19401243243662       63.16086262095156       67.81606201409835
H           57.40775827204055       64.90649036957677       70.18423590676385
H           59.83902513411098       65.04717473826913       69.83811036182986
H           59.59492326220423       65.33243063359129       68.10952324892041
H           59.06175096326293       66.52485965675719       69.29159831248892
H           57.26030610413603       65.38853886746539       67.18457683284825
H           56.91297572024705       66.59005254835557       68.42462471241680
H           55.26997558995740       64.11777230121317       67.77812614194856
H           55.24150212261048       64.36842701130335       70.21558712538148
H           54.96608679288781       66.10735860908929       70.06700102984084
H           53.71905026257927       64.96666816863731       69.56426601121427
H           54.76507444206175       67.11717252700893       67.67955114293385
H           53.49940088100232       65.91454788609576       67.47685330226548
H           55.91055682726429       66.07051887435618       65.64220984692101
H           54.70683516211248       63.90415678870557       65.67035081034192
H           53.18174117383611       64.73308973286832       65.35562299278475
H           54.45319461827355       64.71975762879451       64.13613654131646
H           54.51665397871341       68.18635633495796       65.71147887039903
H           53.13226457634980       67.22300913709431       65.21031499533245
H           54.46982401995346       66.60948051147911       63.11213407265056
H           52.63204031237321       68.23718608158161       63.10159777429356
H           53.71508763619024       69.51129043189870       63.65878752545050
H           53.92371996732225       68.81860201492796       62.05273879388729
H           56.69695971235940       67.38536092284438       64.17252308482627
H           56.12245593632869       69.02043991860033       63.92579306846082
H           55.77722954428673       67.79280616303251       61.40401080081649
H           58.08135965646926       69.52454357359854       62.38466477103324
H           57.59057638436203       69.30476531496025       60.70333016930353
H           56.51295180741118       70.11815272939114       61.83768828365674
H           58.44333202435753       67.01189421313481       62.62610111198722
H           58.08975151122958       66.96288465850975       60.90219815342110
H           56.54542428732026       65.34014554247116       62.95586311433860
H           56.69770480546898       65.17458376048695       59.91766490926384
H           55.82051688949304       64.05605669147414       60.95971226182900
H           55.31237195572998       65.73746854586008       60.85356734173631
H           58.85116744325898       64.52930493649832       61.14216465400091
H           57.81877038795259       63.40594170921845       62.02308594649777
H           59.74297932701663       65.41643751651252       63.24682829126801
H           59.12686698051930       64.29354285586419       65.41980750534705
H           57.80468137001053       65.20821527770680       64.71831584049619
H           57.82369400904283       63.45128307879818       64.57099578198736
H           60.76594329983067       63.48269856240870       62.15313718928453
H           59.70110548762354       62.38415349353600       63.02828923418908
H           60.78930159158045       62.94571800609797       65.14787999172577
H           62.87590290410003       61.76262429646724       64.68126915539384
H           61.60211177672389       61.11689835285046       63.65445280437306
H           62.80045263353787       62.22344532381959       62.97852262205757
H           61.42395796769375       65.27419442358136       64.68380410274212
H           62.53002504808026       64.74289289014517       63.41685541949978
H           63.98086604956332       63.68302554530978       65.10027851451235
H           64.30502955569419       66.07588935140669       64.50663087952248
H           63.22860431356226       66.54793897698441       65.81881831823416
H           64.76371796235658       65.75610408001457       66.17924040542410
H           62.37326011954745       46.97396940310422       62.91262531280014
H           62.71757326365942       46.56554024678774       61.22968266786506
C           62.28616112239634       71.05527940351304       50.80099465362230
C           61.00715733496742       70.22274619548473       50.76916987371510
C           60.12994237393757       70.66573455544599       49.59863019606192
C           60.21200988870439       70.34407471622798       52.07399393004535
C           60.92197015231766       69.85475619796743       53.34224094056110
C           61.42716023759690       68.42017882813649       53.18302856939334
C           59.97010860483793       69.91530929992048       54.54737976428545
C           59.47170090786462       71.30810139118876       54.94875447778062
C           60.63974614266068       72.23457602494152       55.29084947535350
C           58.53722096630485       71.23973413897916       56.16736619696737
C           57.22434823970263       70.45557485299416       56.01480172464347
C           56.34535369173712       71.06269921404277       54.92541432825057
C           56.52308178566850       70.46370883921709       57.38297576448039
C           55.14134830774973       69.80037623848500       57.47295408088971
C           54.52459267143528       70.14844100415299       58.82898226598471
C           55.21823988307091       68.27902269242045       57.29771705859831
C           53.86762814379657       67.62354780622780       56.96742193271578
C           53.88571504207395       66.15184846135622       57.37208902533894
C           53.55737231690154       67.76761280428622       55.47302539815389
C           52.10132765491370       67.49780591896864       55.06216651379001
C           52.05291650005015       67.31655685664508       53.54571586781029
C           51.19855663125628       68.65580586054617       55.50392455981230
C           49.68563622504166       68.43533177626215       55.35013731023211
C           48.98875943012006       69.79520557090081       55.40026216560926
C           49.14740231183468       67.50116684725702       56.44212676318988
C           47.70765086384674       67.00769699083118       56.22642562735131
C           47.13434107671461       66.48312319465917       57.54206824744511
C           47.64915183690938       65.90979880074218       55.15756091282082
C           46.23302508768526       65.59703850869431       54.63953509100689
C           46.01212751847982       64.08431101443870       54.59312213661762
C           45.98381631273114       66.18522507566118       53.24433983309174
C           46.04571190676474       67.71371655438067       53.15105790438576
C           44.93029239801155       68.36190246303129       53.97086555121810
C           45.90640796563812       68.18641878873620       51.69684804460834
C           47.01130632253992       67.75476046268982       50.72565164278026
C           48.38911893072587       68.17915319343327       51.23374455581492
C           46.78582150306236       68.37013837141609       49.33605643440295
C           45.43573677722384       68.06658152270523       48.67701612627773
C           45.19356558881864       66.56084073940099       48.56220528985511
C           45.35828530435126       68.67894789843338       47.27092251325632
C           45.52882044034337       70.19949720604909       47.17016669725741
C           44.60506712333416       70.94296713535941       48.13432043536536
C           45.22588124816654       70.68889977349056       45.74525201596508
C           46.03584595041583       70.04980385235612       44.61022528762243
C           47.53746709981128       70.18100556749735       44.85543442739057
C           45.66161196253318       70.71921480425409       43.27863175981742
C           45.96817452382829       69.84800154942275       42.05107713517807
C           46.13776384495985       70.73729828400859       40.81939768034075
C           44.86672635300739       68.79479042277389       41.82493117947646
C           45.37574573951257       67.37709168731737       41.53702319050461
C           46.33145898836287       67.33774578415249       40.34504046400558
C           44.20985966930184       66.42337802407818       41.23470202085387
C           43.14256745967170       66.25860622206471       42.32239026201857
C           43.76311313396923       65.79558898434900       43.63982059168785
C           42.08662057856818       65.22754511049061       41.89196640467492
C           41.34690202603681       65.51644001902226       40.58126217444367
C           40.61974274170985       66.85979280289432       40.63853279615357
C           40.32011298440414       64.41803456734388       40.26434164969692
C           40.84913707013355       62.97883315681936       40.17795643036933
C           42.02486779140190       62.87020987113393       39.20970089472405
C           39.70206713957261       62.05662734037492       39.73589975178836
C           39.93193449066457       60.56078174706627       40.00206550866051
C           39.06345525066721       59.73544912936239       39.05322237291443
C           39.61275513710316       60.20582760567150       41.46004802453521
C           40.12911175473410       58.82145388496620       41.89974858550674
C           38.99854048545301       57.99454368438857       42.51401875845908
C           41.28257302711839       58.92837829990518       42.90664516535503
C           42.56464470974750       59.56069353755362       42.35650028451851
C           43.23129768672937       58.64632612900856       41.32719729206550
C           43.58294989593589       59.84488082967789       43.47033986775855
C           43.17033103082889       60.82254409852630       44.58325125930595
C           42.68143833633295       62.14506789636929       44.00404097929646
C           44.39475290564995       61.01772277812012       45.49141361691122
C           44.28072004027381       62.02911093525159       46.64017141751905
C           45.65960407049847       62.18231541012630       47.28128760581605
C           43.23547351808033       61.61153727075496       47.68025827793460
C           42.98931099233827       62.67071893051638       48.77311246565904
C           43.54665921369025       62.21836114287061       50.12320214913051
C           41.49935354693385       62.99145055786836       48.94685423647027
C           40.82211418341885       63.69332655447238       47.76274936253073
C           41.44068645218111       65.06249823931240       47.50132323412019
C           39.32195326697502       63.81273963366827       48.06545559990246
C           38.44206457917609       64.45568075700461       46.98337725782029
C           36.99649805244334       64.45833883022001       47.48126893842949
C           38.58109765101688       63.70898320871316       45.65198369235356
C           37.68870475587914       64.18889788070058       44.49906623807748
C           37.89477033833778       63.25182242268409       43.30905829850985
C           37.98999510494554       65.64475730191687       44.12676923513830
C           37.06215822707060       66.21104867762732       43.05192140636056
C           37.18123358467713       67.72734199376745       42.94557624407409
H           62.79669891134527       71.00084078073330       49.84143980928483
H           62.05445856197476       72.09885906618854       51.00512424147568
H           62.96893776472392       70.69792465622187       51.56744811133599
H           38.20396427745268       68.01818873299473       42.71492576642118
H           36.53447594291909       68.10840661421211       42.15864944883226
H           36.89624558664707       68.20249425032976       43.88224756727104
H           37.88395822639891       66.26218695572493       45.02093921978175
H           39.02783218502105       65.72457562798117       43.79157654173122
H           39.61754239124393       63.77729180994117       45.31495047367371
H           38.36279086985339       62.65287913593404       45.83202357027754
H           38.75661267016923       65.49457652389697       46.85269894844238
H           36.60980961797293       63.44231613357006       47.53114348480437
H           36.94328283819618       64.89410926992640       48.47699894237752
H           36.35407936326896       65.04107814367094       46.82682149542479
H           38.92971178911656       62.81300398213340       48.26735233818329
H           39.20596955454315       64.39672767763372       48.98268261658995
H           40.97190605234430       62.05516548327258       49.15040785001217
H           41.38852203969333       63.62785588954912       49.82935976252431
H           36.63994468262077       64.12018786841912       44.80379550417302
H           37.68744670123346       62.22345704843608       43.59792745740847
H           37.23284196104960       63.50879561362583       42.48657277145034