3795
 energy: -5102.973311082696 gnorm: 0.000949318910 xtb: 6.6.1 (8d0f1dd)
C          136.63752168594200      109.08852837062746      121.39808379516370
C          136.21051319780520      109.58047490160649      122.76708056626731
C          135.85039506045149      109.83775188117143      120.31556813084441
C          134.36460790488417      109.49123197994817      120.36998785113764
H          135.99973812672440      110.91011609719720      120.46018475539297
H          136.25348482332322      109.56034876552043      119.33776049628506
C          133.55095751735607      110.09596162258678      119.21790153812326
H          134.25442672740576      108.40704091590666      120.31467067001938
H          133.94656722587885      109.81590199082667      121.32431480837933
C          133.26861521933395      111.56753589672779      119.41332828194800
H          134.08244055901042      109.93654090518466      118.27755159563729
H          132.59767444314497      109.57082115191386      119.17034206349670
N          134.24148591632988      112.40266471988684      119.00852656272930
O          136.78196200080910      110.72890424616438      123.07336544268212
O          135.41825553538897      109.00545042833119      123.47241125153073
H          136.45571268371404      111.08193587367050      123.95146449760951
H          136.44514054285378      108.01823997557864      121.32762094290396
H          137.70339617165413      109.28261256418531      121.27753763346942
C          134.19897776032053      113.83883570177292      119.20499348264993
H          135.07381873328467      112.02382260188219      118.58577677191496
C          135.59096651444537      114.37586837411823      119.52410264990201
H          133.80892263921427      114.32780814820640      118.30351120140524
H          133.50664151453734      114.03058368658036      120.02735610338021
C          135.60678414432348      115.87968312345293      119.80641639991214
H          135.99254554033533      113.84291650250717      120.38946729720485
H          136.24593975722684      114.17056984026652      118.67264073776373
C          134.95946272515496      116.24751051172977      121.14358435210228
H          136.64979760138687      116.20424759567017      119.82392947087055
H          135.11110939344962      116.40456068935372      118.98824586559927
C          135.43994157903492      117.59427160911285      121.68761252026741
H          133.87341289911257      116.26752977145816      121.05579988554186
H          135.21808584213716      115.48055630550670      121.87715290594269
C          134.97334941203388      118.79851715760446      120.87815885129125
H          135.06850746011844      117.71156398731063      122.70754875288195
H          136.53130255272035      117.60234471469896      121.72512878525319
N          133.53881840370957      118.96592226022463      120.97263600997566
H          135.47223256782684      119.70256755053009      121.25387500510395
H          135.23729422185281      118.69599208516188      119.82169286394416
C          132.84238843717415      119.63873144389439      120.05266888957291
H          133.07391474382649      118.55157252576865      121.77800990488845
O          132.22276720570713      111.98557369132142      119.89328952878962
C          131.34819408502932      119.68832783040294      120.30067123364491
C          130.63715936101403      120.64638828448778      119.34908431826774
H          130.96727461890339      118.67308195544342      120.16995060409928
H          131.15763142138474      119.97908121010396      121.33484461874437
C          129.12319827172618      120.64661432796389      119.55321180780466
H          131.02067156971435      121.65292325455106      119.52538436078518
H          130.87866415962461      120.38161337025740      118.31892924753761
C          128.41373144277190      119.43187513569751      118.95447260153915
H          128.92033219803457      120.67092732586921      120.62629046074980
H          128.70224167069324      121.55221752246754      119.11338581799863
C          127.11417929420836      119.11233968893707      119.68008160938699
H          128.19086525754835      119.58231028144230      117.89624426186089
H          129.04753576307269      118.54631041554705      119.02144470704832
N          126.55544869522448      117.96352039402197      119.27894278022430
C          125.35115436931197      117.42301619657289      119.87792993140449
H          126.85655110277536      117.55079945505179      118.40209801592751
O          133.37323811881313      120.15197134295873      119.07268802108203
C          124.68317332451250      116.40851400327618      118.95308042109382
H          125.62158505808002      116.93544443127193      120.82446417309542
H          124.67853157393844      118.25244976950003      120.11597205331077
C          123.74651565481882      115.46155624720942      119.70103994929001
H          124.13763817336060      116.93650276460232      118.16941113010360
H          125.46378884034152      115.81742018632433      118.47181355404068
C          122.60159280959364      116.18872146703437      120.39514206317499
H          123.32084153021292      114.73469753153508      119.00811025715063
H          124.32099815647648      114.90798138685932      120.44296071731284
C          121.68774439904209      115.23105123340362      121.16048949702711
H          122.99686841118883      116.93520899908231      121.08709035323966
H          122.01307461508122      116.71613289696683      119.64028705124953
C          120.47156295340496      116.00330590916619      121.63629858683369
N          119.60076008064897      115.27029299230614      122.53456639664532
H          120.79599143975734      116.90856020761355      122.16699610553053
H          119.88474829927341      116.33545096107278      120.77314251068643
C          118.51042601991803      115.89903728883121      122.99225189466335
H          119.81213871551313      114.30471022485270      122.75991196532019
O          126.64558547088376      119.81063688028880      120.57334826335442
C          117.68309860471031      115.17661352314855      124.02996233516950
C          117.57777220662598      115.99632654866282      125.32062220827126
H          116.67464645186513      115.04265520177294      123.63212656381756
H          118.11266051942492      114.19618467606149      124.22790504613155
C          118.91572090674475      116.19782067860785      126.03440681292491
H          117.14481091819441      116.96965669104164      125.08346751371543
H          116.89375239930479      115.47897756392952      125.99218099505661
C          119.60372598635084      117.50857361229238      125.64865920881445
H          118.74327589357345      116.19894825825145      127.11252454943926
H          119.59557006254792      115.37655688394194      125.80773152685987
C          120.90837134441378      117.62088668825088      126.40861322216531
H          119.82068548320083      117.50376373540325      124.58029465082515
H          118.95957369396444      118.35775873434129      125.87299467993331
N          120.95107864442350      118.61744566759288      127.29733632277876
C          122.08510883971084      118.90330201805541      128.14991521195907
H          120.15559727494073      119.25080495898845      127.35370770589556
H          121.39624196990702      114.41000441313929      120.50467638497446
H          122.21835383687014      114.81275560740154      122.01745355490192
O          118.21308837048147      117.02085836260520      122.59188082138392
O          121.83564407997572      116.83530048703156      126.22818028056278
C          121.61241788200958      119.31472862776876      129.54370450735161
H          122.70895223538612      118.00811652609782      128.20132117852927
H          122.67915789720705      119.71304797516173      127.70748285339988
C          122.70122137203710      120.00914304103226      130.36115320422221
H          120.76505963410635      119.99811410149617      129.43729419514065
H          121.26465886671618      118.42958949661970      130.07913121212093
C          123.96393669354029      119.16041593258645      130.50982434406018
H          122.94099728944602      120.96247434159831      129.88907795178892
H          122.29671921019612      120.23017579939811      131.35253334179006
C          124.86760183140491      119.61826050463874      131.65528715208819
H          123.67115918253403      118.12734939042858      130.69720984046799
H          124.53117990982869      119.16236250483284      129.57942276211048
C          125.57341682262589      120.94675660925733      131.40007475840289
H          124.27578814322372      119.71719395116655      132.56825592522833
H          125.62171852797859      118.84926082859666      131.83093264913342
N          126.54654855851044      120.82686729623470      130.33226882269744
H          124.84556869509800      121.72205963626288      131.14712982928793
H          126.08508878947285      121.27349204546516      132.31625128177538
C          127.25651679077082      121.85348815328706      129.85774996812899
H          126.78794883523612      119.88760200532941      130.01748312319469
C          128.27693597095941      121.47122124275363      128.80450090193321
C          127.63539616598958      121.51980833214830      127.41457453059814
H          129.10832478209244      122.17719990210044      128.85188191341615
H          128.64020268366164      120.46123829714628      128.99267147281969
C          128.60040660089174      121.03836383182475      126.33355334641739
H          126.76182541844905      120.86509300684969      127.40860004563976
H          127.31096671572593      122.53956023334239      127.19516929517364
C          127.98914137252503      121.23082342388238      124.94226019390561
H          129.53820894335479      121.59477266892429      126.40216262978710
H          128.81524883034558      119.98111377135997      126.49691556195963
C          128.77070658756540      120.48179982128742      123.88239273196633
H          126.97183930655102      120.84104865439363      124.95282777134877
H          127.96366291494600      122.29293117258926      124.70684817631239
N          128.47439472653483      119.19049212167481      123.82395903221492
C          129.08198997023700      118.26806493338455      122.88964865040498
H          127.73482994200990      118.83407603677844      124.42513303928550
O          127.09101227922210      123.01710571639181      130.21555426588620
C          128.43887904152487      116.89400310689771      123.01993294818402
H          128.94895210791020      118.65798316293144      121.87713593851558
H          130.15705735226163      118.19993002928690      123.08580615536087
C          129.25581356823656      115.80210654817708      122.33284861026384
H          128.34501158947046      116.65616254850781      124.08168568085932
H          127.43198664251743      116.93004584882785      122.59797172174056
C          129.42361680390101      116.03494378420322      120.83183577040421
H          130.24421836422150      115.75170328501753      122.79281072437583
H          128.76638606965994      114.84095112113201      122.49508928804312
C          129.94627336591813      114.79148023950110      120.11721929375751
H          128.47077789684656      116.33698407862066      120.39218593215398
H          130.13474577887811      116.84867084309978      120.68730108426382
C          130.43297573643898      115.09809036826582      118.70356015285164
H          130.77672678729766      114.36733256336292      120.68588939074984
H          129.16283567647466      114.03437602707558      120.06163410505012
N          130.88857586684895      113.88389411331684      118.06711931972720
H          129.63175655336261      115.51494197390821      118.08660777066510
H          131.25154902410350      115.82990036181047      118.74305170766605
O          129.62422414493599      121.00806722095825      123.16164661402969
C          130.63709383748539      113.57974691091617      116.78367791402989
H          131.31207873237429      113.19770244118645      118.68195217257112
C          131.08251109241093      112.18115904113724      116.38490800691108
C          130.28099212741682      111.10499998746043      117.11941250710252
H          130.95610175683987      112.07888203951730      115.30613465501786
H          132.14334805481874      112.06828436777222      116.62259031014339
C          130.79198537032644      109.70348611000020      116.79367917463264
H          130.35976950907786      111.26843820067332      118.19490023113794
H          129.22535969470283      111.18184767111674      116.85465362094072
C          130.17091651550072      108.65703218649324      117.72419881963066
H          130.57107878627627      109.45140683502341      115.75438473639191
H          131.87776615359647      109.68217956082735      116.91074471966118
C          130.93219981080435      107.35094267139384      117.59542738821916
H          130.26204702293100      109.00860456831111      118.75173920591553
H          129.11977880576850      108.51399703151337      117.48011611173112
N          130.51413350956381      106.58868621054835      116.57374984445356
O          130.11709743138300      114.35419770935691      115.99991752093746
C          131.11389402101517      105.32614527827886      116.22121298808598
H          129.62277705378821      106.82245088638079      116.14811060290033
C          130.18491500096158      104.13177871596969      116.45500380818117
H          131.40608561115982      105.35612071339385      115.16403553081042
H          132.01567624008149      105.22332393345239      116.83063233169185
C          129.78218127667537      103.98564961279315      117.92719698211987
H          129.29283063268809      104.24366374826774      115.83580801460785
H          130.71145422547994      103.23665602492073      116.11959923680671
C          128.41785712266659      104.60399655197938      118.24376308464059
H          129.75418089022560      102.92795284268786      118.19786721966562
H          130.55137952594279      104.45557238007029      118.54077208348029
C          128.22184956182713      104.80436829882429      119.74831571347303
H          128.31126970668080      105.56453518053222      117.73828492303464
H          127.63578188166143      103.94242151399402      117.86541359640150
C          128.92604241863384      106.07153511939121      120.22839911076126
H          127.15681695175955      104.87698933229282      119.97693017987484
H          128.62198020610373      103.94073229043157      120.28434738182114
N          128.88598465532735      106.15834777965689      121.67255453719288
H          129.96263004368583      106.06004472621623      119.89136544443477
H          128.43234381027631      106.94544113191797      119.78595890132350
C          129.71235315170017      106.78095916018876      122.52798760301462
H          128.10850441360802      105.67591219010170      122.10693877565251
O          131.87194863009105      107.06700785431266      118.32379608911070
C          130.88922494540276      107.55527135705879      121.98053862830682
C          130.69960200073768      109.05462530875680      122.23432439455470
H          131.77856764115350      107.22657555744199      122.52237624437615
H          131.04371867977389      107.37701863684386      120.91947274199035
C          129.43003615274722      109.61034327222227      121.59358372527534
H          130.66242641559941      109.22873840619114      123.31181313389270
H          131.56466270426958      109.58595873736351      121.83628300515825
C          129.45341279046917      111.13991038904243      121.59702735192224
H          129.34333103022524      109.26379826064250      120.56359152568811
H          128.55116882115431      109.25099278168300      122.13599753804934
C          128.18089168234587      111.71690516382004      121.01581482170747
H          129.61269340105440      111.50752256040714      122.61209884027583
H          130.29037916230195      111.47821200263108      120.98046149586695
N          127.53067569511994      112.55804518240595      121.84371030666537
C          126.36306857126903      113.33625393337131      121.49010742764128
H          127.93849119327402      112.75587340053634      122.74469753700538
O          129.48741753874168      106.73288690896476      123.73407466280916
C          125.33301555311486      113.30915360662024      122.61807371133173
H          126.66964762650818      114.36914108237656      121.28383405940622
H          125.95055209312649      112.90492138094218      120.57594334271236
C          124.49277101853059      112.03542219167350      122.60047624091143
H          125.85840090454906      113.39238305377987      123.57171490646211
H          124.67793539813822      114.17672452007112      122.53551289679157
C          123.68711200004374      111.85343886293418      123.88593609901208
H          123.81320519740041      112.07185427664514      121.74688031368049
H          125.15117726957580      111.17449566419948      122.46023261362754
C          122.73576962183124      110.66801387683303      123.76622041465329
H          124.37106833736436      111.69194554809293      124.72212303186849
H          123.11331039303978      112.75970934580356      124.08910917422129
C          121.99634189947905      110.32650391552542      125.05535178330744
H          121.99595530920527      110.89405065155307      123.00056069858059
H          123.29021205340347      109.78458221124967      123.45089183152763
N          120.92385618734296      111.26290541389784      125.31240375833761
H          121.57653584346708      109.31892954644300      124.95920712617102
H          122.66614523928767      110.34042783824643      125.91903276703242
C          120.66449138501970      111.80078766962482      126.50634808423696
H          120.35505347480755      111.50684652270482      124.50782652295818
O          127.77105076217472      111.44811836174459      119.89835655803853
C          119.41535032449599      112.65531317593752      126.55273438617213
C          118.18299519597252      111.81356961087113      126.90051699820611
H          119.55013753437224      113.42478781325188      127.31427184890302
H          119.27154093744608      113.12797557729495      125.58258876550829
C          116.93593850537546      112.68410105523148      127.03754127721032
H          118.01456692898891      111.07052817927823      126.12022401487702
H          118.36554563133448      111.28167050407552      127.83704884789567
C          115.66736731486893      111.86820479420808      127.31331399814509
H          117.06432174446472      113.39724723751688      127.85505761028321
H          116.78820057439540      113.24920874826297      126.11577808323256
C          115.21990361729675      111.10262303279654      126.08362949795195
H          115.86654546027876      111.15433839750409      128.11467278218836
H          114.87457197711184      112.54599262128788      127.62507363762457
N          114.19136063583935      111.65661045042400      125.42292666034720
O          121.36220155613206      111.61722187029081      127.50061661978700
C          113.61153903013307      110.99526106798366      124.27019549557811
H          113.74023563863251      112.49416346173469      125.77446862361379
C          112.41886827339411      111.75443760026218      123.70218859955739
H          114.38770367027929      110.87612231190852      123.50512214222400
H          113.29082388664330      109.99149751661334      124.57213019366972
C          111.80192927895258      110.96085181297009      122.54804249320566
H          111.68022599237024      111.89455383029927      124.49252921898750
H          112.73391252264527      112.74386372081017      123.37167234265168
C          110.40135385942875      111.42131185015720      122.11345945726929
H          112.47644621847265      110.98819617706434      121.69002966895879
H          111.73919678666624      109.91983520003710      122.87157738275181
C          110.37053506384363      112.31742910402416      120.87728577006069
H          109.80853347847552      110.53465538025989      121.87777735730802
H          109.90486895465816      111.94250486087633      122.93503029199270
C          110.77997523017414      113.75501156824166      121.16110939316947
H          111.02463238354218      111.90828432262188      120.10495515704706
H          109.35473958253432      112.33126315068090      120.47977995300836
N          110.74390052209492      114.52064823013303      119.93526972710768
H          110.08742945000287      114.22441968114994      121.86648511102580
H          111.78613487798887      113.78319683574961      121.59364172113517
C          110.45176564699118      115.82148117701328      119.90679317465236
H          111.03039668613485      114.03350194262616      119.09072429735272
O          115.76105321652300      110.06972257884080      125.71225136170334
C          110.44176336866191      116.45066319925321      118.53332551815043
C          111.78349249359096      117.15072192125417      118.29887628998557
H          110.27578151450999      115.69154173846049      117.76925107457632
H          109.63853491404527      117.18673997771160      118.50585747627018
C          111.84776895854853      117.90285619561993      116.97495384914994
H          111.96989626028562      117.84814029728848      119.11704927399744
H          112.57774471501179      116.40231380499633      118.30716552967635
C          110.81132557448541      119.02622043477228      116.86372119955638
H          112.84477438431061      118.33932208471226      116.88626923020266
H          111.70817930083210      117.20711775908438      116.14507641301218
C          111.07092012941953      119.76873297537976      115.57661687800088
H          109.80471158062262      118.60854431765038      116.82420847867287
H          110.88770247421681      119.70867548613303      117.70732506075960
N          111.50076238853252      121.01971432243323      115.70407900912664
C          111.85278649665872      121.81276915297479      114.54719551694230
H          111.48763742605614      121.45530183211343      116.62125304336480
O          110.24142409838805      116.47794914704210      120.92502328854920
C          112.85129611843347      122.91159705515615      114.89270095220110
H          112.27477734314827      121.13410790759819      113.80224774759525
H          110.94478282994478      122.24340956754646      114.11043768951440
C          112.18195879400635      124.20967043667035      115.34712306127102
H          113.50097316613036      122.54635032570991      115.69000525021286
H          113.47370895507554      123.10445209054174      114.01985359436283
C          111.42131178307423      124.93816737711158      114.23631316990728
H          111.49135763074143      123.97850457094317      116.16057164905149
H          112.94729368780040      124.88183141688422      115.73871517104800
C          112.34365911804726      125.52500317343920      113.17012191237433
H          110.70371895581914      124.26381520572656      113.76544086590509
H          110.84587552143303      125.74851497624306      114.68616772798239
C          111.55931456900375      126.33606040001636      112.13654547478323
H          113.08411638025433      126.16788255975975      113.64771530634417
H          112.87537265214347      124.72707219038880      112.65256558787225
N          112.43152147156218      127.10829319631181      111.27658328366681
H          110.97618227716023      125.67144441879255      111.49580758514740
H          110.88517518869205      127.03422305790082      112.64027544221878
C          112.81011315490504      126.73577358664286      110.04648808754983
H          112.79926889420599      127.95700215710607      111.67740721338109
O          110.94052876668344      119.22411000840395      114.47585972570361
C          113.65144739031633      127.75596368723248      109.30300185268830
C          112.74429424267302      128.52188043653430      108.33376913234322
H          114.12986103650051      128.44977191910058      109.99332799681405
H          114.42737171083225      127.24116861862015      108.73475383825355
C          113.53089941378239      129.52714186717745      107.49705470852855
H          112.25545210260098      127.80211316421148      107.67346880272144
H          111.96480784358988      129.03934839635332      108.90146341463446
C          112.63128862964348      130.25808767969096      106.49543364894670
H          113.99702444955778      130.26604698760832      108.15151687462502
H          114.33313469360586      129.01767299803419      106.96331435901251
C          111.93896904112685      129.28585431153923      105.56185002352225
H          111.89256037207062      130.86261638962137      107.02521157891067
H          113.25100790189504      130.92070445284185      105.88739084611828
N          110.59771470259399      129.37455103838016      105.53613270444254
O          112.46291664122509      125.68269455690063      109.52701955019138
C          109.76575953234054      128.51018095053089      104.72720776643497
H          110.12762800657285      130.07335117934892      106.08878407709372
C          108.47469434110198      128.13190787388265      105.44502332174261
H          109.52429756890666      129.01220085357033      103.78040188426907
H          110.36061249624790      127.62006398364626      104.50671736469850
C          108.72574268090091      127.44754617666052      106.78739312076057
H          107.87020139002728      129.02974061177963      105.59035067758532
H          107.91562300249707      127.45210954055068      104.79922116345038
C          107.47433677520014      126.76152995986723      107.33705262400261
H          109.49697085878941      126.68558585596951      106.65379984361907
H          109.10703743789296      128.17189169044934      107.50965656327600
C          106.26535856676522      127.67277066109450      107.55405749093396
H          107.18724721407276      125.96358272813296      106.64889379816074
H          107.72650106468362      126.29369041578013      108.29085576235961
C          106.50167817192725      128.78923970482276      108.58506674114282
H          105.95589002642258      128.12358390490468      106.61004429798250
H          105.43837960932453      127.04974812130848      107.90538882477607
N          106.83255688691874      128.34495937015060      109.92479634623660
H          107.30775064013393      129.44693727212680      108.24960184064187
H          105.59262430509852      129.39439183616497      108.65922403613119
H          106.11747563531830      127.71372308558318      110.27075533928659
H          107.71129732202060      127.83928722808547      109.92477931354007
O          112.54408317974986      128.47755093472441      104.87437182553333
C          132.32554363639926      114.82467085946860      132.07035506983931
C          130.92956608644317      114.26702662225279      132.26546603476697
C          132.48365236955800      115.55768225914910      130.73916916217286
C          133.89118706209166      116.12947054340354      130.58465556369117
H          132.28552778616049      114.85977359524696      129.92327700964577
H          131.74376468209650      116.35721637238653      130.67149789922360
C          134.12564156365605      116.73553485178766      129.19629049725546
H          134.06650701375588      116.88182923604627      131.35791716312275
H          134.61937374125327      115.32926041973835      130.73480701936984
C          133.24210682151289      117.93977645337998      128.92763243200599
H          135.17137029396778      117.03692249301858      129.10240878188807
H          133.91474857941316      115.98409573899097      128.43507012757135
N          133.56013632210519      119.03311586845373      129.63847494701676
O          130.88953862398455      113.24380429527814      133.07254574019285
O          129.94891234805667      114.73451319912280      131.72117614445074
H          129.93241932918986      112.92369576870213      133.22411293569920
H          133.03614775534103      114.00160972967966      132.15443098081610
H          132.51552324054140      115.50853956951582      132.90280641112000
C          132.80103492778218      120.26429322164981      129.60353096731785
H          134.35099934493289      119.00577311930539      130.26258392323473
C          132.61526385352718      120.84514700019496      131.00380048271452
H          133.31772692344794      121.00095694699405      128.97642781341494
H          131.84053286203545      120.03414762652191      129.13902254027732
C          131.96002701763030      119.87990934338302      131.99214703354929
H          133.59162864136206      121.14337684273499      131.39493235567789
H          132.00464805418170      121.74487315981284      130.91829579220183
C          130.54305582696139      119.47823171458606      131.59281553637672
H          132.57322259936922      118.98141589003876      132.09422470739688
H          131.92758455420562      120.36493015769817      132.97034203691004
C          129.85339275296070      118.68489691390249      132.70009519078431
H          129.95807120063961      120.37547909233491      131.37960433414091
H          130.56796191318645      118.87227309933218      130.68564525921227
C          128.46846187737515      118.20399290775738      132.26400937312158
H          130.46057009828257      117.81736618939584      132.97035974842339
H          129.74733918711166      119.30991474713448      133.58846981490078
N          128.56135802215294      117.18594024335782      131.24554386421212
H          127.92915697009983      117.79677197409181      133.12648855373669
H          127.90474986634747      119.04250405298673      131.85203140414453