      -----------------------------------------------------------      
     |                   =====================                   |     
     |                           x T B                           |     
     |                   =====================                   |     
     |                         S. Grimme                         |     
     |          Mulliken Center for Theoretical Chemistry        |     
     |                    University of Bonn                     |     
      -----------------------------------------------------------      

   * xtb version 6.6.1 (8d0f1dd) compiled by 'stahn@M-Bot' on 2023-08-01

   xtb is free software: you can redistribute it and/or modify it under
   the terms of the GNU Lesser General Public License as published by
   the Free Software Foundation, either version 3 of the License, or
   (at your option) any later version.
   
   xtb is distributed in the hope that it will be useful,
   but WITHOUT ANY WARRANTY; without even the implied warranty of
   MERCHANTABILITY or FITNESS FOR A PARTICULAR PURPOSE.  See the
   GNU Lesser General Public License for more details.
   
   Cite this work as:
   * C. Bannwarth, E. Caldeweyher, S. Ehlert, A. Hansen, P. Pracht,
     J. Seibert, S. Spicher, S. Grimme, WIREs Comput. Mol. Sci., 2020, 11,
     e01493. DOI: 10.1002/wcms.1493
   
   for GFN2-xTB:
   * C. Bannwarth, S. Ehlert and S. Grimme., J. Chem. Theory Comput., 2019,
     15, 1652-1671. DOI: 10.1021/acs.jctc.8b01176
   for GFN1-xTB:
   * S. Grimme, C. Bannwarth, P. Shushkov, J. Chem. Theory Comput., 2017,
     13, 1989-2009. DOI: 10.1021/acs.jctc.7b00118
   for GFN0-xTB:
   * P. Pracht, E. Caldeweyher, S. Ehlert, S. Grimme, ChemRxiv, 2019, preprint.
     DOI: 10.26434/chemrxiv.8326202.v1
   for GFN-FF:
   * S. Spicher and S. Grimme, Angew. Chem. Int. Ed., 2020, 59, 15665-15673.
     DOI: 10.1002/anie.202004239
   
   for ALPB and GBSA implicit solvation:
   * S. Ehlert, M. Stahn, S. Spicher, S. Grimme, J. Chem. Theory Comput.,
     2021, 17, 4250-4261. DOI: 10.1021/acs.jctc.1c00471
   
   for DFT-D4:
   * E. Caldeweyher, C. Bannwarth and S. Grimme, J. Chem. Phys., 2017,
     147, 034112. DOI: 10.1063/1.4993215
   * E. Caldeweyher, S. Ehlert, A. Hansen, H. Neugebauer, S. Spicher,
     C. Bannwarth and S. Grimme, J. Chem. Phys., 2019, 150, 154122.
     DOI: 10.1063/1.5090222
   * E. Caldeweyher, J.-M. Mewes, S. Ehlert and S. Grimme, Phys. Chem. Chem. Phys.
     2020, 22, 8499-8512. DOI: 10.1039/D0CP00502A
   
   for sTDA-xTB:
   * S. Grimme and C. Bannwarth, J. Chem. Phys., 2016, 145, 054103.
     DOI: 10.1063/1.4959605
   
   in the mass-spec context:
   * V. Asgeirsson, C. Bauer and S. Grimme, Chem. Sci., 2017, 8, 4879.
     DOI: 10.1039/c7sc00601b
   * J. Koopman and S. Grimme, ACS Omega 2019, 4, 12, 15120-15133.
     DOI: 10.1021/acsomega.9b02011
   
   for metadynamics refer to:
   * S. Grimme, J. Chem. Theory Comput., 2019, 155, 2847-2862
     DOI: 10.1021/acs.jctc.9b00143
   
   for SPH calculations refer to:
   * S. Spicher and S. Grimme, J. Chem. Theory Comput., 2021, 17, 1701-1714
     DOI: 10.1021/acs.jctc.0c01306
   
   with help from (in alphabetical order)
   P. Atkinson, C. Bannwarth, F. Bohle, G. Brandenburg, E. Caldeweyher
   M. Checinski, S. Dohm, S. Ehlert, S. Ehrlich, I. Gerasimov, C. Hölzer
   A. Katbashev, J. Koopman, C. Lavigne, S. Lehtola, F. März, M. Müller,
   F. Musil, H. Neugebauer, J. Pisarek, C. Plett, P. Pracht, F. Pultar,
   J. Seibert, P. Shushkov, S. Spicher, M. Stahn, M. Steiner, T. Strunk,
   J. Stückrath, T. Rose, and J. Unsleber
   
 * started run on 2024/06/17 at 15:17:36.825     

           -------------------------------------------------
          |                Calculation Setup                |
           -------------------------------------------------

          program call               : /home/abt-grimme/AK-bin/xtb input.xyz --input input.inp --opt --gbsa water
          hostname                   : boar063.thch.uni-bonn.de
          coordinate file            : input.xyz
          omp threads                :                     8

   ID    Z sym.   atoms
    1    6 C      1-120, 363-482, 725-844, 1087-1206, 1449-1568, 1811-1930,
                  2173-2292, 2535-2654, 2897-3016
    2    1 H      121-362, 483-724, 845-1086, 1207-1448, 1569-1810,
                  1931-2172, 2293-2534, 2655-2896, 3017-3258

molecular fragmentation (1/2 indicates fragments):
111111111111111111111111111111111111111111111111111111111111111111111111
111111111111111111111111111111111111111111111111111111111111111111111111
111111111111111111111111111111111111111111111111111111111111111111111111
111111111111111111111111111111111111111111111111111111111111111111111111
111111111111111111111111111111111111111111111111111111111111111111111111
112222222222222222222222222222222222222222222222222222222222222222222222
222222222222222222222222222222222222222222222222222222222222222222222222
222222222222222222222222222222222222222222222222222222222222222222222222
222222222222222222222222222222222222222222222222222222222222222222222222
222222222222222222222222222222222222222222222222222222222222222222222222
222222222222222222222222222222222222222222222222222222222222222222222222
222222222222222222222222222222222222222222222222222222222222222222222222
222222222222222222222222222222222222222222222222222222222222222222222222
222222222222222222222222222222222222222222222222222222222222222222222222
222222222222222222222222222222222222222222222222222222222222222222222222
222222222222222222222222222222222222222222222222222222222222222222222222
222222222222222222222222222222222222222222222222222222222222222222222222
222222222222222222222222222222222222222222222222222222222222222222222222
222222222222222222222222222222222222222222222222222222222222222222222222
222222222222222222222222222222222222222222222222222222222222222222222222
222222222222222222222222222222222222222222222222222222222222222222222222
222222222222222222222222222222222222222222222222222222222222222222222222
222222222222222222222222222222222222222222222222222222222222222222222222
222222222222222222222222222222222222222222222222222222222222222222222222
222222222222222222222222222222222222222222222222222222222222222222222222
222222222222222222222222222222222222222222222222222222222222222222222222
222222222222222222222222222222222222222222222222222222222222222222222222
222222222222222222222222222222222222222222222222222222222222222222222222
222222222222222222222222222222222222222222222222222222222222222222222222
222222222222222222222222222222222222222222222222222222222222222222222222
222222222222222222222222222222222222222222222222222222222222222222222222
222222222222222222222222222222222222222222222222222222222222222222222222
222222222222222222222222222222222222222222222222222222222222222222222222
222222222222222222222222222222222222222222222222222222222222222222222222
222222222222222222222222222222222222222222222222222222222222222222222222
222222222222222222222222222222222222222222222222222222222222222222222222
222222222222222222222222222222222222222222222222222222222222222222222222
222222222222222222222222222222222222222222222222222222222222222222222222
222222222222222222222222222222222222222222222222222222222222222222222222
222222222222222222222222222222222222222222222222222222222222222222222222
222222222222222222222222222222222222222222222222222222222222222222222222
222222222222222222222222222222222222222222222222222222222222222222222222
222222222222222222222222222222222222222222222222222222222222222222222222
222222222222222222222222222222222222222222222222222222222222222222222222
222222222222222222222222222222222222222222222222222222222222222222222222
222222222222222222
# atoms in fragment 1/2:   362  2896
 fragment masses (1/2) :     1685.21    13481.68
CMA distance (Bohr)    :  10.914
constraining FC (au)   :  0.0500

           -------------------------------------------------
          |                 G F N 2 - x T B                 |
           -------------------------------------------------

        Reference                      10.1021/acs.jctc.8b01176
      * Hamiltonian:
        H0-scaling (s, p, d)           1.850000    2.230000    2.230000
        zeta-weighting                 0.500000
      * Dispersion:
        s8                             2.700000
        a1                             0.520000
        a2                             5.000000
        s9                             5.000000
      * Repulsion:
        kExp                           1.500000    1.000000
        rExp                           1.000000
      * Coulomb:
        alpha                          2.000000
        third order                    shell-resolved
        anisotropic                    true
        a3                             3.000000
        a5                             4.000000
        cn-shift                       1.200000
        cn-exp                         4.000000
        max-rad                        5.000000

      * Solvation model:               GBSA
        Solvent                        water
        Parameter file                 internal GFN2-xTB/GBSA
        Dielectric constant                8.0200E+01
        Reference state                gsolv [1 M gas/solution]
        Free energy shift                  1.8574E-03 Eh       1.1656E+00 kcal/mol
        Temperature                        2.9815E+02 K
        Density                            1.0000E+00 kg/L
        Solvent mass                       1.8000E+01 g/mol
        Interaction kernel             Still
        Born radius scaling (c1)           1.5524E+00
        Born radii integrator          GBOBC
        Born offset                        2.4628E-02 a0       4.6540E-02 AA
        H-bond correction              true
        Ion screening                  false
        Surface tension                    1.0000E-05 Eh       1.5569E+01 dyn/cm
        Grid points                               230 per atom
q/qsh data taken from xtbrestart
CAMM data taken from xtbrestart

          ...................................................
          :                      SETUP                      :
          :.................................................:
          :  # basis functions                6498          :
          :  # atomic orbitals                6498          :
          :  # shells                         4338          :
          :  # electrons                      6498          :
          :  max. iterations                   250          :
          :  Hamiltonian                  GFN2-xTB          :
          :  restarted?                       true          :
          :  GBSA solvation                   true          :
          :  PC potential                    false          :
          :  electronic temp.          300.0000000     K    :
          :  accuracy                    1.0000000          :
          :  -> integral cutoff          0.2500000E+02      :
          :  -> integral neglect         0.1000000E-07      :
          :  -> SCF convergence          0.1000000E-05 Eh   :
          :  -> wf. convergence          0.1000000E-03 e    :
          :  Broyden damping             0.4000000          :
          ...................................................

 iter      E             dE          RMSdq      gap      omega  full diag
   1  -3472.2900599 -0.347229E+04  0.734E-05   10.78       0.0  T
   2  -3472.2900599 -0.367618E-08  0.567E-05   10.78      30.9  T
   3  -3472.2900599 -0.476348E-08  0.296E-05   10.78      59.1  T

   *** convergence criteria satisfied after 3 iterations ***

         #    Occupation            Energy/Eh            Energy/eV
      -------------------------------------------------------------
         1        2.0000           -0.6169253             -16.7874
       ...           ...                  ...                  ...
      3243        2.0000           -0.3871223             -10.5341
      3244        2.0000           -0.3867773             -10.5247
      3245        2.0000           -0.3866637             -10.5217
      3246        2.0000           -0.3863111             -10.5121
      3247        2.0000           -0.3858993             -10.5009
      3248        2.0000           -0.3856686             -10.4946
      3249        2.0000           -0.3839302             -10.4473 (HOMO)
      3250                          0.0121504               0.3306 (LUMO)
      3251                          0.0138407               0.3766
      3252                          0.0176239               0.4796
      3253                          0.0182768               0.4973
      3254                          0.0201551               0.5484
       ...                                ...                  ...
      6498                          0.3746531              10.1948
      -------------------------------------------------------------
                  HL-Gap            0.3960805 Eh           10.7779 eV
             Fermi-level           -0.1858899 Eh           -5.0583 eV

 SCC (total)                   0 d,  0 h,  7 min, 27.833 sec
 SCC setup                      ...        0 min,  1.721 sec (  0.384%)
 Dispersion                     ...        0 min,  3.534 sec (  0.789%)
 classical contributions        ...        0 min,  0.151 sec (  0.034%)
 integral evaluation            ...        0 min,  5.875 sec (  1.312%)
 iterations                     ...        3 min,  0.004 sec ( 40.194%)
 molecular gradient             ...        4 min,  7.781 sec ( 55.329%)
 printout                       ...        0 min,  8.767 sec (  1.958%)

         :::::::::::::::::::::::::::::::::::::::::::::::::::::
         ::                     SUMMARY                     ::
         :::::::::::::::::::::::::::::::::::::::::::::::::::::
         :: total energy           -3426.824190736947 Eh    ::
         :: total w/o Gsasa/hb     -3426.731828261378 Eh    ::
         :: gradient norm              0.631715415969 Eh/a0 ::
         :: HOMO-LUMO gap             10.777900205211 eV    ::
         ::.................................................::
         :: SCC energy             -3472.290059911550 Eh    ::
         :: -> isotropic ES            0.279008763890 Eh    ::
         :: -> anisotropic ES          1.288303230423 Eh    ::
         :: -> anisotropic XC          2.132747294273 Eh    ::
         :: -> dispersion             -4.241722044012 Eh    ::
         :: -> Gsolv                  -0.028397560734 Eh    ::
         ::    -> Gelec                0.063964914836 Eh    ::
         ::    -> Gsasa               -0.090127090882 Eh    ::
         ::    -> Ghb                 -0.004092827815 Eh    ::
         ::    -> Gshift               0.001857443127 Eh    ::
         :: repulsion energy          44.763271176815 Eh    ::
         :: add. restraining           0.000000000000 Eh    ::
         :: total charge              -0.000000000011 e     ::
         :::::::::::::::::::::::::::::::::::::::::::::::::::::

      ----------------------------------------------------------- 
     |              Fast Inertial Relaxation Engine              |
      ----------------------------------------------------------- 

          ...................................................
          :                      SETUP                      :
          :.................................................:
          :   energy convergence        0.5000000E-05 Eh    :
          :   grad. convergence         0.1000000E-02 Eh/a0 :
          :   optimization log               true           :
          :   writing optlog all                1     steps :
          :   Hessian reset                    20     steps :
          :   time step scaling                 5     steps :
          :   maximium step len.        1.0000000     a0    :
          :   initial time step         0.2500000     fs    :
          :   maximum time step         1.2500000     fs    :
          :   power reset thr           0.0000000     au    :
          :   alpha parameter           0.1000000           :
          :   BFGS update                   false           :
          :   preconditioning               false           :
          ...................................................

........................................................................
.............................. CYCLE    1 ..............................
........................................................................

 iter      E             dE          RMSdq      gap      omega  full diag
   1  -3472.5234913 -0.347252E+04  0.741E-03   10.81       0.0  T
   2  -3472.5235352 -0.439621E-04  0.389E-03   10.81       1.0  T
   3  -3472.5235356 -0.413786E-06  0.181E-03   10.81       1.0  T
   4  -3472.5235358 -0.144026E-06  0.217E-04   10.81       8.1  T
   5  -3472.5235358 -0.329073E-07  0.137E-04   10.81      12.8  T
     SCC iter.                  ...        4 min, 57.194 sec
     gradient                   ...        4 min,  9.672 sec
 * total energy  : -3426.8695444 Eh     change    :  -0.4535368E-01 Eh
   gradient norm :     0.5977536 Eh/a0  converged?    E=F G=F D=F
   time step     :     0.2500000 fs     power     :   0.2340604E-05
   step length   :     0.0740357 a0     speed     :   0.7163352E-02

........................................................................
.............................. CYCLE    2 ..............................
........................................................................

 iter      E             dE          RMSdq      gap      omega  full diag
   1  -3472.8674660 -0.347287E+04  0.108E-02   10.87       0.0  T
   2  -3472.8675601 -0.940315E-04  0.570E-03   10.87       1.0  T
   3  -3472.8675610 -0.947414E-06  0.265E-03   10.87       1.0  T
   4  -3472.8675614 -0.348924E-06  0.334E-04   10.87       5.2  T
   5  -3472.8675614 -0.776599E-07  0.218E-04   10.87       8.0  T
     SCC iter.                  ...        4 min, 54.960 sec
     gradient                   ...        4 min,  9.365 sec
 * total energy  : -3426.9319140 Eh     change    :  -0.6236961E-01 Eh
   gradient norm :     0.5493167 Eh/a0  converged?    E=F G=F D=F
   time step     :     0.2500000 fs     power     :   0.3166114E-05
   step length   :     0.1089710 a0     speed     :   0.1054353E-01

........................................................................
.............................. CYCLE    3 ..............................
........................................................................

 iter      E             dE          RMSdq      gap      omega  full diag
   1  -3473.3129034 -0.347331E+04  0.139E-02   10.93       0.0  T
   2  -3473.3130563 -0.152883E-03  0.730E-03   10.93       1.0  T
   3  -3473.3130579 -0.162603E-05  0.337E-03   10.93       1.0  T
   4  -3473.3130585 -0.592304E-06  0.438E-04   10.93       4.0  T
   5  -3473.3130587 -0.128712E-06  0.287E-04   10.93       6.1  T
     SCC iter.                  ...        4 min, 54.868 sec
     gradient                   ...        4 min,  8.900 sec
 * total energy  : -3427.0048285 Eh     change    :  -0.7291449E-01 Eh
   gradient norm :     0.4888810 Eh/a0  converged?    E=F G=F D=F
   time step     :     0.2500000 fs     power     :   0.3630595E-05
   step length   :     0.1410556 a0     speed     :   0.1364789E-01

........................................................................
.............................. CYCLE    4 ..............................
........................................................................

 iter      E             dE          RMSdq      gap      omega  full diag
   1  -3473.8482826 -0.347385E+04  0.165E-02   10.97       0.0  T
   2  -3473.8484932 -0.210580E-03  0.864E-03   10.97       1.0  T
   3  -3473.8484956 -0.240202E-05  0.395E-03   10.97       1.0  T
   4  -3473.8484965 -0.844214E-06  0.528E-04   10.97       3.3  T
   5  -3473.8484967 -0.177401E-06  0.345E-04   10.97       5.1  T
     SCC iter.                  ...        4 min, 54.026 sec
     gradient                   ...        4 min,  8.675 sec
 * total energy  : -3427.0810164 Eh     change    :  -0.7618787E-01 Eh
   gradient norm :     0.4208703 Eh/a0  converged?    E=F G=F D=F
   time step     :     0.2500000 fs     power     :   0.3704729E-05
   step length   :     0.1694444 a0     speed     :   0.1639465E-01

........................................................................
.............................. CYCLE    5 ..............................
........................................................................

 iter      E             dE          RMSdq      gap      omega  full diag
   1  -3474.4597416 -0.347446E+04  0.184E-02   10.97       0.0  T
   2  -3474.4599980 -0.256442E-03  0.966E-03   10.97       1.0  T
   3  -3474.4600013 -0.322453E-05  0.435E-03   10.97       1.0  T
   4  -3474.4600023 -0.107181E-05  0.604E-04   10.97       2.9  T
   5  -3474.4600026 -0.213780E-06  0.391E-04   10.97       4.5  T
   6  -3474.4600027 -0.121590E-06  0.165E-04   10.97      10.6  T
     SCC iter.                  ...        6 min,  5.856 sec
     gradient                   ...        4 min, 11.815 sec
 * total energy  : -3427.1534398 Eh     change    :  -0.7242344E-01 Eh
   gradient norm :     0.3520085 Eh/a0  converged?    E=F G=F D=F
   time step     :     0.2500000 fs     power     :   0.3417956E-05
   step length   :     0.1934106 a0     speed     :   0.1871351E-01

........................................................................
.............................. CYCLE    6 ..............................
........................................................................

 iter      E             dE          RMSdq      gap      omega  full diag
   1  -3475.2043553 -0.347520E+04  0.219E-02   10.97       0.0  T
   2  -3475.2046984 -0.343132E-03  0.115E-02   10.97       1.0  T
   3  -3475.2047033 -0.490684E-05  0.502E-03   10.97       1.0  T
   4  -3475.2047048 -0.145748E-05  0.726E-04   10.97       2.4  T
   5  -3475.2047051 -0.269727E-06  0.458E-04   10.97       3.8  T
   6  -3475.2047052 -0.136522E-06  0.175E-04   10.97      10.0  T
     SCC iter.                  ...        5 min, 51.261 sec
     gradient                   ...        4 min,  6.797 sec
 * total energy  : -3427.2223097 Eh     change    :  -0.6886990E-01 Eh
   gradient norm :     0.2858015 Eh/a0  converged?    E=F G=F D=F
   time step     :     0.2750000 fs     power     :   0.2778225E-05
   step length   :     0.2356851 a0     speed     :   0.2073073E-01

........................................................................
.............................. CYCLE    7 ..............................
........................................................................

 iter      E             dE          RMSdq      gap      omega  full diag
   1  -3476.0766093 -0.347608E+04  0.250E-02   10.97       0.0  T
   2  -3476.0770121 -0.402790E-03  0.131E-02   10.97       1.0  T
   3  -3476.0770193 -0.721022E-05  0.545E-03   10.97       1.0  T
   4  -3476.0770212 -0.188595E-05  0.856E-04   10.97       2.0  T
   5  -3476.0770215 -0.302374E-06  0.527E-04   10.97       3.3  T
   6  -3476.0770216 -0.150359E-06  0.180E-04   10.97       9.7  T
     SCC iter.                  ...        5 min, 53.398 sec
     gradient                   ...        4 min,  7.599 sec
 * total energy  : -3427.2795611 Eh     change    :  -0.5725134E-01 Eh
   gradient norm :     0.2422721 Eh/a0  converged?    E=F G=F D=F
   time step     :     0.3025000 fs     power     :   0.1882526E-05
   step length   :     0.2777095 a0     speed     :   0.2220651E-01

........................................................................
.............................. CYCLE    8 ..............................
........................................................................

 iter      E             dE          RMSdq      gap      omega  full diag
   1  -3477.0402067 -0.347704E+04  0.273E-02   10.97       0.0  T
   2  -3477.0405923 -0.385582E-03  0.145E-02   10.97       1.0  T
   3  -3477.0406021 -0.985631E-05  0.537E-03   10.97       1.0  T
   4  -3477.0406042 -0.210409E-05  0.964E-04   10.96       1.8  T
   5  -3477.0406045 -0.268173E-06  0.571E-04   10.96       3.1  T
   6  -3477.0406046 -0.135558E-06  0.163E-04   10.96      10.7  T
     SCC iter.                  ...        5 min, 58.598 sec
     gradient                   ...        4 min,  6.842 sec
 * total energy  : -3427.3197983 Eh     change    :  -0.4023726E-01 Eh
   gradient norm :     0.2367319 Eh/a0  converged?    E=F G=F D=F
   time step     :     0.3327500 fs     power     :   0.9712601E-06
   step length   :     0.3135636 a0     speed     :   0.2279411E-01

........................................................................
.............................. CYCLE    9 ..............................
........................................................................

 iter      E             dE          RMSdq      gap      omega  full diag
   1  -3478.0191434 -0.347802E+04  0.291E-02   10.97       0.0  T
   2  -3478.0194181 -0.274682E-03  0.159E-02   10.96       1.0  T
   3  -3478.0194303 -0.121629E-04  0.452E-03   10.96       1.0  T
   4  -3478.0194321 -0.185445E-05  0.102E-03   10.96       1.7  T
   5  -3478.0194323 -0.163499E-06  0.565E-04   10.96       3.1  T
   6  -3478.0194324 -0.954619E-07  0.120E-04   10.96      14.6  T
     SCC iter.                  ...        5 min, 53.838 sec
     gradient                   ...        4 min, 11.748 sec
 * total energy  : -3427.3436320 Eh     change    :  -0.2383363E-01 Eh
   gradient norm :     0.2505205 Eh/a0  converged?    E=F G=F D=F
   time step     :     0.3660250 fs     power     :   0.3032494E-06
   step length   :     0.3375129 a0     speed     :   0.2230462E-01

........................................................................
.............................. CYCLE   10 ..............................
........................................................................

 iter      E             dE          RMSdq      gap      omega  full diag
   1  -3478.9198116 -0.347892E+04  0.313E-02   10.96       0.0  T
   2  -3478.9199420 -0.130366E-03  0.177E-02   10.96       1.0  T
   3  -3478.9199554 -0.133576E-04  0.292E-03   10.96       1.0  T
   4  -3478.9199567 -0.132932E-05  0.103E-03   10.96       1.7  T
   5  -3478.9199567 -0.505543E-07  0.496E-04   10.96       3.5  T
   6  -3478.9199568 -0.593759E-07  0.620E-05   10.96      28.2  T
     SCC iter.                  ...        5 min, 55.433 sec
     gradient                   ...        4 min,  6.581 sec
 * total energy  : -3427.3557081 Eh     change    :  -0.1207615E-01 Eh
   gradient norm :     0.2500367 Eh/a0  converged?    E=F G=F D=F
   time step     :     0.4026275 fs     power     :  -0.8978979E-07
   step length   :     0.3506592 a0     speed     :   0.2106672E-01

........................................................................
.............................. CYCLE   11 ..............................
........................................................................
 * reset velocities

 iter      E             dE          RMSdq      gap      omega  full diag
   1  -3478.9029652 -0.347890E+04  0.116E-03   10.96       0.0  T
   2  -3478.9029660 -0.777616E-06  0.665E-04   10.96       2.6  T
   3  -3478.9029660 -0.371620E-08  0.264E-04   10.96       6.6  T
     SCC iter.                  ...        3 min,  0.276 sec
     gradient                   ...        4 min,  7.185 sec
 * total energy  : -3427.3580502 Eh     change    :  -0.2342050E-02 Eh
   gradient norm :     0.2429955 Eh/a0  converged?    E=F G=F D=F
   time step     :     0.2013138 fs     power     :   0.1521714E-06
   step length   :     0.0095008 a0     speed     :   0.1141568E-02

........................................................................
.............................. CYCLE   12 ..............................
........................................................................

 iter      E             dE          RMSdq      gap      omega  full diag
   1  -3478.8694186 -0.347887E+04  0.228E-03   10.96       0.0  T
   2  -3478.8694216 -0.301106E-05  0.131E-03   10.96       1.3  T
   3  -3478.8694216 -0.181099E-07  0.520E-04   10.96       3.4  T
   4  -3478.8694217 -0.877662E-08  0.448E-05   10.96      39.1  T
     SCC iter.                  ...        4 min,  1.736 sec
     gradient                   ...        4 min,  9.955 sec
 * total energy  : -3427.3624731 Eh     change    :  -0.4422974E-02 Eh
   gradient norm :     0.2291994 Eh/a0  converged?    E=F G=F D=F
   time step     :     0.2013138 fs     power     :   0.2829942E-06
   step length   :     0.0187340 a0     speed     :   0.2250980E-02

........................................................................
.............................. CYCLE   13 ..............................
........................................................................

 iter      E             dE          RMSdq      gap      omega  full diag
   1  -3478.8201842 -0.347882E+04  0.333E-03   10.96       0.0  T
   2  -3478.8201907 -0.651618E-05  0.192E-03   10.96       1.0  T
   3  -3478.8201907 -0.439782E-07  0.766E-04   10.96       2.3  T
   4  -3478.8201908 -0.228360E-07  0.730E-05   10.96      24.0  T
     SCC iter.                  ...        3 min, 59.279 sec
     gradient                   ...        4 min,  7.731 sec
 * total energy  : -3427.3684860 Eh     change    :  -0.6012820E-02 Eh
   gradient norm :     0.2090915 Eh/a0  converged?    E=F G=F D=F
   time step     :     0.2013138 fs     power     :   0.3780486E-06
   step length   :     0.0274423 a0     speed     :   0.3297329E-02

........................................................................
.............................. CYCLE   14 ..............................
........................................................................

 iter      E             dE          RMSdq      gap      omega  full diag
   1  -3478.7565629 -0.347876E+04  0.428E-03   10.96       0.0  T
   2  -3478.7565737 -0.108413E-04  0.246E-03   10.96       1.0  T
   3  -3478.7565738 -0.760251E-07  0.989E-04   10.96       1.8  T
   4  -3478.7565739 -0.401769E-07  0.971E-05   10.96      18.0  T
     SCC iter.                  ...        4 min,  1.246 sec
     gradient                   ...        4 min,  8.625 sec
 * total energy  : -3427.3754251 Eh     change    :  -0.6939123E-02 Eh
   gradient norm :     0.1834024 Eh/a0  converged?    E=F G=F D=F
   time step     :     0.2013138 fs     power     :   0.4271427E-06
   step length   :     0.0353840 a0     speed     :   0.4251564E-02

........................................................................
.............................. CYCLE   15 ..............................
........................................................................

 iter      E             dE          RMSdq      gap      omega  full diag
   1  -3478.6802882 -0.347868E+04  0.510E-03   10.96       0.0  T
   2  -3478.6803037 -0.155141E-04  0.294E-03   10.96       1.0  T
   3  -3478.6803038 -0.110482E-06  0.118E-03   10.96       1.5  T
   4  -3478.6803039 -0.588416E-07  0.118E-04   10.96      14.9  T
   5  -3478.6803039 -0.157170E-07  0.812E-05   10.96      21.6  T
     SCC iter.                  ...        5 min,  3.173 sec
     gradient                   ...        4 min,  6.570 sec
 * total energy  : -3427.3825337 Eh     change    :  -0.7108615E-02 Eh
   gradient norm :     0.1531201 Eh/a0  converged?    E=F G=F D=F
   time step     :     0.2013138 fs     power     :   0.4255027E-06
   step length   :     0.0423416 a0     speed     :   0.5087551E-02

........................................................................
.............................. CYCLE   16 ..............................
........................................................................

 iter      E             dE          RMSdq      gap      omega  full diag
   1  -3478.5935460 -0.347859E+04  0.576E-03   10.96       0.0  T
   2  -3478.5935660 -0.199677E-04  0.332E-03   10.96       1.0  T
   3  -3478.5935661 -0.130814E-06  0.134E-03   10.96       1.3  T
   4  -3478.5935662 -0.671180E-07  0.125E-04   10.96      14.0  T
   5  -3478.5935662 -0.182140E-07  0.840E-05   10.96      20.8  T
     SCC iter.                  ...        4 min, 59.793 sec
     gradient                   ...        4 min,  8.928 sec
 * total energy  : -3427.3890515 Eh     change    :  -0.6517851E-02 Eh
   gradient norm :     0.1196898 Eh/a0  converged?    E=F G=F D=F
   time step     :     0.2013138 fs     power     :   0.3746003E-06
   step length   :     0.0481254 a0     speed     :   0.5782510E-02

........................................................................
.............................. CYCLE   17 ..............................
........................................................................

 iter      E             dE          RMSdq      gap      omega  full diag
   1  -3478.4886829 -0.347849E+04  0.691E-03   10.96       0.0  T
   2  -3478.4887119 -0.290624E-04  0.398E-03   10.96       1.0  T
   3  -3478.4887121 -0.185035E-06  0.162E-03   10.96       1.1  T
   4  -3478.4887122 -0.937198E-07  0.148E-04   10.96      11.8  T
   5  -3478.4887122 -0.259001E-07  0.978E-05   10.96      17.9  T
     SCC iter.                  ...        5 min,  4.650 sec
     gradient                   ...        4 min, 10.500 sec
 * total energy  : -3427.3947693 Eh     change    :  -0.5717705E-02 Eh
   gradient norm :     0.0818932 Eh/a0  converged?    E=F G=F D=F
   time step     :     0.2214451 fs     power     :   0.2703903E-06
   step length   :     0.0583232 a0     speed     :   0.6370745E-02

........................................................................
.............................. CYCLE   18 ..............................
........................................................................

 iter      E             dE          RMSdq      gap      omega  full diag
   1  -3478.3674234 -0.347837E+04  0.792E-03   10.96       0.0  T
   2  -3478.3674622 -0.388105E-04  0.457E-03   10.96       1.0  T
   3  -3478.3674625 -0.243990E-06  0.187E-03   10.96       1.0  T
   4  -3478.3674626 -0.121714E-06  0.170E-04   10.96      10.3  T
   5  -3478.3674626 -0.342629E-07  0.110E-04   10.96      15.9  T
     SCC iter.                  ...        4 min, 57.978 sec
     gradient                   ...        4 min, 13.394 sec
 * total energy  : -3427.3985442 Eh     change    :  -0.3774976E-02 Eh
   gradient norm :     0.0491073 Eh/a0  converged?    E=F G=F D=F
   time step     :     0.2435896 fs     power     :   0.1187089E-06
   step length   :     0.0682025 a0     speed     :   0.6772616E-02

........................................................................
.............................. CYCLE   19 ..............................
........................................................................

 iter      E             dE          RMSdq      gap      omega  full diag
   1  -3478.2394985 -0.347824E+04  0.831E-03   10.96       0.0  T
   2  -3478.2395421 -0.435804E-04  0.482E-03   10.96       1.0  T
   3  -3478.2395424 -0.274659E-06  0.199E-03   10.96       1.0  T
   4  -3478.2395425 -0.132261E-06  0.178E-04   10.96       9.8  T
   5  -3478.2395426 -0.381519E-07  0.112E-04   10.96      15.7  T
     SCC iter.                  ...        4 min, 57.244 sec
     gradient                   ...        4 min,  8.720 sec
 * total energy  : -3427.3994527 Eh     change    :  -0.9085072E-03 Eh
   gradient norm :     0.0544648 Eh/a0  converged?    E=F G=F D=F
   time step     :     0.2679486 fs     power     :  -0.4330209E-07
   step length   :     0.0750425 a0     speed     :   0.6774399E-02

........................................................................
.............................. CYCLE   20 ..............................
........................................................................
 * reset velocities

 iter      E             dE          RMSdq      gap      omega  full diag
   1  -3478.2407174 -0.347824E+04  0.118E-04   10.96       0.0  T
   2  -3478.2407174 -0.545242E-08  0.755E-05   10.96      23.2  T
   3  -3478.2407174 -0.315504E-08  0.330E-05   10.96      53.1  T
     SCC iter.                  ...        2 min, 57.668 sec
     gradient                   ...        4 min,  7.904 sec
 * total energy  : -3427.3995025 Eh     change    :  -0.4975836E-04 Eh
   gradient norm :     0.0541105 Eh/a0  converged?    E=F G=F D=T
   time step     :     0.1339743 fs     power     :   0.4912178E-08
   step length   :     0.0009166 a0     speed     :   0.1654864E-03
 * RMSD in coord.:     0.0347985 a0     energy gain  -0.5753118E+00 Eh

........................................................................
.............................. CYCLE   21 ..............................
........................................................................

 iter      E             dE          RMSdq      gap      omega  full diag
   1  -3478.2469339 -0.347825E+04  0.542E-04   10.96       0.0  T
   2  -3478.2469340 -0.825398E-07  0.308E-04   10.96       5.7  T
   3  -3478.2469340 -0.748969E-09  0.829E-05   10.96      21.1  T
     SCC iter.                  ...        2 min, 58.505 sec
     gradient                   ...        4 min, 10.190 sec
 * total energy  : -3427.3997624 Eh     change    :  -0.2598565E-03 Eh
   gradient norm :     0.0523996 Eh/a0  converged?    E=F G=F D=F
   time step     :     0.2500000 fs     power     :   0.1356718E-07
   step length   :     0.0048812 a0     speed     :   0.4722778E-03

........................................................................
.............................. CYCLE   22 ..............................
........................................................................

 iter      E             dE          RMSdq      gap      omega  full diag
   1  -3478.2568805 -0.347826E+04  0.882E-04   10.96       0.0  T
   2  -3478.2568807 -0.211190E-06  0.503E-04   10.96       3.5  T
   3  -3478.2568807 -0.363616E-08  0.133E-04   10.96      13.1  T
     SCC iter.                  ...        2 min, 57.153 sec
     gradient                   ...        4 min,  9.675 sec
 * total energy  : -3427.4001681 Eh     change    :  -0.4057426E-03 Eh
   gradient norm :     0.0498032 Eh/a0  converged?    E=F G=F D=F
   time step     :     0.2500000 fs     power     :   0.2095348E-07
   step length   :     0.0079505 a0     speed     :   0.7692503E-03

........................................................................
.............................. CYCLE   23 ..............................
........................................................................

 iter      E             dE          RMSdq      gap      omega  full diag
   1  -3478.2700710 -0.347827E+04  0.119E-03   10.96       0.0  T
   2  -3478.2700714 -0.369191E-06  0.676E-04   10.96       2.6  T
   3  -3478.2700714 -0.855425E-08  0.177E-04   10.96       9.9  T
     SCC iter.                  ...        3 min,  5.698 sec
     gradient                   ...        4 min,  9.110 sec
 * total energy  : -3427.4006893 Eh     change    :  -0.5212464E-03 Eh
   gradient norm :     0.0466432 Eh/a0  converged?    E=F G=F D=F
   time step     :     0.2500000 fs     power     :   0.2663920E-07
   step length   :     0.0108615 a0     speed     :   0.1050911E-02

........................................................................
.............................. CYCLE   24 ..............................
........................................................................

 iter      E             dE          RMSdq      gap      omega  full diag
   1  -3478.2858232 -0.347829E+04  0.145E-03   10.96       0.0  T
   2  -3478.2858237 -0.519382E-06  0.825E-04   10.96       2.1  T
   3  -3478.2858238 -0.143577E-07  0.209E-04   10.96       8.4  T
     SCC iter.                  ...        2 min, 58.957 sec
     gradient                   ...        4 min,  9.399 sec
 * total energy  : -3427.4012920 Eh     change    :  -0.6026240E-03 Eh
   gradient norm :     0.0433663 Eh/a0  converged?    E=F G=F D=F
   time step     :     0.2500000 fs     power     :   0.3051653E-07
   step length   :     0.0135691 a0     speed     :   0.1312884E-02

........................................................................
.............................. CYCLE   25 ..............................
........................................................................

 iter      E             dE          RMSdq      gap      omega  full diag
   1  -3478.3032625 -0.347830E+04  0.165E-03   10.96       0.0  T
   2  -3478.3032632 -0.622656E-06  0.941E-04   10.96       1.9  T
   3  -3478.3032632 -0.199980E-07  0.228E-04   10.96       7.7  T
     SCC iter.                  ...        2 min, 58.665 sec
     gradient                   ...        4 min,  8.466 sec
 * total energy  : -3427.4019449 Eh     change    :  -0.6529365E-03 Eh
   gradient norm :     0.0404879 Eh/a0  converged?    E=F G=F D=F
   time step     :     0.2500000 fs     power     :   0.3284107E-07
   step length   :     0.0160424 a0     speed     :   0.1552185E-02

........................................................................
.............................. CYCLE   26 ..............................
........................................................................

 iter      E             dE          RMSdq      gap      omega  full diag
   1  -3478.3233051 -0.347832E+04  0.198E-03   10.96       0.0  T
   2  -3478.3233059 -0.792674E-06  0.113E-03   10.96       1.5  T
   3  -3478.3233059 -0.293048E-07  0.254E-04   10.96       6.9  T
   4  -3478.3233059 -0.114806E-07  0.617E-05   10.96      28.4  T
     SCC iter.                  ...        3 min, 55.269 sec
     gradient                   ...        4 min, 10.134 sec
 * total energy  : -3427.4027002 Eh     change    :  -0.7553140E-03 Eh
   gradient norm :     0.0383006 Eh/a0  converged?    E=F G=F D=F
   time step     :     0.2750000 fs     power     :   0.3424608E-07
   step length   :     0.0203466 a0     speed     :   0.1789673E-02

........................................................................
.............................. CYCLE   27 ..............................
........................................................................

 iter      E             dE          RMSdq      gap      omega  full diag
   1  -3478.3447396 -0.347834E+04  0.229E-03   10.96       0.0  T
   2  -3478.3447404 -0.863147E-06  0.131E-03   10.96       1.3  T
   3  -3478.3447405 -0.363789E-07  0.261E-04   10.96       6.7  T
   4  -3478.3447405 -0.144023E-07  0.680E-05   10.96      25.8  T
     SCC iter.                  ...        3 min, 56.938 sec
     gradient                   ...        4 min,  9.372 sec
 * total energy  : -3427.4035611 Eh     change    :  -0.8609007E-03 Eh
   gradient norm :     0.0373421 Eh/a0  converged?    E=F G=F D=F
   time step     :     0.3025000 fs     power     :   0.3540649E-07
   step length   :     0.0252784 a0     speed     :   0.2021342E-02

........................................................................
.............................. CYCLE   28 ..............................
........................................................................

 iter      E             dE          RMSdq      gap      omega  full diag
   1  -3478.3655213 -0.347837E+04  0.253E-03   10.96       0.0  T
   2  -3478.3655220 -0.735169E-06  0.145E-03   10.96       1.2  T
   3  -3478.3655220 -0.449681E-07  0.234E-04   10.96       7.5  T
   4  -3478.3655221 -0.167774E-07  0.739E-05   10.96      23.7  T
     SCC iter.                  ...        3 min, 59.210 sec
     gradient                   ...        4 min,  9.086 sec
 * total energy  : -3427.4045540 Eh     change    :  -0.9928713E-03 Eh
   gradient norm :     0.0375461 Eh/a0  converged?    E=F G=F D=F
   time step     :     0.3327500 fs     power     :   0.3739937E-07
   step length   :     0.0309161 a0     speed     :   0.2247410E-02

........................................................................
.............................. CYCLE   29 ..............................
........................................................................

 iter      E             dE          RMSdq      gap      omega  full diag
   1  -3478.3829864 -0.347838E+04  0.270E-03   10.96       0.0  T
   2  -3478.3829868 -0.455377E-06  0.156E-03   10.96       1.1  T
   3  -3478.3829869 -0.507766E-07  0.182E-04   10.96       9.6  T
   4  -3478.3829869 -0.188384E-07  0.767E-05   10.96      22.8  T
     SCC iter.                  ...        3 min, 55.528 sec
     gradient                   ...        4 min,  7.964 sec
 * total energy  : -3427.4057363 Eh     change    :  -0.1182286E-02 Eh
   gradient norm :     0.0379304 Eh/a0  converged?    E=F G=F D=F
   time step     :     0.3660250 fs     power     :   0.4102086E-07
   step length   :     0.0374832 a0     speed     :   0.2477088E-02

........................................................................
.............................. CYCLE   30 ..............................
........................................................................

 iter      E             dE          RMSdq      gap      omega  full diag
   1  -3478.3944122 -0.347839E+04  0.289E-03   10.96       0.0  T
   2  -3478.3944124 -0.259925E-06  0.168E-03   10.96       1.0  T
   3  -3478.3944125 -0.517180E-07  0.147E-04   10.96      11.9  T
   4  -3478.3944125 -0.222731E-07  0.760E-05   10.96      23.1  T
     SCC iter.                  ...        3 min, 55.329 sec
     gradient                   ...        4 min,  7.493 sec
 * total energy  : -3427.4071795 Eh     change    :  -0.1443229E-02 Eh
   gradient norm :     0.0370542 Eh/a0  converged?    E=F G=F D=F
   time step     :     0.4026275 fs     power     :   0.4587384E-07
   step length   :     0.0453948 a0     speed     :   0.2727203E-02

........................................................................
.............................. CYCLE   31 ..............................
........................................................................

 iter      E             dE          RMSdq      gap      omega  full diag
   1  -3478.3979022 -0.347840E+04  0.319E-03   10.96       0.0  T
   2  -3478.3979027 -0.520619E-06  0.188E-03   10.96       1.0  T
   3  -3478.3979027 -0.495070E-07  0.166E-04   10.96      10.6  T
   4  -3478.3979028 -0.272971E-07  0.704E-05   10.96      24.9  T
     SCC iter.                  ...        3 min, 59.009 sec
     gradient                   ...        4 min,  7.516 sec
 * total energy  : -3427.4089200 Eh     change    :  -0.1740511E-02 Eh
   gradient norm :     0.0339355 Eh/a0  converged?    E=F G=F D=F
   time step     :     0.4428903 fs     power     :   0.4993584E-07
   step length   :     0.0551378 a0     speed     :   0.3011398E-02

........................................................................
.............................. CYCLE   32 ..............................
........................................................................

 iter      E             dE          RMSdq      gap      omega  full diag
   1  -3478.3938873 -0.347839E+04  0.367E-03   10.96       0.0  T
   2  -3478.3938887 -0.141974E-05  0.219E-03   10.96       1.0  T
   3  -3478.3938888 -0.555879E-07  0.258E-04   10.96       6.8  T
   4  -3478.3938888 -0.319592E-07  0.712E-05   10.96      24.6  T
     SCC iter.                  ...        4 min,  3.570 sec
     gradient                   ...        4 min, 10.832 sec
 * total energy  : -3427.4109024 Eh     change    :  -0.1982369E-02 Eh
   gradient norm :     0.0292803 Eh/a0  converged?    E=F G=F D=F
   time step     :     0.4871793 fs     power     :   0.5048775E-07
   step length   :     0.0670258 a0     speed     :   0.3327883E-02

........................................................................
.............................. CYCLE   33 ..............................
........................................................................

 iter      E             dE          RMSdq      gap      omega  full diag
   1  -3478.3874418 -0.347839E+04  0.424E-03   10.96       0.0  T
   2  -3478.3874441 -0.230813E-05  0.255E-03   10.96       1.0  T
   3  -3478.3874441 -0.675659E-07  0.329E-04   10.96       5.3  T
   4  -3478.3874442 -0.359892E-07  0.750E-05   10.96      23.4  T
     SCC iter.                  ...        3 min, 57.450 sec
     gradient                   ...        4 min,  8.654 sec
 * total energy  : -3427.4129909 Eh     change    :  -0.2088484E-02 Eh
   gradient norm :     0.0263712 Eh/a0  converged?    E=F G=F D=F
   time step     :     0.5358972 fs     power     :   0.4693824E-07
   step length   :     0.0809387 a0     speed     :   0.3653339E-02

........................................................................
.............................. CYCLE   34 ..............................
........................................................................

 iter      E             dE          RMSdq      gap      omega  full diag
   1  -3478.3902605 -0.347839E+04  0.477E-03   10.97       0.0  T
   2  -3478.3902623 -0.178685E-05  0.286E-03   10.97       1.0  T
   3  -3478.3902624 -0.854088E-07  0.245E-04   10.97       7.1  T
   4  -3478.3902624 -0.358227E-07  0.790E-05   10.97      22.2  T
     SCC iter.                  ...        3 min, 52.718 sec
     gradient                   ...        4 min,  8.935 sec
 * total energy  : -3427.4151190 Eh     change    :  -0.2128098E-02 Eh
   gradient norm :     0.0270595 Eh/a0  converged?    E=F G=F D=F
   time step     :     0.5894869 fs     power     :   0.4322050E-07
   step length   :     0.0960551 a0     speed     :   0.3941496E-02

........................................................................
.............................. CYCLE   35 ..............................
........................................................................

 iter      E             dE          RMSdq      gap      omega  full diag
   1  -3478.4158704 -0.347842E+04  0.543E-03   10.97       0.0  T
   2  -3478.4158709 -0.455736E-06  0.321E-03   10.97       1.0  T
   3  -3478.4158710 -0.123693E-06  0.159E-04   10.97      11.0  T
   4  -3478.4158710 -0.239233E-07  0.887E-05   10.97      19.7  T
     SCC iter.                  ...        4 min,  1.218 sec
     gradient                   ...        4 min,  7.288 sec
 * total energy  : -3427.4173963 Eh     change    :  -0.2277306E-02 Eh
   gradient norm :     0.0265724 Eh/a0  converged?    E=F G=F D=F
   time step     :     0.6484356 fs     power     :   0.4266663E-07
   step length   :     0.1118602 a0     speed     :   0.4172764E-02

........................................................................
.............................. CYCLE   36 ..............................
........................................................................

 iter      E             dE          RMSdq      gap      omega  full diag
   1  -3478.4702079 -0.347847E+04  0.651E-03   10.97       0.0  T
   2  -3478.4702092 -0.124753E-05  0.377E-03   10.97       1.0  T
   3  -3478.4702093 -0.173902E-06  0.236E-04   10.97       7.4  T
   4  -3478.4702094 -0.209661E-07  0.105E-04   10.97      16.7  T
     SCC iter.                  ...        3 min, 53.508 sec
     gradient                   ...        4 min,  7.503 sec
 * total energy  : -3427.4198579 Eh     change    :  -0.2461603E-02 Eh
   gradient norm :     0.0223364 Eh/a0  converged?    E=F G=F D=F
   time step     :     0.7132792 fs     power     :   0.4098916E-07
   step length   :     0.1297290 a0     speed     :   0.4399393E-02

........................................................................
.............................. CYCLE   37 ..............................
........................................................................

 iter      E             dE          RMSdq      gap      omega  full diag
   1  -3478.5415014 -0.347854E+04  0.739E-03   10.97       0.0  T
   2  -3478.5415045 -0.306163E-05  0.424E-03   10.97       1.0  T
   3  -3478.5415047 -0.196101E-06  0.390E-04   10.97       4.5  T
   4  -3478.5415047 -0.318691E-07  0.113E-04   10.97      15.5  T
     SCC iter.                  ...        4 min,  0.828 sec
     gradient                   ...        4 min,  8.137 sec
 * total energy  : -3427.4222834 Eh     change    :  -0.2425514E-02 Eh
   gradient norm :     0.0219848 Eh/a0  converged?    E=F G=F D=F
   time step     :     0.7846071 fs     power     :   0.3499196E-07
   step length   :     0.1503701 a0     speed     :   0.4635797E-02

........................................................................
.............................. CYCLE   38 ..............................
........................................................................

 iter      E             dE          RMSdq      gap      omega  full diag
   1  -3478.5944313 -0.347859E+04  0.704E-03   10.98       0.0  T
   2  -3478.5944322 -0.886294E-06  0.409E-03   10.98       1.0  T
   3  -3478.5944323 -0.171695E-06  0.199E-04   10.98       8.8  T
   4  -3478.5944323 -0.180098E-07  0.936E-05   10.98      18.7  T
     SCC iter.                  ...        3 min, 57.729 sec
     gradient                   ...        4 min,  7.865 sec
 * total energy  : -3427.4247389 Eh     change    :  -0.2455559E-02 Eh
   gradient norm :     0.0241515 Eh/a0  converged?    E=F G=F D=F
   time step     :     0.8630678 fs     power     :   0.3344726E-07
   step length   :     0.1711400 a0     speed     :   0.4796470E-02

........................................................................
.............................. CYCLE   39 ..............................
........................................................................

 iter      E             dE          RMSdq      gap      omega  full diag
   1  -3478.6052986 -0.347861E+04  0.653E-03   10.98       0.0  T
   2  -3478.6053008 -0.219721E-05  0.390E-03   10.98       1.0  T
   3  -3478.6053010 -0.193241E-06  0.237E-04   10.98       7.4  T
   4  -3478.6053011 -0.250898E-07  0.111E-04   10.98      15.8  T
     SCC iter.                  ...        3 min, 58.410 sec
     gradient                   ...        4 min,  6.869 sec
 * total energy  : -3427.4274925 Eh     change    :  -0.2753512E-02 Eh
   gradient norm :     0.0209337 Eh/a0  converged?    E=F G=F D=F
   time step     :     0.9493746 fs     power     :   0.3398678E-07
   step length   :     0.1937326 a0     speed     :   0.4936058E-02

........................................................................
.............................. CYCLE   40 ..............................
........................................................................

 iter      E             dE          RMSdq      gap      omega  full diag
   1  -3478.5934199 -0.347859E+04  0.652E-03   10.99       0.0  T
   2  -3478.5934248 -0.495689E-05  0.392E-03   10.99       1.0  T
   3  -3478.5934251 -0.267631E-06  0.437E-04   10.99       4.0  T
   4  -3478.5934252 -0.503237E-07  0.152E-04   10.99      11.5  T
     SCC iter.                  ...        3 min, 58.105 sec
     gradient                   ...        4 min,  6.591 sec
 * total energy  : -3427.4303779 Eh     change    :  -0.2885482E-02 Eh
   gradient norm :     0.0233406 Eh/a0  converged?    E=F G=F D=F
   time step     :     1.0443120 fs     power     :   0.3166567E-07
   step length   :     0.2208495 a0     speed     :   0.5115420E-02

........................................................................
.............................. CYCLE   41 ..............................
........................................................................

 iter      E             dE          RMSdq      gap      omega  full diag
   1  -3478.6142215 -0.347861E+04  0.728E-03   10.99       0.0  T
   2  -3478.6142224 -0.878202E-06  0.427E-03   10.99       1.0  T
   3  -3478.6142227 -0.264013E-06  0.236E-04   10.99       7.4  T
   4  -3478.6142227 -0.308742E-07  0.137E-04   11.00      12.7  T
     SCC iter.                  ...        3 min, 57.883 sec
     gradient                   ...        4 min,  7.638 sec
 * total energy  : -3427.4337460 Eh     change    :  -0.3368099E-02 Eh
   gradient norm :     0.0212705 Eh/a0  converged?    E=F G=F D=F
   time step     :     1.1487432 fs     power     :   0.3545776E-07
   step length   :     0.2499299 a0     speed     :   0.5262722E-02

........................................................................
.............................. CYCLE   42 ..............................
........................................................................

 iter      E             dE          RMSdq      gap      omega  full diag
   1  -3478.6628320 -0.347866E+04  0.873E-03   11.00       0.0  T
   2  -3478.6628357 -0.369353E-05  0.506E-03   11.00       1.0  T
   3  -3478.6628360 -0.260529E-06  0.386E-04   11.01       4.5  T
   4  -3478.6628360 -0.385094E-07  0.123E-04   11.01      14.3  T
     SCC iter.                  ...        3 min, 55.072 sec
     gradient                   ...        4 min,  7.873 sec
 * total energy  : -3427.4374354 Eh     change    :  -0.3689368E-02 Eh
   gradient norm :     0.0217485 Eh/a0  converged?    E=F G=F D=F
   time step     :     1.2500000 fs     power     :   0.3363181E-07
   step length   :     0.2836551 a0     speed     :   0.5489032E-02
 * RMSD in coord.:     0.0328276 a0     energy gain  -0.3793291E-01 Eh

........................................................................
.............................. CYCLE   43 ..............................
........................................................................

 iter      E             dE          RMSdq      gap      omega  full diag
   1  -3478.6656001 -0.347867E+04  0.142E-03   11.01       0.0  T
   2  -3478.6656002 -0.382724E-07  0.831E-04   11.01       2.1  T
   3  -3478.6656002 -0.100754E-07  0.488E-05   11.01      35.9  T
     SCC iter.                  ...        3 min,  1.020 sec
     gradient                   ...        4 min,  8.132 sec
 * total energy  : -3427.4381446 Eh     change    :  -0.7092274E-03 Eh
   gradient norm :     0.0216417 Eh/a0  converged?    E=F G=F D=F
   time step     :     0.2500000 fs     power     :   0.3699562E-07
   step length   :     0.0549502 a0     speed     :   0.5316725E-02

........................................................................
.............................. CYCLE   44 ..............................
........................................................................

 iter      E             dE          RMSdq      gap      omega  full diag
   1  -3478.6621735 -0.347866E+04  0.136E-03   11.01       0.0  T
   2  -3478.6621737 -0.172652E-06  0.800E-04   11.01       2.2  T
   3  -3478.6621737 -0.110476E-07  0.853E-05   11.01      20.5  T
     SCC iter.                  ...        3 min,  0.345 sec
     gradient                   ...        4 min,  7.749 sec
 * total energy  : -3427.4389024 Eh     change    :  -0.7577744E-03 Eh
   gradient norm :     0.0200256 Eh/a0  converged?    E=F G=F D=F
   time step     :     0.2500000 fs     power     :   0.3936967E-07
   step length   :     0.0536994 a0     speed     :   0.5195707E-02

........................................................................
.............................. CYCLE   45 ..............................
........................................................................

 iter      E             dE          RMSdq      gap      omega  full diag
   1  -3478.6543333 -0.347865E+04  0.149E-03   11.01       0.0  T
   2  -3478.6543337 -0.405550E-06  0.874E-04   11.01       2.0  T
   3  -3478.6543337 -0.138189E-07  0.157E-04   11.01      11.2  T
     SCC iter.                  ...        2 min, 58.438 sec
     gradient                   ...        4 min,  7.235 sec
 * total energy  : -3427.4396754 Eh     change    :  -0.7730156E-03 Eh
   gradient norm :     0.0179358 Eh/a0  converged?    E=F G=F D=F
   time step     :     0.2500000 fs     power     :   0.3966763E-07
   step length   :     0.0530548 a0     speed     :   0.5133334E-02

........................................................................
.............................. CYCLE   46 ..............................
........................................................................

 iter      E             dE          RMSdq      gap      omega  full diag
   1  -3478.6449255 -0.347864E+04  0.162E-03   11.01       0.0  T
   2  -3478.6449260 -0.518229E-06  0.950E-04   11.01       1.8  T
   3  -3478.6449260 -0.157897E-07  0.182E-04   11.01       9.6  T
     SCC iter.                  ...        2 min, 56.812 sec
     gradient                   ...        4 min,  7.539 sec
 * total energy  : -3427.4404308 Eh     change    :  -0.7553360E-03 Eh
   gradient norm :     0.0168101 Eh/a0  converged?    E=F G=F D=F
   time step     :     0.2500000 fs     power     :   0.3842037E-07
   step length   :     0.0528881 a0     speed     :   0.5117207E-02

........................................................................
.............................. CYCLE   47 ..............................
........................................................................

 iter      E             dE          RMSdq      gap      omega  full diag
   1  -3478.6374323 -0.347864E+04  0.166E-03   11.01       0.0  T
   2  -3478.6374327 -0.388533E-06  0.967E-04   11.01       1.8  T
   3  -3478.6374327 -0.149616E-07  0.146E-04   11.01      12.0  T
     SCC iter.                  ...        2 min, 57.639 sec
     gradient                   ...        4 min,  7.215 sec
 * total energy  : -3427.4411601 Eh     change    :  -0.7293099E-03 Eh
   gradient norm :     0.0169906 Eh/a0  converged?    E=F G=F D=F
   time step     :     0.2500000 fs     power     :   0.3723992E-07
   step length   :     0.0528330 a0     speed     :   0.5111880E-02

........................................................................
.............................. CYCLE   48 ..............................
........................................................................

 iter      E             dE          RMSdq      gap      omega  full diag
   1  -3478.6343145 -0.347863E+04  0.179E-03   11.02       0.0  T
   2  -3478.6343147 -0.189137E-06  0.104E-03   11.02       1.7  T
   3  -3478.6343147 -0.148416E-07  0.839E-05   11.02      20.9  T
   4  -3478.6343147 -0.434602E-08  0.300E-05   11.02      58.3  T
     SCC iter.                  ...        3 min, 55.491 sec
     gradient                   ...        4 min,  6.396 sec
 * total energy  : -3427.4419499 Eh     change    :  -0.7898460E-03 Eh
   gradient norm :     0.0173369 Eh/a0  converged?    E=F G=F D=F
   time step     :     0.2750000 fs     power     :   0.3695094E-07
   step length   :     0.0579541 a0     speed     :   0.5097611E-02

........................................................................
.............................. CYCLE   49 ..............................
........................................................................

 iter      E             dE          RMSdq      gap      omega  full diag
   1  -3478.6379656 -0.347864E+04  0.196E-03   11.02       0.0  T
   2  -3478.6379657 -0.649334E-07  0.115E-03   11.02       1.5  T
   3  -3478.6379657 -0.155910E-07  0.579E-05   11.02      30.3  T
   4  -3478.6379657 -0.419004E-08  0.271E-05   11.02      64.7  T
     SCC iter.                  ...        3 min, 53.625 sec
     gradient                   ...        4 min,  7.965 sec
 * total energy  : -3427.4428196 Eh     change    :  -0.8697084E-03 Eh
   gradient norm :     0.0165759 Eh/a0  converged?    E=F G=F D=F
   time step     :     0.3025000 fs     power     :   0.3707523E-07
   step length   :     0.0635829 a0     speed     :   0.5084287E-02

........................................................................
.............................. CYCLE   50 ..............................
........................................................................

 iter      E             dE          RMSdq      gap      omega  full diag
   1  -3478.6490562 -0.347865E+04  0.224E-03   11.02       0.0  T
   2  -3478.6490564 -0.201493E-06  0.131E-03   11.02       1.3  T
   3  -3478.6490564 -0.210252E-07  0.864E-05   11.02      20.3  T
   4  -3478.6490564 -0.402770E-08  0.334E-05   11.02      52.5  T
     SCC iter.                  ...        3 min, 54.993 sec
     gradient                   ...        4 min,  7.578 sec
 * total energy  : -3427.4437636 Eh     change    :  -0.9440012E-03 Eh
   gradient norm :     0.0146531 Eh/a0  converged?    E=F G=F D=F
   time step     :     0.3327500 fs     power     :   0.3617961E-07
   step length   :     0.0701507 a0     speed     :   0.5099517E-02

........................................................................
.............................. CYCLE   51 ..............................
........................................................................

 iter      E             dE          RMSdq      gap      omega  full diag
   1  -3478.6652431 -0.347867E+04  0.250E-03   11.02       0.0  T
   2  -3478.6652436 -0.472119E-06  0.146E-03   11.02       1.2  T
   3  -3478.6652436 -0.273185E-07  0.144E-04   11.02      12.1  T
   4  -3478.6652436 -0.547379E-08  0.417E-05   11.02      42.0  T
     SCC iter.                  ...        4 min,  2.931 sec
     gradient                   ...        4 min,  7.562 sec
 * total energy  : -3427.4447475 Eh     change    :  -0.9838243E-03 Eh
   gradient norm :     0.0134767 Eh/a0  converged?    E=F G=F D=F
   time step     :     0.3660250 fs     power     :   0.3370337E-07
   step length   :     0.0780346 a0     speed     :   0.5156934E-02

........................................................................
.............................. CYCLE   52 ..............................
........................................................................

 iter      E             dE          RMSdq      gap      omega  full diag
   1  -3478.6796512 -0.347868E+04  0.255E-03   11.03       0.0  T
   2  -3478.6796516 -0.378207E-06  0.149E-03   11.03       1.2  T
   3  -3478.6796516 -0.295245E-07  0.121E-04   11.03      14.4  T
   4  -3478.6796516 -0.545651E-08  0.418E-05   11.03      42.0  T
     SCC iter.                  ...        3 min, 52.685 sec
     gradient                   ...        4 min,  7.453 sec
 * total energy  : -3427.4457564 Eh     change    :  -0.1008914E-02 Eh
   gradient norm :     0.0142285 Eh/a0  converged?    E=F G=F D=F
   time step     :     0.4026275 fs     power     :   0.3146005E-07
   step length   :     0.0868259 a0     speed     :   0.5216279E-02

........................................................................
.............................. CYCLE   53 ..............................
........................................................................

 iter      E             dE          RMSdq      gap      omega  full diag
   1  -3478.6846757 -0.347868E+04  0.245E-03   11.03       0.0  T
   2  -3478.6846758 -0.105235E-06  0.144E-03   11.03       1.2  T
   3  -3478.6846758 -0.298655E-07  0.730E-05   11.03      24.0  T
   4  -3478.6846758 -0.459295E-08  0.390E-05   11.03      44.9  T
     SCC iter.                  ...        3 min, 56.639 sec
     gradient                   ...        4 min,  9.586 sec
 * total energy  : -3427.4468281 Eh     change    :  -0.1071748E-02 Eh
   gradient norm :     0.0142859 Eh/a0  converged?    E=F G=F D=F
   time step     :     0.4428903 fs     power     :   0.3076929E-07
   step length   :     0.0957541 a0     speed     :   0.5229695E-02

........................................................................
.............................. CYCLE   54 ..............................
........................................................................

 iter      E             dE          RMSdq      gap      omega  full diag
   1  -3478.6773923 -0.347868E+04  0.253E-03   11.03       0.0  T
   2  -3478.6773927 -0.423131E-06  0.149E-03   11.03       1.2  T
   3  -3478.6773928 -0.381606E-07  0.122E-04   11.03      14.4  T
   4  -3478.6773928 -0.628188E-08  0.491E-05   11.03      35.6  T
     SCC iter.                  ...        3 min, 57.637 sec
     gradient                   ...        4 min,  9.355 sec
 * total energy  : -3427.4479810 Eh     change    :  -0.1152903E-02 Eh
   gradient norm :     0.0127063 Eh/a0  converged?    E=F G=F D=F
   time step     :     0.4871793 fs     power     :   0.2983225E-07
   step length   :     0.1055994 a0     speed     :   0.5243093E-02

........................................................................
.............................. CYCLE   55 ..............................
........................................................................

 iter      E             dE          RMSdq      gap      omega  full diag
   1  -3478.6632216 -0.347866E+04  0.264E-03   11.04       0.0  T
   2  -3478.6632225 -0.914299E-06  0.156E-03   11.04       1.1  T
   3  -3478.6632226 -0.505897E-07  0.215E-04   11.04       8.1  T
   4  -3478.6632226 -0.980890E-08  0.643E-05   11.04      27.3  T
     SCC iter.                  ...        3 min, 57.482 sec
     gradient                   ...        4 min,  6.538 sec
 * total energy  : -3427.4491796 Eh     change    :  -0.1198555E-02 Eh
   gradient norm :     0.0128269 Eh/a0  converged?    E=F G=F D=F
   time step     :     0.5358972 fs     power     :   0.2781962E-07
   step length   :     0.1172522 a0     speed     :   0.5292423E-02

........................................................................
.............................. CYCLE   56 ..............................
........................................................................

 iter      E             dE          RMSdq      gap      omega  full diag
   1  -3478.6569844 -0.347866E+04  0.254E-03   11.04       0.0  T
   2  -3478.6569848 -0.389677E-06  0.150E-03   11.04       1.2  T
   3  -3478.6569849 -0.491063E-07  0.133E-04   11.04      13.1  T
   4  -3478.6569849 -0.902764E-08  0.633E-05   11.04      27.7  T
     SCC iter.                  ...        3 min, 59.090 sec
     gradient                   ...        4 min,  7.018 sec
 * total energy  : -3427.4504511 Eh     change    :  -0.1271487E-02 Eh
   gradient norm :     0.0136659 Eh/a0  converged?    E=F G=F D=F
   time step     :     0.5894869 fs     power     :   0.2734358E-07
   step length   :     0.1295304 a0     speed     :   0.5315114E-02

........................................................................
.............................. CYCLE   57 ..............................
........................................................................

 iter      E             dE          RMSdq      gap      omega  full diag
   1  -3478.6682174 -0.347867E+04  0.283E-03   11.05       0.0  T
   2  -3478.6682177 -0.305127E-06  0.165E-03   11.05       1.1  T
   3  -3478.6682178 -0.383234E-07  0.140E-04   11.05      12.6  T
   4  -3478.6682178 -0.128184E-07  0.571E-05   11.05      30.7  T
     SCC iter.                  ...        3 min, 54.387 sec
     gradient                   ...        4 min,  6.181 sec
 * total energy  : -3427.4518512 Eh     change    :  -0.1400121E-02 Eh
   gradient norm :     0.0122002 Eh/a0  converged?    E=F G=F D=F
   time step     :     0.6484356 fs     power     :   0.2730991E-07
   step length   :     0.1427254 a0     speed     :   0.5324141E-02

........................................................................
.............................. CYCLE   58 ..............................
........................................................................

 iter      E             dE          RMSdq      gap      omega  full diag
   1  -3478.6914799 -0.347869E+04  0.325E-03   11.06       0.0  T
   2  -3478.6914806 -0.714542E-06  0.188E-03   11.06       1.0  T
   3  -3478.6914806 -0.381224E-07  0.205E-04   11.06       8.5  T
   4  -3478.6914807 -0.141408E-07  0.568E-05   11.06      30.8  T
     SCC iter.                  ...        3 min, 56.203 sec
     gradient                   ...        4 min,  7.202 sec
 * total energy  : -3427.4533414 Eh     change    :  -0.1490259E-02 Eh
   gradient norm :     0.0126402 Eh/a0  converged?    E=F G=F D=F
   time step     :     0.7132792 fs     power     :   0.2606722E-07
   step length   :     0.1586635 a0     speed     :   0.5380625E-02

........................................................................
.............................. CYCLE   59 ..............................
........................................................................

 iter      E             dE          RMSdq      gap      omega  full diag
   1  -3478.7059307 -0.347871E+04  0.308E-03   11.06       0.0  T
   2  -3478.7059309 -0.218907E-06  0.182E-03   11.06       1.0  T
   3  -3478.7059310 -0.487435E-07  0.118E-04   11.06      14.9  T
   4  -3478.7059310 -0.975706E-08  0.653E-05   11.06      26.8  T
     SCC iter.                  ...        3 min, 56.936 sec
     gradient                   ...        4 min,  7.823 sec
 * total energy  : -3427.4549672 Eh     change    :  -0.1625731E-02 Eh
   gradient norm :     0.0123247 Eh/a0  converged?    E=F G=F D=F
   time step     :     0.7846071 fs     power     :   0.2635789E-07
   step length   :     0.1756854 a0     speed     :   0.5416249E-02

........................................................................
.............................. CYCLE   60 ..............................
........................................................................

 iter      E             dE          RMSdq      gap      omega  full diag
   1  -3478.7070171 -0.347871E+04  0.327E-03   11.07       0.0  T
   2  -3478.7070184 -0.130867E-05  0.199E-03   11.07       1.0  T
   3  -3478.7070185 -0.669193E-07  0.235E-04   11.07       7.4  T
   4  -3478.7070185 -0.161822E-07  0.805E-05   11.07      21.8  T
     SCC iter.                  ...        3 min, 59.212 sec
     gradient                   ...        4 min,  6.775 sec
 * total energy  : -3427.4567306 Eh     change    :  -0.1763398E-02 Eh
   gradient norm :     0.0112385 Eh/a0  converged?    E=F G=F D=F
   time step     :     0.8630678 fs     power     :   0.2531805E-07
   step length   :     0.1954675 a0     speed     :   0.5478287E-02

........................................................................
.............................. CYCLE   61 ..............................
........................................................................

 iter      E             dE          RMSdq      gap      omega  full diag
   1  -3478.7237946 -0.347872E+04  0.380E-03   11.08       0.0  T
   2  -3478.7237950 -0.388387E-06  0.227E-03   11.08       1.0  T
   3  -3478.7237950 -0.591886E-07  0.127E-04   11.08      13.8  T
   4  -3478.7237950 -0.106916E-07  0.655E-05   11.08      26.8  T
     SCC iter.                  ...        3 min, 55.178 sec
     gradient                   ...        4 min,  8.114 sec
 * total energy  : -3427.4585984 Eh     change    :  -0.1867839E-02 Eh
   gradient norm :     0.0110652 Eh/a0  converged?    E=F G=F D=F
   time step     :     0.9493746 fs     power     :   0.2466625E-07
   step length   :     0.2182183 a0     speed     :   0.5559920E-02

........................................................................
.............................. CYCLE   62 ..............................
........................................................................

 iter      E             dE          RMSdq      gap      omega  full diag
   1  -3478.7675599 -0.347877E+04  0.533E-03   11.09       0.0  T
   2  -3478.7675610 -0.116641E-05  0.308E-03   11.09       1.0  T
   3  -3478.7675611 -0.820155E-07  0.237E-04   11.09       7.4  T
   4  -3478.7675611 -0.136620E-07  0.725E-05   11.09      24.2  T
     SCC iter.                  ...        3 min, 57.213 sec
     gradient                   ...        4 min,  6.660 sec
 * total energy  : -3427.4605506 Eh     change    :  -0.1952238E-02 Eh
   gradient norm :     0.0102588 Eh/a0  converged?    E=F G=F D=F
   time step     :     1.0443120 fs     power     :   0.2256485E-07
   step length   :     0.2436879 a0     speed     :   0.5644413E-02

........................................................................
.............................. CYCLE   63 ..............................
........................................................................

 iter      E             dE          RMSdq      gap      omega  full diag
   1  -3478.7843148 -0.347878E+04  0.505E-03   11.10       0.0  T
   2  -3478.7843156 -0.809053E-06  0.299E-03   11.10       1.0  T
   3  -3478.7843157 -0.733808E-07  0.169E-04   11.10      10.4  T
   4  -3478.7843157 -0.248465E-07  0.718E-05   11.10      24.4  T
     SCC iter.                  ...        3 min, 56.105 sec
     gradient                   ...        4 min,  8.397 sec
 * total energy  : -3427.4625398 Eh     change    :  -0.1989119E-02 Eh
   gradient norm :     0.0090110 Eh/a0  converged?    E=F G=F D=F
   time step     :     1.1487432 fs     power     :   0.2109273E-07
   step length   :     0.2715636 a0     speed     :   0.5718256E-02

........................................................................
.............................. CYCLE   64 ..............................
........................................................................

 iter      E             dE          RMSdq      gap      omega  full diag
   1  -3478.7821009 -0.347878E+04  0.510E-03   11.11       0.0  T
   2  -3478.7821027 -0.180395E-05  0.305E-03   11.11       1.0  T
   3  -3478.7821027 -0.716695E-07  0.232E-04   11.11       7.6  T
   4  -3478.7821028 -0.292221E-07  0.755E-05   11.11      23.2  T
     SCC iter.                  ...        3 min, 54.538 sec
     gradient                   ...        4 min,  7.721 sec
 * total energy  : -3427.4644978 Eh     change    :  -0.1957991E-02 Eh
   gradient norm :     0.0105195 Eh/a0  converged?    E=F G=F D=F
   time step     :     1.2500000 fs     power     :   0.1860451E-07
   step length   :     0.3000543 a0     speed     :   0.5806373E-02

........................................................................
.............................. CYCLE   65 ..............................
........................................................................

 iter      E             dE          RMSdq      gap      omega  full diag
   1  -3478.8223614 -0.347882E+04  0.608E-03   11.12       0.0  T
   2  -3478.8223632 -0.179681E-05  0.352E-03   11.12       1.0  T
   3  -3478.8223633 -0.724890E-07  0.294E-04   11.12       5.9  T
   4  -3478.8223633 -0.308310E-07  0.752E-05   11.12      23.3  T
     SCC iter.                  ...        3 min, 57.119 sec
     gradient                   ...        4 min,  7.522 sec
 * total energy  : -3427.4663079 Eh     change    :  -0.1810103E-02 Eh
   gradient norm :     0.0102183 Eh/a0  converged?    E=F G=F D=F
   time step     :     1.2500000 fs     power     :   0.1684884E-07
   step length   :     0.2992824 a0     speed     :   0.5791436E-02

........................................................................
.............................. CYCLE   66 ..............................
........................................................................

 iter      E             dE          RMSdq      gap      omega  full diag
   1  -3478.8245821 -0.347882E+04  0.450E-03   11.13       0.0  T
   2  -3478.8245834 -0.132243E-05  0.269E-03   11.13       1.0  T
   3  -3478.8245835 -0.761820E-07  0.205E-04   11.13       8.6  T
   4  -3478.8245835 -0.215377E-07  0.837E-05   11.13      20.9  T
     SCC iter.                  ...        4 min,  4.109 sec
     gradient                   ...        4 min,  7.681 sec
 * total energy  : -3427.4680159 Eh     change    :  -0.1708047E-02 Eh
   gradient norm :     0.0086861 Eh/a0  converged?    E=F G=F D=F
   time step     :     1.2500000 fs     power     :   0.1649200E-07
[...]
  3011   6 C     3012   6 C                                       1.5261324
  3012   6 C     3013   6 C                                       1.5272319
  3013   6 C     3014   6 C                                       1.5261013
  3014   6 C     3015   6 C                                       1.5267480
  3015   6 C     3016   6 C                                       1.5236033
  3015   6 C     3017   1 H                                       1.0926563
  3015   6 C     3018   1 H                                       1.0929337
  3014   6 C     3019   1 H                                       1.0932918
  3014   6 C     3020   1 H                                       1.0918125
  3013   6 C     3021   1 H                                       1.0932582
  3013   6 C     3022   1 H                                       1.0932558
  3012   6 C     3023   1 H                                       1.0932682
  3012   6 C     3024   1 H                                       1.0916511
  3011   6 C     3025   1 H                                       1.0932557
  3011   6 C     3026   1 H                                       1.0932532
  3010   6 C     3027   1 H                                       1.0932443
  3010   6 C     3028   1 H                                       1.0916524
  3009   6 C     3029   1 H                                       1.0932344
  3009   6 C     3030   1 H                                       1.0933494
  3008   6 C     3031   1 H                                       1.0933104
  3008   6 C     3032   1 H                                       1.0917651
  3007   6 C     3033   1 H                                       1.0931417
  3007   6 C     3034   1 H                                       1.0933299
  3006   6 C     3035   1 H                                       1.0933453
  3006   6 C     3036   1 H                                       1.0918303
  3005   6 C     3037   1 H                                       1.0931002
  3005   6 C     3038   1 H                                       1.0932849
  3004   6 C     3039   1 H                                       1.0933071
  3004   6 C     3040   1 H                                       1.0918689
  3003   6 C     3041   1 H                                       1.0931754
  3003   6 C     3042   1 H                                       1.0931776
  3002   6 C     3043   1 H                                       1.0931630
  3002   6 C     3044   1 H                                       1.0917604
  3001   6 C     3045   1 H                                       1.0933779
  3001   6 C     3046   1 H                                       1.0930273
  3000   6 C     3047   1 H                                       1.0929645
  3000   6 C     3048   1 H                                       1.0909618
  2999   6 C     3049   1 H                                       1.0934740
  2999   6 C     3050   1 H                                       1.0932063
  2998   6 C     3051   1 H                                       1.0932326
  2998   6 C     3052   1 H                                       1.0906779
  2997   6 C     3053   1 H                                       1.0915204
  2997   6 C     3054   1 H                                       1.0937503
  2996   6 C     3055   1 H                                       1.0938738
  2996   6 C     3056   1 H                                       1.0937772
  2995   6 C     3057   1 H                                       1.0940502
  2995   6 C     3058   1 H                                       1.0912886
  2994   6 C     3059   1 H                                       1.0917185
  2994   6 C     3060   1 H                                       1.0930424
  2993   6 C     3061   1 H                                       1.0931970
  2993   6 C     3062   1 H                                       1.0912543
  2992   6 C     3063   1 H                                       1.0922218
  2992   6 C     3064   1 H                                       1.0932436
  2991   6 C     3065   1 H                                       1.0930613
  2991   6 C     3066   1 H                                       1.0920544
  2990   6 C     3067   1 H                                       1.0934832
  2990   6 C     3068   1 H                                       1.0938767
  2989   6 C     3069   1 H                                       1.0923227
  2989   6 C     3070   1 H                                       1.0922896
  2988   6 C     3071   1 H                                       1.0930195
  2988   6 C     3072   1 H                                       1.0937846
  2987   6 C     3073   1 H                                       1.0939608
  2987   6 C     3074   1 H                                       1.0903668
  2986   6 C     3075   1 H                                       1.0909581
  2986   6 C     3076   1 H                                       1.0939280
  2985   6 C     3077   1 H                                       1.0940046
  2985   6 C     3078   1 H                                       1.0934605
  2984   6 C     3079   1 H                                       1.0925049
  2984   6 C     3080   1 H                                       1.0899806
  2983   6 C     3081   1 H                                       1.0894459
  2983   6 C     3082   1 H                                       1.0938560
  2982   6 C     3083   1 H                                       1.0918793
  2982   6 C     3084   1 H                                       1.0938874
  2981   6 C     3085   1 H                                       1.0930140
  2981   6 C     3086   1 H                                       1.0917367
  2980   6 C     3087   1 H                                       1.0920490
  2980   6 C     3088   1 H                                       1.0913721
  2979   6 C     3089   1 H                                       1.0918640
  2979   6 C     3090   1 H                                       1.0938257
  2978   6 C     3091   1 H                                       1.0924058
  2978   6 C     3092   1 H                                       1.0926140
  2977   6 C     3093   1 H                                       1.0939022
  2977   6 C     3094   1 H                                       1.0941693
  2976   6 C     3095   1 H                                       1.0916027
  2976   6 C     3096   1 H                                       1.0926431
  2975   6 C     3097   1 H                                       1.0938121
  2975   6 C     3098   1 H                                       1.0914597
  2974   6 C     3099   1 H                                       1.0931929
  2974   6 C     3100   1 H                                       1.0944490
  2973   6 C     3101   1 H                                       1.0929411
  2973   6 C     3102   1 H                                       1.0919405
  2972   6 C     3103   1 H                                       1.0930237
  2972   6 C     3104   1 H                                       1.0929028
  2971   6 C     3105   1 H                                       1.0928099
  2971   6 C     3106   1 H                                       1.0934392
  2970   6 C     3107   1 H                                       1.0924552
  2970   6 C     3108   1 H                                       1.0935852
  2969   6 C     3109   1 H                                       1.0928365
  2969   6 C     3110   1 H                                       1.0931015
  2968   6 C     3111   1 H                                       1.0923513
  2968   6 C     3112   1 H                                       1.0938167
  2967   6 C     3113   1 H                                       1.0939793
  2967   6 C     3114   1 H                                       1.0925269
  2966   6 C     3115   1 H                                       1.0927699
  2966   6 C     3116   1 H                                       1.0920166
  2965   6 C     3117   1 H                                       1.0931102
  2965   6 C     3118   1 H                                       1.0925963
  2964   6 C     3119   1 H                                       1.0930341
  2964   6 C     3120   1 H                                       1.0920947
  2963   6 C     3121   1 H                                       1.0917801
  2963   6 C     3122   1 H                                       1.0916535
  2962   6 C     3123   1 H                                       1.0936373
  2962   6 C     3124   1 H                                       1.0917552
  2961   6 C     3125   1 H                                       1.0936082
  2961   6 C     3126   1 H                                       1.0925720
  2960   6 C     3127   1 H                                       1.0910362
  2960   6 C     3128   1 H                                       1.0933885
  2959   6 C     3129   1 H                                       1.0934924
  2959   6 C     3130   1 H                                       1.0925294
  2958   6 C     3131   1 H                                       1.0926645
  2958   6 C     3132   1 H                                       1.0941351
  2957   6 C     3133   1 H                                       1.0923630
  2957   6 C     3134   1 H                                       1.0916761
  2956   6 C     3135   1 H                                       1.0926098
  2956   6 C     3136   1 H                                       1.0936020
  2955   6 C     3137   1 H                                       1.0926248
  2955   6 C     3138   1 H                                       1.0914877
  2954   6 C     3139   1 H                                       1.0936577
  2954   6 C     3140   1 H                                       1.0934928
  2953   6 C     3141   1 H                                       1.0917898
  2953   6 C     3142   1 H                                       1.0943441
  2952   6 C     3143   1 H                                       1.0936967
  2952   6 C     3144   1 H                                       1.0917243
  2951   6 C     3145   1 H                                       1.0922829
  2951   6 C     3146   1 H                                       1.0916030
  2950   6 C     3147   1 H                                       1.0936148
  2950   6 C     3148   1 H                                       1.0931646
  2949   6 C     3149   1 H                                       1.0938820
  2949   6 C     3150   1 H                                       1.0928032
  2948   6 C     3151   1 H                                       1.0917187
  2948   6 C     3152   1 H                                       1.0932134
  2947   6 C     3153   1 H                                       1.0929242
  2947   6 C     3154   1 H                                       1.0931720
  2946   6 C     3155   1 H                                       1.0933878
  2946   6 C     3156   1 H                                       1.0915410
  2945   6 C     3157   1 H                                       1.0918287
  2945   6 C     3158   1 H                                       1.0936835
  2944   6 C     3159   1 H                                       1.0935810
  2944   6 C     3160   1 H                                       1.0934061
  2943   6 C     3161   1 H                                       1.0935967
  2943   6 C     3162   1 H                                       1.0910518
  2942   6 C     3163   1 H                                       1.0915920
  2942   6 C     3164   1 H                                       1.0932458
  2941   6 C     3165   1 H                                       1.0933947
  2941   6 C     3166   1 H                                       1.0923955
  2940   6 C     3167   1 H                                       1.0908232
  2940   6 C     3168   1 H                                       1.0933673
  2939   6 C     3169   1 H                                       1.0932623
  2939   6 C     3170   1 H                                       1.0918753
  2938   6 C     3171   1 H                                       1.0930211
  2938   6 C     3172   1 H                                       1.0933317
  2937   6 C     3173   1 H                                       1.0913354
  2937   6 C     3174   1 H                                       1.0912735
  2936   6 C     3175   1 H                                       1.0933463
  2936   6 C     3176   1 H                                       1.0931565
  2935   6 C     3177   1 H                                       1.0928821
  2935   6 C     3178   1 H                                       1.0934001
  2934   6 C     3179   1 H                                       1.0932191
  2934   6 C     3180   1 H                                       1.0908852
  2933   6 C     3181   1 H                                       1.0922814
  2933   6 C     3182   1 H                                       1.0935055
  2932   6 C     3183   1 H                                       1.0934512
  2932   6 C     3184   1 H                                       1.0933683
  2931   6 C     3185   1 H                                       1.0919978
  2931   6 C     3186   1 H                                       1.0928689
  2930   6 C     3187   1 H                                       1.0931081
  2930   6 C     3188   1 H                                       1.0931062
  2929   6 C     3189   1 H                                       1.0929415
  2929   6 C     3190   1 H                                       1.0923856
  2928   6 C     3191   1 H                                       1.0918001
  2928   6 C     3192   1 H                                       1.0941446
  2927   6 C     3193   1 H                                       1.0929172
  2927   6 C     3194   1 H                                       1.0927338
  2926   6 C     3195   1 H                                       1.0930498
  2926   6 C     3196   1 H                                       1.0933976
  2925   6 C     3197   1 H                                       1.0908709
  2925   6 C     3198   1 H                                       1.0927812
  2924   6 C     3199   1 H                                       1.0938371
  2924   6 C     3200   1 H                                       1.0943053
  2923   6 C     3201   1 H                                       1.0904737
  2923   6 C     3202   1 H                                       1.0936228
  2922   6 C     3203   1 H                                       1.0944648
  2922   6 C     3204   1 H                                       1.0912672
  2921   6 C     3205   1 H                                       1.0903908
  2921   6 C     3206   1 H                                       1.0929667
  2920   6 C     3207   1 H                                       1.0933305
  2920   6 C     3208   1 H                                       1.0924447
  2919   6 C     3209   1 H                                       1.0921328
  2919   6 C     3210   1 H                                       1.0947182
  2918   6 C     3211   1 H                                       1.0928787
  2918   6 C     3212   1 H                                       1.0909239
  2917   6 C     3213   1 H                                       1.0920765
  2917   6 C     3214   1 H                                       1.0919828
  2916   6 C     3215   1 H                                       1.0932318
  2916   6 C     3216   1 H                                       1.0929498
  2915   6 C     3217   1 H                                       1.0939220
  2915   6 C     3218   1 H                                       1.0934835
  2914   6 C     3219   1 H                                       1.0917483
  2914   6 C     3220   1 H                                       1.0928903
  2913   6 C     3221   1 H                                       1.0929701
  2913   6 C     3222   1 H                                       1.0941539
  2912   6 C     3223   1 H                                       1.0929721
  2912   6 C     3224   1 H                                       1.0936885
  2911   6 C     3225   1 H                                       1.0922755
  2911   6 C     3226   1 H                                       1.0933832
  2910   6 C     3227   1 H                                       1.0931796
  2910   6 C     3228   1 H                                       1.0923917
  2909   6 C     3229   1 H                                       1.0911432
  2909   6 C     3230   1 H                                       1.0928101
  2908   6 C     3231   1 H                                       1.0928090
  2908   6 C     3232   1 H                                       1.0939083
  2907   6 C     3233   1 H                                       1.0936628
  2907   6 C     3234   1 H                                       1.0920819
  2906   6 C     3235   1 H                                       1.0942648
  2906   6 C     3236   1 H                                       1.0907733
  2905   6 C     3237   1 H                                       1.0905149
  2905   6 C     3238   1 H                                       1.0915098
  2904   6 C     3239   1 H                                       1.0940956
  2904   6 C     3240   1 H                                       1.0929377
  2903   6 C     3241   1 H                                       1.0931583
  2903   6 C     3242   1 H                                       1.0938671
  2902   6 C     3243   1 H                                       1.0929534
  2902   6 C     3244   1 H                                       1.0914833
  2901   6 C     3245   1 H                                       1.0921587
  2901   6 C     3246   1 H                                       1.0935199
  2900   6 C     3247   1 H                                       1.0932628
  2900   6 C     3248   1 H                                       1.0919078
  2899   6 C     3249   1 H                                       1.0929509
  2899   6 C     3250   1 H                                       1.0932730
  2898   6 C     3251   1 H                                       1.0926172
  2898   6 C     3252   1 H                                       1.0915325
  2897   6 C     3253   1 H                                       1.0879901
  2897   6 C     3254   1 H                                       1.0880068
  2897   6 C     3255   1 H                                       1.0878604
  3016   6 C     3256   1 H                                       1.0875857
  3016   6 C     3257   1 H                                       1.0877293
  3016   6 C     3258   1 H                                       1.0882789

 * 2 distinct bonds (by element types)

   Z      Z             #   av. dist./Å        max./Å        min./Å
   1 H    6 C        2178     1.0925856     1.0952573     1.0860518
   6 C    6 C        1071     1.5271875     1.5336055     1.5218777


optimized geometry written to: xtbopt.xyz


           -------------------------------------------------
          | TOTAL ENERGY            -3427.536665779870 Eh   |
          | GRADIENT NORM               0.000695284041 Eh/α |
          | HOMO-LUMO GAP              11.393823036186 eV   |
           -------------------------------------------------

------------------------------------------------------------------------
 * finished run on 2024/06/20 at 19:07:43.568     
------------------------------------------------------------------------
 total:
 * wall-time:     3 d,  3 h, 50 min,  6.741 sec
 *  cpu-time:    15 d, 22 h, 55 min, 13.724 sec
 * ratio c/w:     5.049 speedup
 SCF:
 * wall-time:     0 d,  0 h,  7 min, 27.975 sec
 *  cpu-time:     0 d,  0 h, 37 min, 15.672 sec
 * ratio c/w:     4.991 speedup
 ANC optimizer:
 * wall-time:     3 d,  3 h, 41 min, 56.234 sec
 *  cpu-time:    15 d, 22 h, 16 min, 59.772 sec
 * ratio c/w:     5.050 speedup

