3258
 energy: -3427.536665779870 gnorm: 0.000695284041 xtb: 6.6.1 (8d0f1dd)
C           97.26024062436289      117.17652000485852      101.14320845164367
C           96.28267501793796      116.12741813629684      100.62857804655701
C           96.74262361019535      114.70913920070178      100.95763121260065
C           95.77369465372705      113.65611668275382      100.42573777445250
C           96.21947708778565      112.22857304727462      100.73535716726859
C           95.24303165065297      111.19917802983979      100.17294233025015
C           95.69919261090769      109.76117091973617      100.40830746818119
C           94.69468644174302      108.76356159678068       99.83750308725897
C           95.05913883403940      107.30122593639845      100.09184187496912
C           96.35036993828022      106.86605993092765       99.40016604265870
C           96.48431708551097      105.34550613556648       99.35833163549134
C           97.80058772578592      104.89870495884665       98.72832237649760
C           97.89334082955381      103.38055992928983       98.60045938096913
C           99.21876971067603      102.93196659832014       97.98950788547222
C           99.29970057302489      101.41216900947839       97.86108545312892
C          100.54838488064514      100.92864009839552       97.12235054224915
C          101.83881349425000      101.12040472272516       97.91537615616869
C          103.05481112883967      100.62458435993845       97.13629655514106
C          104.37747685476882      100.89260865796152       97.85533223686822
C          104.68131720289594       99.91726045505183       98.99077088150663
C          106.00535506454979      100.26672550796197       99.66683135368231
C          106.42503517586646       99.25433194155076      100.72913689925612
C          107.72916017108690       99.66754447239785      101.40723066519601
C          108.20161515383778       98.65798579671214      102.44979816926933
C          109.45491198833170       99.13872475370377      103.17660448022210
C          109.92794508552747       98.15911005405502      104.24720504434161
C          111.10473204636037       98.71156285662883      105.04701076074114
C          111.51170829737021       97.79685133720393      106.19875461891515
C          112.61857244659640       98.40669776650920      107.05515394738711
C          112.93158248341697       97.55991407640775      108.28546968713393
C          114.04384988810587       98.16169783903197      109.14084056301040
C          114.34718129761215       97.30048083060568      110.36520730940251
C          115.61466380342468       97.72452428483798      111.10807454903154
C          115.45415305073580       98.96007515191472      111.98839156898063
C          116.79259915332516       99.38232056696415      112.59150544402841
C          116.62921690940144      100.42297775384874      113.69604929581249
C          117.97109444749634      100.99145558182316      114.15846480793374
C          117.89187758174323      101.69047326507065      115.51526972421384
C          116.90645556576933      102.85465370700430      115.53392633683308
C          116.89691404264202      103.61093277149166      116.86214169166237
C          118.03358670050532      104.62082289867877      116.99294856706666
C          117.92125032074543      105.43572264079098      118.27835931150101
C          118.94022276931194      106.56869091587828      118.33688873203305
C          118.78695400844373      107.42265177448539      119.59259128966923
C          119.92591862852301      108.42781438004567      119.72437410881192
C          119.79735219559754      109.32274199167658      120.95436255735962
C          121.07574994488240      110.12238793035959      121.18987131948481
C          121.01137531360322      111.00462944190832      122.43385121659323
C          122.38171809391721      111.54677276984791      122.84007762591898
C          122.93426566686195      112.58686069256980      121.86937291839632
C          124.29832698834225      113.11017170665592      122.31320658848246
C          124.79396620184465      114.25395259686141      121.43215501582252
C          126.20074389956142      114.70901409371940      121.81731660338146
C          126.66145925667438      115.93703568269055      121.02826554682673
C          126.05504718237283      117.23584824116104      121.55852615316356
C          126.37156521127484      118.45593748696112      120.69132071295250
C          125.69327310641347      118.38883272348333      119.32517643839053
C          125.74039962137151      119.70764064735458      118.55523767919212
C          125.08069183147519      119.53703395741583      117.18995275306435
C          124.90713362295779      120.82811534759294      116.39512742726863
C          124.20566342417592      120.52502747446738      115.07281788864576
C          123.82725041348903      121.76778427486133      114.27280985040552
C          123.17830000325294      121.41664380116480      112.93171821502563
C          121.79169040085623      120.79098454280928      113.07474122475723
C          121.23848998457777      120.32238513882868      111.73134074595643
C          119.85721549601209      119.67628937682143      111.83919148194482
C          119.86720748179667      118.33632177800479      112.57029584387341
C          118.50002957602013      117.66020003148188      112.54121181663020
C          118.48362144242053      116.35371322753846      113.32983136970222
C          117.13057721445682      115.65415381646474      113.23832439968743
C          117.10895366911302      114.31935737722279      113.97645528336777
C          115.78147331759355      113.58848451280386      113.79293573319960
C          115.64650644024979      112.34215406778371      114.66563979339648
C          116.55885359207248      111.19291225632382      114.24207649761104
C          116.44245591102259      110.01902174145837      115.21119462916843
C          117.23773771211836      108.78414185144845      114.79031561864463
C          116.65518713912564      108.09363535590194      113.56028881275326
C          117.29920448750123      106.73673277215633      113.29306929695470
C          116.72277050838494      106.07886484760640      112.04395966103262
C          117.33003128647992      104.70744407282048      111.76419372917846
C          116.70152496048767      104.07126169168887      110.52931962625399
C          117.17335587267088      102.63981349748352      110.27276780986607
C          116.17268672968987      101.84311130590945      109.43593740817022
C          115.90078985608250      102.47223832733995      108.07440988717735
C          114.79873915872535      101.75185915775819      107.30416054932533
C          114.44202453455310      102.51303830068088      106.03294207280672
C          113.25111638825747      101.92508455462770      105.28561456790305
C          112.90516122013948      102.78231461070196      104.07386908478975
C          111.63761657919385      102.33786945435509      103.35547999050770
C          111.32441588616150      103.24974722947438      102.17313366315419
C          109.98179007102597      102.92635677249790      101.52929120472206
C          109.66749964099841      103.84619253091469      100.35332446364446
C          108.27084550723607      103.58605809036980       99.80053336930415
C          107.93162158708392      104.46348733869459       98.59966357206858
C          106.51414835944462      104.18957705077845       98.10694776012383
C          106.15100889444136      104.96042887992444       96.84159638165755
C          104.71675441095866      104.66505357418977       96.40798666667672
C          104.35196065639622      105.35296628901213       95.09614944886434
C          102.96834508642360      104.95997509163591       94.57500802514093
C          101.79903453462001      105.35465235576494       95.47975630111731
C          101.70501993471197      106.85996772500992       95.71574441112595
C          100.40158764893974      107.26115430165456       96.40194061053778
C          100.34918380798861      108.76487436626986       96.65802127701859
C           99.07117319391918      109.19197187760467       97.37551227705941
C           98.93245245032172      110.70986681639576       97.50263995530757
C          100.03231654035939      111.35737986101957       98.34150790538911
C           99.80999705928969      112.85873494645625       98.49982040357651
C          100.84619088064306      113.53054499433108       99.40063164229552
C          102.26903567346523      113.55908901334402       98.84054147168904
C          102.38455419193488      114.31848493744467       97.51896552043981
C          103.83144214416703      114.67945922688689       97.19429128848127
C          103.95885624821450      115.47510680652847       95.89745808627657
C          105.39825392667825      115.91423527163420       95.64643443207808
C          105.55777980198495      116.73323127952379       94.36904398202174
C          106.95942524313992      117.32830373521361       94.25288134013185
C          107.13441890672632      118.14752064023905       92.97636110759225
C          108.42194517663278      118.97327979678666       92.95320035588543
C          109.68760181644133      118.12645669247610       92.83818783632996
C          110.96853937609838      118.96152638440948       92.86884295097987
C          111.13563851749205      119.87082538010345       91.65717928858547
H          110.97626107844106      119.56683900327066       93.77854650747666
H          111.82672381305483      118.28569084933827       92.91456230095928
H          109.71949153619566      117.41745322274463       93.66773913102443
H          109.65450842986343      117.55009072672195       91.90986834851928
H          108.37269562223759      119.65823261518213       92.10447828916386
H          108.47628501979196      119.57635051907278       93.86297781851913
H          107.11123464927124      117.48354097155413       92.10865306605282
H          106.28735582367173      118.83308117310678       92.88592345858750
H          107.14128097913556      117.97478857887840       95.11472135710761
H          107.69310898656035      116.52098562695177       94.28296588598143
H          105.35400755128131      116.10215502181104       93.50119378745036
H          104.82298251096884      117.54186786596598       94.36638497321640
H          105.73710107307389      116.51416075208060       96.49566121791001
H          106.03898572184693      115.03185135284741       95.58965278935467
H          103.61056847154850      114.86842538533426       95.05788309153726
H          103.31784956039687      116.35910632573945       95.95301746357950
H          104.24028060640721      115.27563737257617       98.01447877054500
H          104.42659448011973      113.76611718828147       97.11881382377972
H          101.97529728272002      113.71637863392840       96.70512930338883
H          101.79523386904306      115.23668185783043       97.57959429493438
H          102.91042580004859      114.04632916192948       99.58033254760990
H          102.64342462224097      112.54199033449346       98.71227497564519
H          100.52751680461864      114.56025429304064       99.58316255029146
H          100.85843856786370      113.01553821994618      100.36403101766835
H           99.81107818405607      113.33366035084271       97.51671154192961
H           98.81922679021535      113.02286312126321       98.93285000932931
H          100.05611256175942      110.89278068392530       99.32991833938098
H          100.99854858788140      111.18678462433132       97.86681763180405
H           98.93565678875029      111.15413906882269       96.50325471971614
H           97.96245386411985      110.93568220345885       97.95486432169704
H           98.21022749352491      108.80915146684026       96.82055254289118
H           99.04528723536741      108.73730561127108       98.36854549134986
H          101.21752202106282      109.04385186649402       97.25761432394043
H          100.42011165592744      109.29497055484730       95.70426290039620
H           99.55443536136185      106.96750094973802       95.77619759973246
H          100.31190294277023      106.72836718281079       97.35067527907090
H          102.54107705597040      107.18759191856955       96.33604367305770
H          101.77914625576140      107.37958209649373       94.75639993180158
H          100.87475135951897      105.01434545241842       95.00391887525215
H          101.87741437463687      104.83871670270979       96.43810334153481
H          102.82242804282926      105.42462206152334       93.59565636067633
H          102.94462692471738      103.87651602293647       94.42883445959279
H          104.40684330475352      106.43589856951284       95.22059883495427
H          105.09134730199996      105.07908309136707       94.33812762800584
H          104.59379881534997      103.58578012585261       96.28899071948206
H          104.03406756317655      104.98990698916236       97.19566105685804
H          106.26698559264786      106.03326447539439       97.01524442162064
H          106.83656511249350      104.68022721581097       96.03714586207846
H          106.40839633887016      103.12010755185266       97.91064973750609
H          105.80561236435894      104.44873306837503       98.89832908946190
H          108.02966119820005      105.51642961652917       98.87260383471633
H          108.64394445295876      104.26635416876363       97.79403144158613
H          108.18670821157342      102.53479369606322       99.51291608274771
H          107.53687867532683      103.76511228946622      100.59048251407997
H          109.73862124334465      104.88651509581223      100.67913767933686
H          110.40898901356283      103.69861208055245       99.56361199161366
H          109.97564415313033      101.88699359730361      101.19227970568419
H          109.19428755745916      103.02643743147777      102.28090363148191
H          111.30978281472699      104.28624545159037      102.51985209552844
H          112.11866016208270      103.16429038270726      101.42728587755859
H          111.74531703589822      101.30737196854216      103.00999019107708
H          110.80128868940344      102.35747838307049      104.05919957249422
H          112.77057276025350      103.81384036246027      104.40881044007634
H          113.74293448101739      102.76970659529164      103.37285495148753
H          113.47224608560899      100.90269698652402      104.97083104027385
H          112.39009712986103      101.88066053111453      105.95740600537061
H          114.20638622916489      103.54631031768787      106.30055891147451
H          115.30886768413204      102.53640580250186      105.36926655068861
H          115.11319787973129      100.73474363685624      107.05824353824252
H          113.91147082285076      101.67533549888185      107.93803491352384
H          115.59290953318975      103.51004436642390      108.21474078769198
H          116.81923897098096      102.47567844429740      107.48283686966717
H          116.54429387171857      100.82439121659208      109.29862096992709
H          115.23101846586255      101.77880433453232      109.98798224557571
H          118.14610830933474      102.64816165496002      109.77364770300196
H          117.30233086730686      102.13085793985982      111.23035417661652
H          115.61750418890901      104.06105200333998      110.66510797075415
H          116.91654129846502      104.69802568124456      109.66161808887536
H          118.40822878553404      104.80539648137004      111.62541996406271
H          117.16553887621561      104.05584193563114      112.62646182991487
H          115.64121579758971      105.97366887651981      112.16404872430225
H          116.89397283136145      106.72785152506785      111.18285635843259
H          118.37989104898507      106.85902302421664      113.17798776587698
H          117.13620256816841      106.08261413433257      114.15430195896496
H          115.58107698661252      107.95253619330295      113.70392365989456
H          116.79131260551399      108.72805571645155      112.68238599693541
H          118.27654048035558      109.06151032483767      114.59696896023149
H          117.24051894411585      108.07263189738293      115.62117378753533
H          116.78581928296468      110.34415465844241      116.19739969914312
H          115.39034660462842      109.74211588330787      115.30871406888373
H          116.28261163054825      110.87637214348278      113.23452463915686
H          117.59728758410986      111.52969745222147      114.21074609551350
H          115.85703527673951      112.60680516860148      115.70447565208740
H          114.61016783715684      111.99506726462765      114.62344596869056
H          114.96844905455019      114.27736069387871      114.03576183202991
H          115.66403739339647      113.30493533853196      112.74456951732989
H          117.92804303900503      113.69783606482059      113.60923332284572
H          117.27800916618762      114.49503346939564      115.04121591538070
H          116.35925856409762      116.30925609787461      113.65159063974590
H          116.88706746747154      115.48685098364884      112.18700087364418
H          119.26250324049597      115.69124933765946      112.94236505140861
H          118.72015727413894      116.55688183776768      114.37763671636205
H          117.75177192473710      118.34058583648658      112.95570915818510
H          118.22481680328404      117.45454725521577      111.50430737931867
H          120.60253568068431      117.67932379301359      112.10063166397855
H          120.16806573536586      118.48103525946047      113.60952566130881
H          119.17704046614300      120.36069174949256      112.35204578319420
H          119.46975910879300      119.51929699683592      110.82915689393880
H          121.17869288138459      121.17970142910090      111.05638004150173
H          121.93341232438569      119.60383545396790      111.28839354392842
H          121.84831038126057      119.93830454101887      113.75028177977518
H          121.10677109979640      121.51828356371786      113.51915451788825
H          123.09926946549163      122.32170737428969      112.32362820529896
H          123.83100048261723      120.72132980599294      112.39675685486024
H          123.14050341230356      122.38314417250288      114.85961031967145
H          124.72578427532832      122.36266094250067      114.08904949743392
H          124.85390990700705      119.89119705323810      114.46242295386777
H          123.30364556080372      119.95362462529401      115.29576510082470
H          124.30903967976911      121.53531325376564      116.97567728463731
H          125.87887680795747      121.29140652704832      116.20932993380325
H          125.67002537368860      118.83145924417272      116.59798589019735
H          124.09235044533142      119.09593890680883      117.33828632215014
H          125.21719239936304      120.48156119426545      119.12229261522590
H          126.77681682608988      120.03052317284524      118.43246580000279
H          126.16455397641569      117.61360806964915      118.71806063562246
H          124.64710104392829      118.10516262554967      119.46710582150565
H          126.02536824529797      119.35241206451340      121.21263182432557
H          127.45268498645845      118.54681703058738      120.56305986764517
H          124.97047148265005      117.13161441821498      121.62709604388215
H          126.43227942761739      117.41038047130431      122.56963287915656
H          127.75030028718295      116.01339061509296      121.07911621111496
H          126.38844649290614      115.80028607182290      119.98138646683931
H          126.23148075860584      114.93378344481447      122.88646832934126
H          126.89479845754616      113.88443675345633      121.63605224181322
H          124.79565017988381      113.93248347731914      120.38761106410668
H          124.09905631047975      115.09206047160713      121.51477869830673
H          124.23630275700987      113.45866142649204      123.34802798368914
H          125.02290985957357      112.29260877899358      122.28733626310739
H          123.02963919349720      112.15118025066725      120.87348868096059
H          122.22998060632104      113.41965204327876      121.80226487627010
H          122.30454854380035      112.00015620965118      123.83122606958939
H          123.08595674328976      110.71392278383028      122.91595244708338
H          120.32326834176675      111.83685273292089      122.26399885171708
H          120.61650684650168      110.41366701880992      123.26417534102704
H          121.90802075585256      109.42352331971351      121.30558734391582
H          121.27980320460946      110.73532850252325      120.30987133203539
H          118.94863702596032      109.99992370063565      120.83777636706736
H          119.59715292794301      108.69863782460996      121.82847249262387
H          120.86924181725887      107.87740461209624      119.78512870144090
H          119.96851918687057      109.04780802078359      118.82456844084111
H          117.83107024441907      107.94982116879906      119.56350220126325
H          118.77881094681987      106.77189890289374      120.47025649419584
H          119.94855215624487      106.14658583539068      118.31162007883407
H          118.83384543429082      107.20313943732987      117.45269633335982
H          116.91585732590141      105.85724758385300      118.34622043493954
H          118.06470462177904      104.77836258222584      119.13914780005855
H          118.99673674272920      104.10783312317007      116.96990493690677
H          118.00438444461420      105.30155816215343      116.13774286731218
H          115.94955922742464      104.14560686603329      116.95498506329943
H          116.95111217709847      102.89526976322230      117.68635672249641
H          117.15462852236135      103.55034536267377      114.72946649299564
H          115.90530715394252      102.46815579102210      115.34137493249254
H          117.59250072923884      100.96138450824765      116.27389808176559
H          118.88846307166290      102.05010038216652      115.78187219578844
H          118.69713056314558      100.17768329986706      114.23246279895108
H          118.34736374962610      101.69455571496981      113.41016113929234
H          115.98975260649114      101.23071187515480      113.33456718875648
H          116.12631603085502       99.95660664660674      114.54671892518712
H          117.29474423534542       98.50287479396538      113.00376708193393
H          117.43334399717392       99.77939987308390      111.80013207552400
H          115.04284503436796       99.78727088739424      111.40859945018930
H          114.75186510188843       98.73691830291870      112.79514016193710
H          115.93884887497516       96.90047569970156      111.74773982513506
H          116.40915667451340       97.90642740158643      110.37911278081731
H          113.49638185715847       97.31801342909102      111.05018821809320
H          114.47419928525751       96.26676769221559      110.03155305750242
H          114.94896032802879       98.25263446766651      108.53496027200597
H          113.75559190035443       99.16717404515155      109.45311598624212
H          112.02894266313724       97.45640584470539      108.89176566993940
H          113.22634884613865       96.55577954542257      107.96482292261211
H          113.52237579190232       98.51950999990930      106.45224775270763
H          112.31168397657194       99.40434725932694      107.37631710136422
H          110.63890314768703       97.61025605635338      106.82951718716129
H          111.84158262794844       96.83177120100636      105.80356492967091
H          111.95764696589313       98.86097668186622      104.38220414580030
H          110.82856516282025       99.68760608920188      105.45088969930931
H          109.10021198445864       97.95073886363562      104.93033554547810
H          110.20928719679389       97.21108690492873      103.78217433999370
H          110.25585460285058       99.29493310853051      102.45063285682411
H          109.24442088760880      100.10292800721729      103.64391655264080
H          107.40316243341003       98.49123201508574      103.17752760713579
H          108.40177038848529       97.69861858379979      101.96672385497159
H          108.50558021322817       99.78724949443938      100.64718743233715
H          107.58883555233410      100.63944098785989      101.88538000286562
H          105.63474218273517       99.16043259903678      101.47832487134998
H          106.54967104900740       98.27186687034477      100.26657921127013
H          106.78863813140276      100.32537914509295       98.90572326538144
H          105.92082088411348      101.25504722752224      100.12446512758935
H          103.87831329272643       99.93887399780736       99.73020637838407
H          104.73137507875248       98.90096699159730       98.59075003007369
H          105.19206958502176      100.83339762825779       97.12765389029920
H          104.36297330118042      101.90978575047993       98.25280162263982
H          102.95522974599905       99.55423958698918       96.93894741711684
H          103.07156585060440      101.13411965049099       96.16864922612847
H          101.97774330181952      102.17930937003356       98.13835603039105
H          101.75969348333061      100.58354184760790       98.86245854268300
H          100.43244160147060       99.86525253520750       96.89549241068666
H          100.62814587096146      101.45941585211371       96.16986540989954
H           99.27421836335128      100.96231235221515       98.85612767891544
H           98.41693567019468      101.06260514732553       97.31854460548303
H           99.33238709373660      103.38528228565538       97.00147803758745
H          100.03726969674989      103.29388050127336       98.61413147575080
H           97.78014363750090      102.92775682808818       99.58783450984401
H           97.06916516488731      103.02144254869354       97.97822006684657
H           97.90157628953355      105.35230112777425       97.73904805504164
H           98.63096797312123      105.25964068502662       99.34005754990964
H           96.41546198269818      104.94746748147318      100.37298726802346
H           95.65197431179709      104.92810194801926       98.78520804221726
H           96.36164314408713      107.25255898185902       98.37802197119066
H           97.21041615557843      107.28880986454124       99.92259669682802
H           95.14715668226503      107.12977836166296      101.16667099959363
H           94.23891068919337      106.67720798627631       99.72593211875507
H           93.71457192510141      108.96098904864445      100.28070324468662
H           94.60367525935852      108.92587067462242       98.76007436639699
H           96.67223060403225      109.61274089245848       99.93738075148457
H           95.81552246370957      109.58646788894269      101.48033996357648
H           94.26191141745100      111.34681591564228      100.63216280410698
H           95.12747993521961      111.36475801143190       99.09808276670127
H           97.20945060565555      112.05718472602706      100.30592329165904
H           96.30112331667856      112.09611055094572      101.81655222300404
H           94.78468901867173      113.82541185869123      100.86006495853788
H           95.67802982791645      113.77338348478281       99.34265973348373
H           97.73365537147045      114.54194210672796      100.52872919758229
H           96.83217243004205      114.60709671807827      102.04139995242510
H           95.29900970623881      116.29858367537389      101.07307504702804
H           96.17663989423097      116.23106077088052       99.54580960206167
H           97.38061074775852      117.08970964880568      102.22107055529221
H           98.23433382185070      117.04768713621134      100.67628179610199
H           96.90371738897090      118.17891516254686      100.91755383661997
H          111.07752123292782      119.29290020112651       90.73704634236586
H          110.36547190764146      120.63736233937684       91.63211441797050
H          112.10377091153494      120.36656352943210       91.68864607030261
C          102.12481115960965      122.75908589969602      108.12929786625737
C          101.97863296560379      121.60757982693012      109.11491649833130
C          100.89552980137682      121.87288993899804      110.15619211967062
C          100.76529789350822      120.72650760926551      111.15611176031237
C           99.80251172372454      121.06896826614427      112.29069042604078
C           99.75348732088673      119.99945615800975      113.38188360981681
C           98.96458127816085      118.75352426538458      112.99006534502628
C           98.99658517799369      117.70142749574896      114.09570659207462
C           98.16478108041183      116.47002746538820      113.75020944111461
C           98.28426457517401      115.37711528113407      114.80896774840963
C           97.50215976619661      114.11999900256799      114.43692665276006
C           97.64977909617267      113.02054055905532      115.48434980756421
C           96.88030669713777      111.75511427105913      115.11387512445594
C           97.04264682409345      110.66646706963306      116.17086890439420
C           96.25596083430119      109.39960723549103      115.84488580922641
C           96.43642884371319      108.33624350724517      116.92485913796858
C           95.62158008568042      107.07370594583621      116.65903715299454
C           95.82978106164452      106.02968639003730      117.75348296741699
C           95.03229786558070      104.75381060036035      117.50177797340622
C           95.30934613115583      103.68074121297099      118.55126056566850
C           94.59568246424733      102.36873482948880      118.23438441192515