3795
 energy: -5103.068700517816 gnorm: 0.000968309985 xtb: 6.6.1 (8d0f1dd)
C          127.98681906026702      107.35008175798109      104.34766657817261
C          127.34071327604124      108.68903524178484      104.63279050854912
C          127.07759584135799      106.45917520994193      103.49223056486865
C          125.74996559800761      106.14580695973554      104.17796740147936
H          126.88910761657678      106.95739356246013      102.53758163887817
H          127.60762591179804      105.52714509550189      103.28319814232995
C          124.89780020833305      105.20295249320156      103.32183717176596
H          125.93278977214955      105.69092399078433      105.15102078937640
H          125.20942199873683      107.07747132276376      104.35251236022239
C          123.42458886124147      105.29507317345939      103.66449655536307
H          125.00502315194124      105.45748322431430      102.26456268971519
H          125.23305656535589      104.17298391494325      103.45800997486791
N          123.10456853005613      105.04874329473166      104.93282642821487
O          127.78727600828874      109.65135102037800      103.85874330904448
O          126.50233107102254      108.85690502682213      105.49098907987930
H          127.35798689913136      110.53867107307912      104.10584073959740
H          128.18071013905401      106.85794253258479      105.30073755978324
H          128.92692608770088      107.52452072678464      103.82440389910485
C          121.74762624113414      105.13770962553177      105.42523984596113
H          123.82550428040727      104.79812566669636      105.60185544103196
C          121.22599665037666      103.81235681429548      105.97965522764507
H          121.70762815329942      105.88999335477634      106.21892465968816
H          121.12242465248016      105.47608818130774      104.59756560450892
C          121.35420757182482      102.63549690067305      105.01342907827478
H          121.76784923496133      103.57477699794720      106.89559407219171
H          120.17801109301492      103.95014460707006      106.24873032625688
C          120.66257985697811      102.87103263042827      103.67140108819844
H          122.41123285180333      102.42238596623160      104.83669567369975
H          120.91305832594608      101.75792150878731      105.49011056737255
C          120.63432950804318      101.59605292890775      102.82861530488165
H          119.64438545523745      103.21982775216607      103.85385786822329
H          121.19728203513593      103.64590274731277      103.12038297459992
C          120.27465290922689      101.85996539534260      101.36738969077767
H          121.62577756391727      101.13883433228722      102.84550157057068
H          119.93085694875728      100.87903911158888      103.25683470110857
N          118.90387785749127      102.28684571462311      101.18922493564287
H          120.95325784880693      102.62030839508371      100.96206738405610
H          120.38159736630274      100.94646098586067      100.77768746817141
C          118.06974879701151      101.68420751759531      100.31237422300293
H          118.60533639238125      103.10990889612502      101.68733583573794
O          122.59147256080747      105.59584025426925      102.80766423275408
C          116.70774274882089      102.34942943124342      100.18435554802767
C          115.62145866349388      101.34422716914793       99.80238601183832
H          116.44099318786297      102.88584295315567      101.09394850516507
H          116.79476057658511      103.08756484675001       99.38082749053252
C          115.41163253712368      100.24777543064106      100.84657144613655
H          114.68358425297859      101.88085382953737       99.63797699113185
H          115.91506790768638      100.86625787292439       98.86654191578343
C          114.87972878482553      100.78043387698888      102.18128265324665
H          114.70166727068083       99.51880278364156      100.44769015371089
H          116.35695560918872       99.73065017224309      101.01453628401724
C          114.62050775494185       99.62195913384087      103.12131901788847
H          115.61709468607276      101.43707773217217      102.63761828788469
H          113.96089707034965      101.34555608811380      102.01816648148670
N          113.37681617983087       99.12006407522586      103.04656295903074
C          112.90610755625289       98.07484549810837      103.92716385740104
H          112.67450604582575       99.61547191952968      102.51848289188914
O          118.39479911751577      100.71301862785295       99.65971004180221
C          112.03478879211126       98.64382781583596      105.04694140555716
H          112.34995074248097       97.33725991536278      103.34095223531375
H          113.79634110569651       97.60111109215916      104.34473005376231
C          110.63557272432362       99.02011302190587      104.56561279316190
H          111.94794369516825       97.91111002243132      105.85015778421808
H          112.53685771620040       99.52434721465266      105.44760362005712
C          109.84907147741562       99.73509762765784      105.66418726891540
H          110.69206281716043       99.66714461307068      103.68813684246413
H          110.10550302634357       98.10925626165026      104.27596225979701
C          110.29217562561202      101.18780241914884      105.84015351924168
H          108.78625873002709       99.70360119973567      105.40926974744723
H          109.98681361211042       99.19717151952355      106.60468035696186
C          109.80931908336063      101.78956514531120      107.15240462211202
N          108.36566797820788      101.84366941699928      107.22909207984772
H          110.21018496795202      101.19546683916548      107.98227798324218
H          110.16014218346041      102.81885597397819      107.25393605644061
C          107.68352347408640      102.87749446366249      107.76133721354520
H          107.86242653432869      101.03394948062559      106.90581768110458
O          115.48468744549058       99.14288049353445      103.84305538928922
C          106.18070237953596      102.67623458185921      107.75042724635600
C          105.76920378372134      101.66922431787087      108.82941122586423
H          105.70004404943828      103.63475247332607      107.93599813215971
H          105.86282557296131      102.31443710026169      106.77029807182242
C          104.25546492715603      101.49159436418537      108.90500872168765
H          106.22909443790066      100.69838989792325      108.62109723971710
H          106.13982050357829      102.01279788844892      109.79686669427548
C          103.53041015239849      102.76391216236617      109.34231133917577
H          103.87517407026735      101.17505993750679      107.93056687613714
H          104.02592968808193      100.70089293611564      109.62018821529318
C          102.14219459103901      102.45647732138019      109.85524997812416
H          104.05839815030210      103.22087822017916      110.18597111855111
H          103.49016333639216      103.48659658838154      108.52851201743127
N          101.19896976148004      103.35525324690452      109.54125181823018
C           99.83494764736793      103.25897072649586      110.02293497375308
H          101.45238443967375      104.19165104025056      109.04026240619146
H          111.37907062429422      101.26173449021132      105.83358088844547
H          109.91617159028604      101.78318438153592      105.00797121702718
O          108.22967781677688      103.86403437309184      108.21960206129192
O          101.89563147283697      101.46282683454368      110.52861788791311
C           98.89850218494412      104.14074602322654      109.20401641259349
H           99.53860859244146      102.20835839519552      109.95070794345621
H           99.79438786901471      103.54150615189216      111.07906818384301
C           99.07146398610043      105.63512306797448      109.48707769717863
H           99.07734947520441      103.94960828243971      108.14321301467982
H           97.86985142117889      103.85173652204800      109.42526460409303
C           98.50483657617171      106.06254472404366      110.84048843694882
H          100.12943174621206      105.89710834469084      109.44275661585930
H           98.57129892553927      106.20182605425039      108.69953334996396
C           98.62206939300341      107.57206713251472      111.04208411095162
H           97.45462298865507      105.77040316740224      110.90610667195440
H           99.03557309201366      105.55380721209279      111.64486640050589
C           98.16118666780021      108.01812059718199      112.43377381547468
H           99.66229369985055      107.87589941602749      110.91703098860538
H           98.02628447083740      108.09170012929147      110.28817695938274
N           99.02420015505206      107.50428217539132      113.47361759768616
H           98.18725263524398      109.11022280111091      112.49011635894639
H           97.14488106859778      107.66901753500204      112.62564043601955
C          100.05998602370052      108.20251481679239      113.95225129037232
H           98.79693264384601      106.58049432270511      113.83216349466505
C          100.88785160046697      107.50112149440453      115.01939726167785
C          102.37746968958278      107.50439796768397      114.66093885632259
H          100.75185578246059      108.06644611887536      115.94461558426791
H          100.53274243208719      106.48471575125683      115.17979423275736
C          102.75074617492106      106.42657128787646      113.64391756132096
H          102.62380428371461      108.49122413338270      114.26167467868319
H          102.96445312495690      107.35270258179935      115.56932632028268
C          104.17458786746165      106.62421029343101      113.12264528240001
H          102.67331581184938      105.44335951457644      114.11068866894247
H          102.04821552907671      106.44436040764688      112.80867128619921
C          104.70963606057546      105.42003168347358      112.35758728042097
H          104.21244736107892      107.48417028889766      112.44986259119099
H          104.84998127447079      106.83461621894584      113.95216441315168
N          106.03114615938753      105.46451986011385      112.14339448622424
C          106.75165488900191      104.44629911736486      111.40219596228410
H          106.56306151572593      106.27689164130136      112.44953255006189
O          100.32595318540145      109.33872100099902      113.57889215762238
C          108.26138617033175      104.61219617734383      111.54224749606981
H          106.42992657223570      103.46612330860783      111.77385712301245
H          106.48927960570343      104.50793264876368      110.33943292916361
C          108.76089044099452      104.39376440049176      112.96833015339475
H          108.74033128876626      103.91447926848143      110.85362140126462
H          108.53289467979039      105.61802537973270      111.22285555797166
C          110.25922364940308      104.65130301097145      113.11626304613347
H          108.23627617895322      105.08616816582767      113.62608986195275
H          108.52456648366804      103.37603212640913      113.28658344506856
C          110.71053311557380      104.64237275570942      114.57948605068020
H          110.82149251314721      103.90215856063436      112.55491996785206
H          110.48892636448349      105.62821406524989      112.68547168250666
C          110.78591586921226      103.23871648366428      115.17967301445572
H          111.69850404469497      105.09960316902765      114.65379907489796
H          110.01769742837074      105.24560923893863      115.16871810852682
N          111.31167556778971      103.26763349775860      116.52932945062847
H          109.79771622839726      102.77409409188365      115.20577960821382
H          111.46178390965972      102.60891073325362      114.59912024244446
O          104.00041010209659      104.49992565530981      111.97443010340446
C          112.38516889557785      102.56299992647604      116.91403229216876
H          110.77643491587676      103.77613628473108      117.21545072314925
C          112.77353095923955      102.69384133247979      118.37171420646102
C          113.94867675012085      103.66537394677226      118.51963056289378
H          111.93401647819904      103.04336837627950      118.97088746393979
H          113.08408444782077      101.71005153924328      118.72420868508364
C          114.42223994047163      103.78615277663350      119.96781347684370
H          114.78247157686933      103.31341134203892      117.90967012559707
H          113.64546377789092      104.64976897594993      118.15298624473165
C          114.98728387735454      102.45869161612009      120.49202752161652
H          115.20452822005183      104.54736255956340      120.00509276765393
H          113.60063017217146      104.10651613370263      120.60996376179152
C          116.04060341208323      102.70711291332059      121.54963362009185
H          114.19183599691203      101.85458171912990      120.92727723826802
H          115.44871549573797      101.92386859092422      119.66387193519334
N          117.24899582280423      102.97787695877649      121.05318588957094
O          113.03938036581511      101.88380669933696      116.13524171771779
C          118.41381174610741      103.23807774337904      121.87396784785763
H          117.37477450214443      102.95255568801453      120.04330920386897
C          119.59245448465155      103.64076102842027      120.99722883542393
H          118.17523238009782      104.03383499670558      122.58857235198313
H          118.66097766797873      102.33501298396770      122.44761747054436
C          120.10648204481140      102.45819814928778      120.17338927733213
H          119.26154212377780      104.43682736546654      120.32707455829515
H          120.38432564461019      104.05758879058044      121.62006165447089
C          120.85279210660944      102.90757477556774      118.91860074613260
H          120.75151750281209      101.82588576269674      120.78675857002152
H          119.25887781430174      101.84555846486485      119.87332014393897
C          120.98053921187784      101.80358771442904      117.86794026417655
H          120.31443393471380      103.74449462811043      118.46920798310077
H          121.84684982266215      103.27027656681203      119.19183728256127
C          119.63213807938273      101.41104285984267      117.25815916712878
H          121.64518328160869      102.14388365164696      117.07089672878141
H          121.41141362945810      100.90805551338606      118.31169551553306
N          118.95885340537544      102.53721854475165      116.65475139144212
H          119.78999693725892      100.64284509296280      116.49670437333219
H          118.98110887256662      100.99901004256091      118.02819298780261
C          117.88468312070000      103.13621093878680      117.16744000973490
H          119.37003765034926      102.92419827227472      115.81039858116169
O          115.79730387463019      102.67920408211262      122.75304637258897
C          117.40381743032744      104.32838972952233      116.36497900152060
C          118.02491938194970      105.63065286928605      116.88066642268753
H          117.70896201512360      104.18839379556289      115.32890813332641
H          116.31633769965691      104.38871997287418      116.42339448955275
C          117.38088711086645      106.16199390308839      118.15578343311539
H          119.09504896354996      105.47591842145540      117.03635937430245
H          117.91250115018750      106.39267783928643      116.11263941551383
C          118.03342092977589      107.47298621744551      118.59451259686222
H          116.31923713539049      106.33922376256096      117.96928479500235
H          117.46382869697703      105.42364591653171      118.95491161563542
C          117.87324998396400      108.59079286612499      117.57979688522936
H          117.54893077269524      107.82676195763759      119.50865300127153
H          119.09172660573591      107.33275896432178      118.81548332748748
N          118.82238401441576      109.52707812927412      117.64484303968915
C          118.76805369171684      110.78830852157238      116.93971513860453
H          119.62839304682997      109.38104802738506      118.24836091161971
O          117.32672845310388      102.77385871589215      118.20188269520192
C          120.05428852721784      111.09732938400663      116.17650067039214
H          117.92076330028161      110.73923665225490      116.25597895580115
H          118.59257497247806      111.59066753807532      117.66643505724333
C          120.03625990233296      112.51780174869721      115.60534067570610
H          120.89626412015286      110.99898585253709      116.86302186186386
H          120.19268901188703      110.37248810762100      115.37261734536685
C          118.91292961762007      112.71351403261006      114.58504548037986
H          119.92115827621748      113.21903830502811      116.43336895596225
H          120.99933492190412      112.71523203806700      115.12739296145708
C          118.99557727549075      114.01703017206680      113.78798488920847
H          118.94421973773160      111.87977545160641      113.87903249472539
H          117.95544063376236      112.68678834446065      115.09977330179677
C          118.66437124623785      115.25883949255848      114.61325193354905
H          120.00314202946304      114.12818287601173      113.38031834861557
H          118.29411548084079      113.96257553669099      112.95299818097219
N          117.24579542875470      115.42797643234435      114.84207224321068
H          119.18242898554220      115.20102147587268      115.57663418974163
H          119.00384560744936      116.16087253391234      114.09556364466059
C          116.66258334180331      116.63732739489221      114.85222956243106
H          116.69487389760371      114.61615397451749      115.10318884179948
O          116.91917965438920      108.64737317378733      116.80112386689041
C          115.20171124814058      116.61516385126325      115.25929758021498
C          114.25635675441049      116.47123859874867      114.06067187937894
H          115.03192627440471      115.78019862442692      115.93788875152748
H          114.97533340094407      117.54765630731397      115.77839519971133
C          114.14205391819718      117.76499656946810      113.25648084382536
H          114.60042887965059      115.66174864821414      113.41419529899105
H          113.27220582874482      116.18887958974847      114.43935693347707
C          113.32508902159816      117.56771750065425      111.97438031733331
H          113.67851556017315      118.53888217114815      113.87226405266691
H          115.14206742679168      118.11202912827898      112.98759739392240
C          111.94122937191558      117.01931854835993      112.26104275232431
H          113.21844935630112      118.52455490635630      111.45979029425686
H          113.84786746469619      116.86434870984252      111.32986301922665
N          111.79485947669579      115.72045699161032      112.00073229772161
O          117.26544486929446      117.66526183410539      114.55977896264662
C          110.54795074718349      115.01504862419748      112.20032758970629
H          112.59104155136005      115.18903424327823      111.66964880507015
C          110.35593155811866      113.91406692442555      111.16365569813171
H          110.52463529585791      114.57963067827959      113.20708225517409
H          109.74430979202351      115.75463070080184      112.13580802047494
C          111.28901316683897      112.72191999400013      111.38048061911732
H          109.32203974859169      113.56609379029382      111.20473623413265
H          110.52642221493511      114.33111688555051      110.16848021379884
C          111.04979242331657      111.66088091756679      110.30913660010846
H          112.32712191155859      113.05443398781509      111.34693161661441
H          111.10155659935621      112.29074140807523      112.36510993261092
C          111.81997792633150      110.36324849628281      110.53834586390501
H          109.98146085217486      111.43760864897293      110.29076857450998
H          111.32327901886963      112.07446212242134      109.33446329528066
C          111.63435890087122      109.41425021405048      109.35235607169247
H          112.88417848429452      110.56596803975130      110.66865791231290
H          111.45686368445038      109.86692144695679      111.43775801287640
N          112.36017605837547      108.16915052817036      109.50593753760373
H          110.56467142345325      109.20283929294114      109.23377998969988
H          111.99519998708490      109.88679045158553      108.43676460179570
C          112.12724187095206      107.27569064876927      110.48372892939818
H          112.85511198623011      107.84073912339775      108.68696656792733
O          111.01861439723200      117.71400159514486      112.68710943900128
C          112.82324234005097      105.94946931468937      110.25697312978373
C          111.91701361798978      105.07917613556282      109.38256668058737
H          113.78114721360575      106.10413787740153      109.76347492507520
H          112.98110858322903      105.45487785021230      111.21306097114710
C          112.53301479846289      103.71815127987243      109.07076680391611
H          110.96625659629991      104.93166888433862      109.89828508679041
H          111.70974946171837      105.60242228761676      108.44811304199689
C          113.65788637355500      103.78393652656544      108.02493455717899
H          112.92010547348903      103.26778846703093      109.98590050946279
H          111.74185328549910      103.07163094321511      108.68994904744500
C          113.74736110333136      102.42358002175604      107.36270949411538
H          113.43202637884467      104.54418686296033      107.27764760511184
H          114.60386766847830      104.01917267393171      108.50728121786329
N          114.26995069994230      101.48499288417574      108.15804685653174
C          114.27546289411848      100.07754664349913      107.82400247668282
H          114.74468337898944      101.78270525229401      109.00395279089071
O          111.40789494889596      107.48805386817317      111.44860680002353
C          115.05117898304694       99.27026154356057      108.85488180312038
H          113.23897194147227       99.72038791600443      107.78456619220201
H          114.71556423582440       99.94282988740063      106.82768643756890
C          114.38944007756639       99.26643824850029      110.23125574814163
H          115.10875660872318       98.23783553074711      108.50442538530800
H          116.06693358861557       99.66246031704638      108.92604881709899
C          115.12660855284723       98.34749333787930      111.20465454721851
H          114.35980223004807      100.27724079605989      110.63862073458753
H          113.36037760312497       98.92112621894107      110.11833239417307
C          114.34909251589356       98.14324929254209      112.50036683320532
H          115.29040715306157       97.37714273976621      110.72690243975420
H          116.11019837877159       98.76041943278574      111.43754653813929
C          115.06900589327738       97.20119304780145      113.45600449747459
H          114.19867477619313       99.10202697966476      112.99811533049584
H          113.36387100805830       97.73235497785241      112.27703244838413
N          114.20076549701024       96.85862653139722      114.56524050744871
H          115.36222244392106       96.27192576694898      112.95275884242542
H          115.98616803111976       97.66992796871196      113.82968508841546
C          114.42502825488660       95.77296223610742      115.32404278038459
H          113.35435442821900       97.40720074312553      114.66516302421299
O          113.31383573954322      102.18930384384767      106.23867159626214
C          113.36916197979860       95.51701068828072      116.39186359611082
C          114.02274153871718       95.24708701837817      117.74682360698333
H          112.68286995265883       96.36129917250229      116.44825692567159
H          112.80598353054059       94.63138920738940      116.08592818826516
C          113.00665085334721       94.81421898168111      118.79966171764930
H          114.77330808023270       94.46639092685776      117.61411396778190
H          114.53980222844810       96.14670131634182      118.08577406218714
C          113.66735785591219       94.38677705684212      120.11525727306847
H          112.30974918516930       95.63055241548562      119.00012014777820
H          112.42902588753572       93.97044794826542      118.41574231487049
C          114.37436084872040       95.54210673936726      120.79357512435034
H          112.90119522792800       94.00044349565847      120.78827629639838
H          114.40200618226031       93.60583959692019      119.91417559786711
N          113.57149775946712       96.34464787779648      121.49838033117553
O          115.39310484107685       95.04814019567634      115.17120322029390
C          114.06199344637946       97.45078393604147      122.28666130942504
H          112.58509177874299       96.11835273022315      121.57978228752800
C          113.29282234924955       97.58349000117887      123.59723885689817
H          115.12412676898538       97.26921211803418      122.48257108135091
H          113.97338413187336       98.38407762321347      121.71493953798739
C          113.88709091427451       98.67289150110632      124.48810048017810
H          112.25064510493468       97.81792406280007      123.37455572531825
H          113.30935850310549       96.62618252734967      124.12145798434170
C          112.96061909461075       99.03647845735767      125.64658371119997
H          114.84770228832733       98.32706489838240      124.87620737669486
H          114.07323666957922       99.57104141150842      123.89325771898120
C          113.61548839287617       99.99570198379709      126.64264036385694
H          112.06440068920121       99.51270416437369      125.24551600727233
H          112.64638786150134       98.12413059519346      126.16084079250213
C          114.53924062623942       99.30464039180940      127.65785657596174
H          114.19326469911749      100.73978670700727      126.09159357382450
H          112.83392565575342      100.52715038216289      127.19125596299945
N          113.88016318917715       98.43523126789307      128.61496423107485
H          115.28835217337641       98.70474640267844      127.13518408749657
H          115.06502845466892      100.07154827454755      128.23509688736237
H          113.41681802710337       97.66879499020165      128.13920185837864
H          113.17187862745347       98.95035376643645      129.12771814133058
O          115.58319282290491       95.72967332462380      120.69557556869901
C          109.53693995007124      130.44724772259357      108.81467400844986
C          109.02171790678102      129.16974284842775      109.43838735492702
C          108.95222229511208      130.62422131267786      107.40935051540504
C          109.46083966493546      129.52458622959583      106.48295406348028
H          107.86279135707262      130.59457813199990      107.46761873488002
H          109.25382281491034      131.59795691758254      107.02193165853006
C          108.93506112793771      129.65827073814981      105.05070778908437
H          110.55275045648783      129.55834114379613      106.47064048663159
H          109.15269697519801      128.55418169348130      106.88044352817239
C          109.55744345133982      128.56369587442444      104.20147879043314
H          107.85008311725068      129.54868010772907      105.03663279774391
H          109.19405261145099      130.63879533166528      104.64921486016378
N          110.82787835341108      128.80601055049513      103.85658314909411
O          109.95989740365034      128.24651244888898      109.61973353578352
O          107.86746642983184      128.98728902092682      109.73663825502295
H          109.57802906508468      127.43350235044461      110.12092756047460
H          110.62529509248284      130.43365353629358      108.76495693849085
H          109.21413011946940      131.27686394204852      109.44544039679938
C          111.67748191638802      127.88186417602869      103.13480704701095
H          111.25807963309431      129.66899801203886      104.15290195093434
C          112.33729086728574      128.56751533895635      101.94127440133258
H          112.43774535570668      127.50395942162504      103.82450732622186
H          111.04808094596626      127.05470693207519      102.80419897952468
C          113.36099611378047      127.68277190194199      101.22759529641222
H          111.56383529463137      128.85332104068036      101.22556758156823
H          112.82099444241064      129.48545238075840      102.28383149375657
C          114.51407297765000      127.19823006588483      102.10908714602239
H          112.85950759771654      126.81404176014962      100.80013616235991
H          113.77660104996424      128.25539537095958      100.39570762358605
C          115.29791844959276      128.34342518934585      102.74925107608153
H          114.14034244170166      126.53039215629551      102.88557279908076
H          115.18880049966434      126.61240029670289      101.48172701832631
C          116.52556802822059      127.85724798216788      103.50588548751050
H          115.62271538855700      129.03427805693977      101.96889776391993
H          114.66259226031889      128.89284323098644      103.44549009012067
N          116.15495575681393      127.16465566210302      104.72506084391163
H          117.11839835053929      127.18262920242128      102.87642171539844
H          117.16459694232901      128.70839029429786      103.77147517505298