3795
 energy: -5103.725823882378 gnorm: 0.000910816875 xtb: 6.6.1 (8d0f1dd)
C          132.56475006573569      105.52657729787431      104.45377796426247
C          132.70879616072614      107.00203074398102      104.72814634153562
C          131.84067028985652      104.81063017968415      105.59290425349515
C          132.70749743230701      104.73848731523231      106.84675934104601
H          130.92668162238857      105.36284267135278      105.82078434860186
H          131.57180708549203      103.80321104116544      105.27374551185744
C          131.96945778452050      104.14857602412384      108.04818768542036
H          133.59360779229758      104.13023392049912      106.65437545418928
H          133.04452046645312      105.74342541526343      107.10617660746787
C          132.94251430461924      103.94445442259635      109.19782398900711
H          131.14620004219861      104.79548998779705      108.35114864488126
H          131.56474494422281      103.16944965142841      107.78002022330030
N          132.46845804597419      104.24490610359450      110.41698054581552
O          133.42738991082066      107.64341631335370      103.83119530367308
O          132.20254482156457      107.55719769210182      105.68337499656609
H          133.49834122341008      108.62242871405226      104.03707249865124
H          133.55980867341464      105.11000330013040      104.29032156669140
H          132.01094000135737      105.42587988782034      103.51805571934679
C          133.26860175066389      104.06107452650612      111.61189367139409
H          131.51451814434483      104.55307638520581      110.54327977659619
C          132.89052376094943      105.05387382939438      112.70294716216371
H          133.14994277439399      103.03401435530675      111.98051542875292
H          134.31452267989181      104.18049502087896      111.31703226356272
C          133.74779848208237      104.84610340167697      113.94887869937892
H          133.01685333919005      106.07038094737617      112.33020863909152
H          131.84062626966107      104.92016543277840      112.97016728810542
C          133.22467124904142      105.66097602135032      115.12781131503363
H          133.73564459070434      103.78695614991162      114.21494877305841
H          134.78164588038962      105.12050502445932      113.73537108707025
C          134.06906389821188      105.44684444474014      116.38249972554372
H          133.22206039543715      106.71788925303136      114.86736140286918
H          132.19267837149943      105.36294314635586      115.32412624634044
C          133.34671087092619      105.87394999173121      117.64921570974310
H          134.30630206260219      104.38649930311392      116.48129557898500
H          135.00881351598323      105.99338640898664      116.29485974064737
N          133.13487210107692      107.30727220029442      117.72033195414792
H          132.37060942929534      105.37893103609245      117.70543952638249
H          133.92411009461679      105.57159671692560      118.52965581665482
C          132.59661193989569      107.86251193220433      118.80538121108690
H          133.48207893656075      107.88556607047217      116.96718095954942
O          134.08304697595474      103.53183226637607      109.02322382614466
C          132.53760961912005      109.36819018665145      118.80850925897377
C          133.95746373975348      109.94511960892318      118.81336978477418
H          132.00360838194089      109.71262284152245      117.92299230236227
H          131.99688931104328      109.69764408061990      119.69719424039646
C          133.97516707898106      111.43074851562201      119.16246537888873
H          134.56223472297228      109.40894110267222      119.54876132384686
H          134.40481078184334      109.79266311118516      117.83024710562349
C          133.14612889714493      112.26858507826935      118.18512319431929
H          133.58254520051727      111.57315066531321      120.16958544863691
H          135.01051579996675      111.78253507104560      119.14975093269999
C          133.43898468075790      113.73862298109863      118.39602603058185
H          133.39298064252694      111.99874015010842      117.15810961903861
H          132.08452518795556      112.08775975837835      118.34593737064586
N          132.95161352632013      114.24229643388877      119.53093235208351
C          133.21554478529029      115.60183487052566      119.95428801176612
H          132.52291626508770      113.61857561713586      120.20899706064911
O          132.19428094229212      107.17932080315185      119.75339331968942
C          132.21330225139718      116.06061957472352      121.00626998217224
H          134.23014794001966      115.66845394433810      120.36866914421098
H          133.18124044899048      116.24032767767916      119.06797201139008
C          130.76892245384286      116.13258350661859      120.50843636981213
H          132.26109770593570      115.36854526411324      121.85003007440960
H          132.53416758789504      117.04083080430034      121.36162698790810
C          130.56837612880045      117.13617812502108      119.37078421943227
H          130.46019312065809      115.13911471915927      120.18405479206318
H          130.13383371342891      116.42031414276204      121.34881601842942
C          129.12050636125477      117.61018740678294      119.24125063409817
H          131.19529502222295      118.01350902967917      119.54270877960906
H          130.88142492726209      116.69413157415738      118.42591523109367
C          128.14044640331704      116.46775939835916      118.98147246871680
N          126.80093482070298      116.97742021062089      118.78272274264397
H          128.42668340622120      115.90924418299305      118.08632491265841
H          128.13901145997062      115.77335698416506      119.82931211683480
C          125.97455462052464      116.57540531095340      117.81640859441825
H          126.52312808940893      117.76939718587691      119.36155228154698
O          134.07389950913293      114.41210458857876      117.58217622915285
C          124.64171374446478      117.29043817972358      117.81325040260285
C          123.68353461688571      116.62423003936853      118.80746736953756
H          124.80113555579746      118.32963852584761      118.10071387446945
H          124.23563998068138      117.26568996278185      116.80250641280665
C          122.35477401940682      117.36802650618984      118.94068980118921
H          123.49951459274976      115.59555658101560      118.49747036184409
H          124.17026980157891      116.60376451808057      119.78399661686949
C          121.42733635423937      117.19069624825853      117.73939493772076
H          121.83525567569227      117.02430077435224      119.83682554145810
H          122.55766312285817      118.43152738035268      119.07973109038244
C          120.27144850671830      118.17683337339645      117.76006240429693
H          121.97371331875829      117.34317931548762      116.80664799293342
H          121.00904971730776      116.18222241391771      117.70855210507135
N          119.44142087114946      118.06637411838108      116.72243874278158
C          118.27489595061675      118.90427704194225      116.54837622563689
H          119.58086185461721      117.33213431311999      116.03610089948093
H          128.81674479217253      118.12680610198748      120.15491804680948
H          129.05715270916411      118.32689815982198      118.41982322469289
O          126.25936611746712      115.67413308268051      117.02530370052212
O          120.12606204632584      119.01520464285431      118.64779739395408
C          117.14074819862108      118.15232353688580      115.85833173764503
H          117.97559088596064      119.26565095723853      117.53515539690962
H          118.54132865449604      119.77761031790554      115.94102069970620
C          116.70797432451558      116.87770011485651      116.58369166315218
H          116.29198404246189      118.82860298167083      115.75640989040217
H          117.47180592996463      117.87620544699604      114.85541329280133
C          116.31362811245138      117.08469743101621      118.04352199636901
H          115.86064116600791      116.45190060788563      116.04216824672858
H          117.52953869629386      116.16008131727202      116.54677797435023
C          115.14635527458677      118.05215827176448      118.23207330401456
H          116.03895243203445      116.11330153368276      118.46148097519634
H          117.17742423068277      117.44693164790669      118.60093625508991
C          114.69321204807122      118.04808930066271      119.68504791775652
H          115.44348968297170      119.06486052693197      117.95858204780802
H          114.31972548045040      117.75867914620009      117.58212183686233
N          113.65105943941631      119.02569615542883      119.93078732591913
H          114.32169439509131      117.05153937131094      119.95381719886423
H          115.53860853072649      118.26657525886368      120.34504093443992
C          113.36729944916566      119.47199483022654      121.15682186636772
H          113.22118405969776      119.46949685298445      119.12296766398239
C          112.22992121242193      120.46922151774862      121.22938379189266
C          111.21067597782243      120.02405054105424      122.28392571252238
H          112.63637842841345      121.43869953224548      121.52174373407021
H          111.77562779307478      120.56071920553879      120.24506314942667
C          109.84420413244526      120.68759218076580      122.13250784030723
H          111.08403550088055      118.94119280663037      122.22893500604044
H          111.61707192532353      120.26324981005254      123.26692180763611
C          109.08841924145224      120.20250713267511      120.88730048425711
H          109.24567447232727      120.44917106524188      123.01367881454344
H          109.95941596569826      121.77221666660742      122.09536782424757
C          107.63152975970026      120.60008733530549      120.99448579215817
H          109.50876269848037      120.66121611601260      119.99246997568414
H          109.16608526992927      119.11842455777693      120.81102910535117
N          106.82701126093909      119.64900533908110      121.47134921241025
C          105.42504545267647      119.86958502196508      121.75669821558516
H          107.18565705804714      118.71419266458621      121.63920493240107
O          113.96480019337241      119.07083401953271      122.15496286810966
C          104.92645066982467      118.91863938799915      122.83886454249787
H          105.30928759505728      120.91088133095374      122.07010437357829
H          104.83330697783751      119.72743880438742      120.84317443856146
C          105.69036242570451      119.07351158359118      124.15261896659140
H          103.86537000407664      119.11245027899199      123.00414694710015
H          105.03314204282523      117.89683868729796      122.47624020957051
C          105.04725482518656      118.30916276904946      125.31160155505781
H          106.71781534291402      118.73727002643624      124.01742012173916
H          105.71951453975792      120.13222403098125      124.42006845131348
C          104.95664507567101      116.79312807852067      125.12439858345492
H          105.61713367048266      118.51268065997638      126.22012636407361
H          104.03484126055483      118.68930276241865      125.46572198523187
C          106.31402537696064      116.11923626607491      124.94818599023918
H          104.47299960906071      116.36711722492373      126.00665469359701
H          104.32862543790526      116.55368554995437      124.26607967374242
N          106.16387703734347      114.67695587137183      124.96844254255195
H          106.77749654089004      116.42345639364969      124.00401100593417
H          106.99160931149061      116.38652562119215      125.76351361601914
O          107.23231015359515      121.72575166834723      120.69491272104101
C          107.04231290024997      113.85740238485734      125.53854547330960
H          105.31266245432199      114.29914388256536      124.55916040858295
C          106.68609963886246      112.38069745526633      125.49048251571735
C          106.68826153808465      111.80038239308738      124.07350062435881
H          107.40473549389438      111.84375120228538      126.11346478761944
H          105.69119737075323      112.25516757380744      125.92135599521927
C          108.00797769156404      112.01474197536714      123.33411955823480
H          106.49429389347235      110.72761285956449      124.14340353557489
H          105.87236151150745      112.24582069290972      123.50331407409163
C          108.02451155999648      111.23122941866714      122.01726599118714
H          108.14782128065809      113.07978573762622      123.13126301912692
H          108.84024633895405      111.68117191594594      123.95486264851215
C          109.17681909189982      111.66946754856129      121.13866047047500
H          108.09430294321245      110.16168174077693      122.21913811373639
H          107.09637828605787      111.43253409619130      121.48013699499579
N          110.34656323578425      111.07092447205032      121.35174008306727
O          108.07269335127008      114.25382236121885      126.08765505652693
C          111.50277733336479      111.34186450380341      120.51914272760162
H          110.42094614758807      110.28758698375465      121.99364571189932
C          112.32398252246632      110.07958475557182      120.30660908649504
H          111.13285778971390      111.72456325158144      119.56489976869352
H          112.12651946750628      112.11455593006336      120.98026268346221
C          113.35186827620747      110.21964361739501      119.18757410778902
H          112.82641990954374      109.82237959464040      121.24106059855379
H          111.63962544193467      109.26546285736191      120.06222444539944
C          112.70651401058980      110.41646784324797      117.81043869944652
H          114.02814210512521      111.04912741231968      119.39919236869754
H          113.94504214141493      109.30254050218038      119.17072748557176
C          113.55927935275287      109.78373924701295      116.71679902283840
H          111.71336039994561      109.96256363225719      117.78997237918121
H          112.58390546012933      111.47914201579569      117.60573614484690
C          113.00870723183128      110.01983016612421      115.31660004427137
H          114.57590709197025      110.17517651959145      116.77222509293505
H          113.60755887225784      108.70485820671738      116.88140004585934
N          113.70054529037584      109.15783480238893      114.37959183283026
H          111.94044892771024      109.78548520574103      115.27259959416426
H          113.13853769119785      111.06773638134028      115.02061916458200
C          113.12437165495783      108.64357619846587      113.29986521993897
H          114.62905874752886      108.84778610144394      114.65039459909127
O          109.04071518914908      112.55648000669103      120.29326152999367
C          113.97938145129866      107.69838416257134      112.47993791071507
C          115.37125009508657      108.25163414039899      112.16402054052014
H          114.06829616677560      106.76032815655634      113.03076447896409
H          113.44305613763916      107.49041233127038      111.55108840646972
C          115.97183236649035      107.53919515288955      110.95460982402356
H          115.29376534081622      109.31678831521835      111.93824838686061
H          116.02354057362967      108.13228962968675      113.02938692515474
C          117.40720385993966      107.98189741793900      110.64836094746654
H          115.97407844684680      106.45971883885690      111.12156369118348
H          115.33650911645915      107.71992040581071      110.08667978009460
C          117.58027571146070      109.48361509960166      110.68219345926894
H          118.10004479304644      107.52480124255840      111.35280040330559
H          117.66381329349483      107.64242596725077      109.64149366317930
N          118.61898822454869      109.92493254543788      111.38950243665475
C          118.88618719760309      111.34493767264267      111.54811816696721
H          119.21131966486752      109.26049340673904      111.86874632078033
O          111.97232057824343      108.92451355780781      112.95819106852065
C          120.20077300406484      111.64220624940464      112.25795904341183
H          118.86848973870377      111.81333841700433      110.56249840262289
H          118.06357942203738      111.78245235395347      112.12231422451691
C          121.46844260551956      111.15827317096192      111.54539146801405
H          120.25425399691697      112.72315624225448      112.38719452809521
H          120.18045609066994      111.19158492279681      113.25320205594075
C          121.59399470209476      111.54434837524292      110.07130930299226
H          122.33097725678300      111.56178610475064      112.08113010346916
H          121.52761720701727      110.07058153795947      111.61631284962982
C          121.65961851683863      113.04926754273234      109.82076454912075
H          122.51174945232553      111.08912375291025      109.69051842809945
H          120.76325306900557      111.12318861018828      109.50210069485610
C          121.81868733111757      113.36241464330510      108.33082702827650
H          120.74130890897729      113.53074085090692      110.15819275432978
H          122.50130325185170      113.47978572561802      110.36721007171971
N          123.10288189576896      112.93766732170667      107.81626779120337
H          121.04693221292766      112.83919085058216      107.75967864071296
H          121.71779863243705      114.44148567603386      108.17234727243871
C          123.25299321790473      112.02096986887129      106.86149712125240
H          123.89336746175162      113.46662135878826      108.17096628471738
O          116.82564715961510      110.26816720009622      110.09442527925108
C          124.68121673345313      111.68159916639220      106.47522713797198
C          125.37197217809769      112.79115672143892      105.68097995629419
H          125.26262195007322      111.47134372844820      107.37282423206339
H          124.64228148887089      110.77872676549853      105.86283992388185
C          126.70516366314516      112.29017277291861      105.12812066027261
H          124.72784844159479      113.09972705281675      104.85370250661710
H          125.53468256209267      113.65702914614376      106.32342421546134
C          127.45190109169594      113.35375476530373      104.32222415076163
H          127.32856700831452      111.92965270128026      105.94603574715543
H          126.50797830247772      111.44210314594578      104.46875008558686
C          128.02506774540535      114.50332888832826      105.13274343115638
H          128.29360545201206      112.88998556348706      103.80114012857759
H          126.78654510996499      113.78017131666691      103.56813661269963
N          128.70305565063032      114.16116789797650      106.22252628322724
O          122.30328216268903      111.45420343735785      106.31832656919494
C          129.38101504235078      115.12096382242026      107.06798092522716
H          128.91677576324378      113.18569958290777      106.39816991050205
C          129.89188440812714      114.46906850120629      108.34624525018744
H          130.22490586133119      115.55123353695156      106.51049057129855
H          128.69641509952342      115.94397164903721      107.29932802784482
C          128.82253714909484      114.22008196821886      109.40923278350003
H          130.38160951361945      113.52787380493567      108.08814428177580
H          130.64417038612757      115.13082334684339      108.77744741380251
C          127.81404726549854      113.11970142774771      109.06738698826574
H          129.33943503096842      113.93961344732854      110.33022619525354
H          128.28751051383179      115.15318051484731      109.59994315414670
C          127.10995450654464      112.65440218988830      110.33923651158599
H          127.07530009158341      113.50040547996950      108.36162259197494
H          128.33151673928046      112.28043414361370      108.60005021129700
C          126.01762118740558      111.60712942924286      110.12960366311648
H          127.85173568319061      112.24308415800309      111.02782698472201
H          126.64109780409338      113.51610726789518      110.81886665314306
N          125.56151485240939      111.19166826021321      111.43637939974040
H          125.19113223585182      112.04529208063236      109.55815074888717
H          126.39091136943928      110.72633451032119      109.59862705331709
C          125.09156646527779      109.99206018244560      111.77311259667205
H          125.42284839963446      111.96559890959963      112.08624794123668
O          127.88441590302837      115.67608758865686      104.77204845952687
C          124.90709123521917      109.81364692702496      113.27402332830060
C          126.02746830360032      108.89166310533010      113.77671755118858
H          124.93628838270611      110.77761704316292      113.77889919405733
H          123.93677115480727      109.35820068800732      113.46705453224970
C          125.70436936070642      108.24434355284014      115.11928226964963
H          126.18953030346385      108.10437751228845      113.03751336147407
H          126.95707455635181      109.45850933494614      113.84897997061893
C          126.74728986988686      107.19051386363400      115.51679655117040
H          125.63329319200008      109.00865517528274      115.89538673318813
H          124.73302157339455      107.75079536035470      115.04851366718037
C          128.04627693372811      107.80824869703859      115.98888973602958
H          126.34899686474229      106.60109172375454      116.34515141078070
H          126.94464998151189      106.53361517607533      114.66957304426282
N          129.01751323004169      107.90616338160011      115.09475404063014
C          130.33182339005157      108.40805550983519      115.45065549307212
H          128.87720179079915      107.55412719159236      114.15401800971250
O          124.89908633118993      109.06788058619210      110.98249756903813
C          131.22050908065759      108.63814815738297      114.23901190428367
H          130.20750030863888      109.34287961701534      116.00585822529948
H          130.80999588363656      107.68030219511392      116.11890381495510
C          130.87471376750878      109.90273857446293      113.45304986315305
H          132.24197153438806      108.74481524386336      114.60820657439457
H          131.17527370961710      107.76342523782336      113.58754133243239
C          131.99298795133839      110.23268276922798      112.46391071381072
H          129.92446684401392      109.77688835810136      112.93035117680064
H          130.76721752083191      110.72784956796555      114.15906347973467
C          131.86908208753641      111.61460592261261      111.82410756000816
H          132.94000670291186      110.19357403843826      113.00665287995382
H          132.02892473028163      109.47148944222542      111.68152285301535
C          133.10018369938399      111.91727509328999      110.97161433769197
H          130.96820097898683      111.67678382701902      111.21188669371156
H          131.79359232461124      112.37385908027198      112.60457695018722
N          133.17814807246677      113.31220776519103      110.60318904517501
H          133.99990029606121      111.65316200675198      111.54349321472338
H          133.09270641664159      111.33135503368423      110.05044132195053
C          133.60768532365813      113.74134517839146      109.41760160977626
H          133.02499191862293      113.99075128615259      111.35456518287663
O          128.18102745804288      108.18627238499282      117.16201970883213
C          133.71831690525460      115.25203875769176      109.30698138996465
C          133.56875069032412      115.72594398391929      107.86417962518998
H          132.96963567865177      115.71636331918471      109.94906546863555
H          134.70222315713914      115.53979401608946      109.68604815016595
C          133.63510581656308      117.24519730052636      107.75324743076750
H          134.35527072824831      115.27452782806691      107.25629496489175
H          132.61037682387476      115.37551644914588      107.47409555472912
C          133.30083052785915      117.71422411145652      106.33788337898224
H          132.92191086320210      117.69259708324181      108.44590890727160
H          134.63254607472763      117.59563106824073      108.02519428556757
C          133.26315737585455      119.22680430061506      106.24300982193232
H          134.01634968351539      117.32175554777558      105.61698127783531
H          132.30901176423583      117.34076374367491      106.06720978629683
N          134.02917163223711      119.74995565441652      105.28259146834576
O          133.90536466810687      112.98836862473372      108.48942412749790
C          134.05803843490264      121.17157335999697      104.99999306538352
H          134.42447203893059      119.13285677169422      104.58577179056141
C          134.33917491972866      121.44117908040711      103.52793491421164
H          133.08919057435867      121.59140378888395      105.28641342747711
H          134.82476974219765      121.64733847819953      105.62255644541578
C          134.14880649846094      122.91927827904503      103.19491656222652
H          135.36106342957359      121.13850828395439      103.29170653913860
H          133.66452776423750      120.83983540790481      102.91514266758080
C          134.51163020651327      123.21799866084294      101.74178553497903
H          133.10560023003069      123.19056424585304      103.37370150589028
H          134.77108222513965      123.51882579265488      103.86087798073598
C          134.14821519705595      124.63892823471411      101.31126141473422
H          135.58207858047254      123.06045499909132      101.59454333412575
H          133.98621175513321      122.50623312136308      101.09971280603689
C          135.02362773273978      125.71329325167270      101.97156334265071
H          134.26193974057006      124.71992277100316      100.22586433430774
H          133.09965978645258      124.83481700299536      101.55304267956362
N          134.76226493067907      127.07066659187305      101.51627567379587
H          134.87486808247317      125.70188108245922      103.05342692584263
H          136.07692744925959      125.49806472002163      101.77022291757432
H          134.88568986972666      127.12328293920584      100.51055724107614
H          133.79827330453767      127.31718302892159      101.71387729776882
O          132.59278792251652      119.91863929676701      107.00925020933887
C          111.66888184456568      114.59912993321028      130.48834447269155
C          111.85045073120310      116.09423371347611      130.62008249397718
C          112.80192241437011      114.01635051201389      129.62690515944780
C          112.96066321898601      112.51302103110518      129.85344676868809
H          112.59009475419059      114.20690705216032      128.57452367437057
H          113.74261577980319      114.51263017623725      129.87815765959419
C          113.83700734080595      111.85601947288156      128.78053346899600
H          113.40479267567598      112.34159493501046      130.83608925951458
H          111.97888074079155      112.03529417551842      129.84011185293556
C          115.18859713047192      112.53820751488556      128.67276365779870
H          114.00039218260821      110.81062773997192      129.04859424843514
H          113.33685677149799      111.89879457854231      127.81537362816830
N          115.36932879367214      113.24786390984143      127.56347842392849
O          111.22443182699111      116.79026513365297      129.70331590650400
O          112.55342789109750      116.58837714133458      131.48062831166652
H          111.39640348935355      117.79348942694595      129.75128025085576
H          110.70265098069322      114.38114436700855      130.03632912308518
H          111.71712348591177      114.16635070267888      131.48849060103529
C          116.56326955390230      114.01555665517699      127.27668081168167
H          114.62330376312418      113.29336725257050      126.87796504774344
C          116.23858564222959      115.21377811506275      126.38993100432558
H          116.99646267970685      114.33061954245476      128.22955227272695
H          117.29041243054810      113.37490837902077      126.76473487825672
C          115.18739229524900      116.15002576063382      126.98456195281170
H          117.16310087374255      115.76213246838789      126.20521096336191
H          115.86330006385978      114.83689334324352      125.43862036136382
C          115.67390037810661      116.92495596791289      128.20706793359929
H          114.87974470320806      116.85652298090773      126.21291537738342
H          114.30971759303539      115.56407465321361      127.25714904451382
C          114.57418790186122      117.82712801068661      128.76070561628094
H          115.98112040774747      116.22849641975317      128.98957287099523
H          116.54198007150347      117.53111702957258      127.94211562869211
C          114.96856858609553      118.52302965860824      130.06255737484179
H          114.30630599183367      118.59130729885166      128.03029441809852
H          113.68125736819159      117.22995954378951      128.94553425976775
N          115.23776540212390      117.55399727434195      131.10273543452772
H          115.87530747573581      119.11799353607128      129.93282212895244
H          114.14521342159317      119.16898920262203      130.38299011607035