3536
 energy: -3716.268036209359 gnorm: 0.000658921085 xtb: 6.6.1 (8d0f1dd)
C           44.05721795247672       59.30819553492464       63.65693444488744
C           44.39043879379325       59.53620356074213       65.13148830940891
C           45.00600489013094       58.27273165459078       65.72548375793825
C           43.11925307569654       59.96303890722963       65.87473713298883
C           43.23827372090918       60.16923463968918       67.39189225703886
C           41.84668455907792       60.48321171433066       67.94356008681915
C           44.23341826017536       61.28542483739533       67.72148477140460
C           44.52940046678840       61.50254809622756       69.21188836561237
C           45.40640534715161       62.74733552852034       69.35881330840026
C           45.22283907361292       60.29133705849254       69.86407976003770
C           44.32461320330906       59.42136840974482       70.75132573754509
C           43.90623626854833       60.18521784540525       72.00922363521764
C           45.04687791385962       58.13803091637813       71.18968438569865
C           45.32638111340596       57.08868481161031       70.10676459221222
C           44.03009346341904       56.47407075837763       69.58105566773193
C           46.22434831863178       55.97806030122457       70.67717496412162
C           47.71109765708105       56.34438951756808       70.77151431381151
C           48.37111468517175       56.22095979745408       69.39795295727589
C           48.46066198504150       55.44125225043445       71.76266708861968
C           48.09593779102337       55.59142124942513       73.24467385739905
C           48.36810615574385       57.01125900236899       73.74238811617701
C           48.90219844559856       54.60556273504343       74.10621107057904
C           48.62629832250789       53.11194851931349       73.88442763691303
C           47.18117847368151       52.75894701885384       74.22819004205735
C           49.60762641563050       52.28605629977286       74.72993036625239
C           49.74206764479253       50.80559210719952       74.33934882983897
C           50.47964736078823       50.06642805928298       75.45702873795575
C           50.49225418312722       50.63926091365119       73.01065380028719
C           50.37435136217301       49.24558322220292       72.36518118949286
C           51.73761761519655       48.80926451502128       71.82567879785506
C           49.35197671626002       49.20698497284239       71.21878536494047
C           47.89154030112862       49.42296082298443       71.62834100072499
C           47.38159269282471       48.25942808475634       72.48089061850574
C           46.96856538827273       49.56190368401867       70.40825492290381
C           47.22301686524970       50.74496021398551       69.46245119015506
C           47.31948714849297       52.05978121389541       70.22707259190970
C           46.08768596112142       50.78658768202445       68.42870764410948
C           46.21483599249416       51.83563872895947       67.31289468581788
C           44.90873274777248       51.87925459459534       66.52093159164188
C           47.40867358702567       51.51919742761793       66.40676826281434
C           47.69831592314599       52.51614649323930       65.27498831697530
C           48.87438281873771       51.98525179975166       64.45518566867743
C           47.99384331618060       53.90891724290422       65.84488995479029
C           48.48361743103781       54.96754990044999       64.84625367900286
C           48.83027819563669       56.24052396092888       65.61758135763591
C           47.41958718063271       55.24052803408154       63.77981117803009
C           47.77198567795912       56.26872057259838       62.69593211224154
C           46.49347381509281       56.60638460298344       61.92426193398825
C           48.83463668101401       55.76450995598543       61.70607516253900
C           50.30654955509561       56.05557184249038       62.03095149035020
C           50.59336196058679       57.55317066857832       61.98459190077425
C           51.19242705064701       55.31676667080271       61.01602274807671
C           52.67016961046436       55.19778525798102       61.41218175066057
C           53.51964279980378       54.92947303418700       60.17143550961868
C           52.85662347453817       54.09135741036323       62.45523648337794
C           54.16649222108432       54.17006394007468       63.24609179046013
C           54.28366845803915       52.93553056538867       64.13906218733494
C           54.24196895521371       55.45990027030449       64.08330972649887
C           55.27686689749594       56.48210176528833       63.58778636013503
C           56.67855420092408       56.01922384495257       63.97150413021206
C           54.93948083815656       57.85462407132400       64.18437594761085
C           55.88543126001717       59.02312300068259       63.86703762418876
C           55.32519321048612       60.27617533175082       64.54231349974773
C           56.05236237541937       59.22220932893693       62.35540239782795
C           56.80362348861808       60.48877998799375       61.91040973922076
C           56.84035962892651       60.52039152969547       60.38225981503206
C           58.21820127071628       60.53657598345654       62.50001316868349
C           59.04560388371650       61.79864773488804       62.20453857572718
C           60.49074285996556       61.54099459651678       62.62922511872205
C           58.47527273886861       63.02110277035406       62.93438312159142
C           59.09818119176023       64.37587082654866       62.55976009683298
C           58.70218177691839       65.41414968157545       63.60997430473589
C           58.65693997190147       64.81710098728972       61.15908097878071
C           59.43224386354942       66.00415360021296       60.56868390851464
C           58.65207593559784       66.58384149125303       59.38901864391411
C           60.83740008888867       65.58130648798112       60.12630595097962
C           61.82856860861756       66.73497569217683       59.93293681829240
C           63.09799080728956       66.19725733350721       59.27190030446248
C           62.16818513262357       67.42776603649013       61.26540338837124
C           61.61797384240789       68.85123202344674       61.42737306562949
C           62.26199802255350       69.80260269541860       60.42262601059425
C           61.88686145434474       69.32864504118884       62.86149363637845
C           61.05788698676131       70.53750377506128       63.32081444726573
C           61.79662755858659       71.25504863653912       64.45061241458828
C           59.66658008325550       70.08202144445292       63.77769594555873
C           58.64227681612654       71.21059195223782       63.96698920744995
C           57.51521635884956       70.72668492729262       64.87919867761778
C           58.09319787417219       71.68903979197648       62.61763018746159
C           57.43642694780706       73.06640965372395       62.68278973534987
C           56.87645281427029       73.48712930437030       61.32962206008115
H           44.96206860010131       59.10248628054589       63.08964546398846
H           43.37970023875322       58.46354422060453       63.54497928195717
H           43.57728386908853       60.18358052757075       63.22599170707204
H           56.39311261947935       74.45930847960288       61.39706214548714
H           57.67222144408605       73.55216999096558       60.59203552864798
H           56.14370467910505       72.76385587787247       60.97959156082263
H           58.90855742088235       71.73500487105078       61.89316023690544
H           57.36815365573822       70.96057150495236       62.24630475431829
H           59.26305774169135       69.37367539779751       63.05032128306975
H           59.78217583516042       69.54737661329300       64.72370951093735
H           60.95068440300577       71.23729560816683       62.48626103785877
H           61.23042555988969       72.10692398030962       64.81900472875144
H           61.96719110926099       70.57427433367708       65.28291761762586
H           62.76155643233230       71.62023761497910       64.10430954380185
H           61.69245242900199       68.50770970135703       63.55575927557891
H           62.94961228356750       69.57312626034674       62.94093209777054
H           61.78838764122086       66.81538340125974       62.08482609896802
H           63.25389936235420       67.47825511878399       61.38226774134264
H           59.13145924817274       72.05896356849388       64.45724788543548
H           57.04613838472741       69.83769663053273       64.46196140164783
H           57.90274743588550       70.47664780787817       65.86469272802447
H           56.75248185911472       71.49179979963685       65.00240461932731
H           60.53787566217432       68.83792475100073       61.24842160239630
H           63.33579136659879       69.86260967364123       60.59333039846206
H           62.10147054865488       69.46787973629445       59.40137381409755
H           61.84579436187799       70.80303136301190       60.51393187905160
H           61.37953672327153       67.46290356141934       59.25132013856098
H           63.83003467266908       66.99106236470820       59.13796904320870
H           63.54828975161128       65.42186325201739       59.88906086984312
H           62.87494496270088       65.77250876780366       58.29617576523963
H           61.26118776206459       64.89328826392695       60.86046433675577
H           60.75235721527753       65.03553267202767       59.18413673263193
H           59.51980071690289       66.78108024130903       61.33225801986116
H           59.19541860547222       67.40623134260238       58.93032767889184
H           58.48150053833049       65.82129409466329       58.63096466804978
H           57.68520103282572       66.96057480233739       59.71490222602061
H           58.75195188048605       63.97644977522371       60.46866937773711
H           57.59744747975204       65.08066500772475       61.20586444386191
H           60.18754767231444       64.28202223206711       62.58094025712429
H           59.04018465569434       65.10405542562619       64.59744850781918
H           59.14394341460958       66.38415021037869       63.39470192305084
H           57.62103149373423       65.53248580735718       63.64038682894041
H           57.40093813660722       63.08599195853241       62.74951880482300
H           58.60991393397457       62.86311803131249       64.00853010864034
H           59.04197961642909       61.98303755982612       61.12703478021008
H           60.54726146727580       61.36435713702193       63.70258693896018
H           60.88471023633097       60.66639425759808       62.11798602064150
H           61.13233770125284       62.38302894990480       62.38427955236528
H           58.15819988939327       60.43038105028182       63.58490347543889
H           58.76765458971919       59.67031826526622       62.11991021468476
H           56.23671125707661       61.35954613442495       62.25003463244251
H           57.23659809700354       61.46374224713870       60.01586610641628
H           57.46109770221312       59.71263534499807       59.99824606459907
H           55.83808326913149       60.40289123373115       59.97665427802715
H           56.57627985852814       58.35677603046504       61.94267148148156
H           55.05712162078917       59.24962254660500       61.90374253382330
H           56.86055017314357       58.79832857961190       64.30704898489441
H           55.11320234241006       60.07672165042818       65.59098984166400
H           56.02709673678960       61.10456698494738       64.49584463069623
H           54.39854736090341       60.58271570758205       64.06249177053165
H           53.93447606143203       58.13137192106020       63.85200485744857
H           54.89934771149601       57.74750530182111       65.27272056912838
H           55.21427532722730       56.54628470859983       62.49666125592952
H           57.44096808006483       56.66564503951587       63.54591282517003
H           56.78904908653504       56.01835713733433       65.05472229858765
H           56.85762718761861       55.00651577164133       63.61595195381255
H           53.25692376675859       55.92969930162384       64.10058735852471
H           54.48670609189679       55.20954437034787       65.11774696511517
H           55.00128814872458       54.14979933996664       62.53852145450071
H           55.22109831062395       52.94536071202356       64.69125155738929
H           53.46406680401425       52.90576356460539       64.85494416664142
H           54.24786301334267       52.02217795771774       63.54771852088422
H           52.03005839259779       54.12246857782709       63.16960223938872
H           52.80643698008551       53.12497945074587       61.94958191595883
H           52.99558454323775       56.14831574291848       61.84129434212807
H           53.17927561375485       54.03123171337330       59.65997989788768
H           53.45044588289831       55.76304780217879       59.47648608015737
H           54.56565663261444       54.79348210187889       60.43357183355213
H           50.80102692661993       54.30733603831693       60.86564562596820
H           51.12122034984996       55.84180291607299       60.05951821505884
H           50.53889878000160       55.69189507836126       63.03515027091293
H           50.33081963848934       57.95899472786585       61.00997070675196
H           50.02778076674995       58.09032137944128       62.74121612170823
H           51.64832743755068       57.74688865070435       62.16110924435441
H           48.70527270427292       54.68505515205161       61.58990762291597
H           48.63396201488097       56.21701685071523       60.73175761466739
H           48.11914284053783       57.18778189758643       63.17328505478169
H           46.67377262531762       57.40422704232485       61.20618523819392
H           46.13308641274810       55.73143021664909       61.38641086682195
H           45.70635556731862       56.92923786068886       62.60134283965908
H           47.16514596124513       54.30382432601598       63.27909554103239
H           46.51902224386809       55.58473813505798       64.29672100714036
H           49.39297850435599       54.59647475896358       64.36830632479010
H           49.34737016127075       56.95566021382506       64.98360767766215
H           47.92697894212181       56.70923677765837       66.00313254875977
H           49.47743214531025       56.01094958789638       66.46030887566444
H           47.09115390082755       54.29500314324977       66.32416207267039
H           48.75585520005234       53.79745170713044       66.62170015075583
H           46.82341948511478       52.56803183575840       64.62030372265316
H           48.69844804100467       50.95231539053970       64.16175005417642
H           49.02028044703328       52.56634381493498       63.54916952901568
H           49.79099001492426       52.02043943462748       65.04102559496839
H           48.30671514334540       51.45473987278234       67.02344431313074
H           47.24162305193507       50.53489677956699       65.96454379436194
H           46.35748116987860       52.81721756011292       67.77208352789926
H           44.92129093576717       52.68077036229730       65.78733220725132
H           44.75001052968766       50.93814089643629       65.99940918156265
H           44.06313649348285       52.04782342981120       67.18606874940508
H           46.00569829574059       49.79986418893778       67.96559489793893
H           45.15238961141050       50.96959159983103       68.96659886309197
H           48.16868811904693       50.57301790395579       68.94196897206750
H           48.18012990981426       52.04930727136240       70.88897282503012
H           47.43802169608119       52.89497661197233       69.54216091466049
H           46.42400171611683       52.22596723743349       70.82277439024901
H           47.03246995499624       48.63931230246412       69.82472814824781
H           45.94207105909691       49.64130761084571       70.77915817375272
H           47.81819978819409       50.33634570953668       72.22191616604221
H           46.33668276761523       48.41009382187129       72.74663434506223
H           47.46068003379627       47.32223360225382       71.93241616271924
H           47.94946331560194       48.16244688652281       73.40265636445426
H           49.63705003139015       49.96746865823542       70.48969532870144
H           49.42619581887483       48.23552660478740       70.72124977388297
H           50.07415765562720       48.51993193474453       73.12617676200432
H           52.47438300095359       48.76661004183191       72.62511234056180
H           51.67548353453234       47.82301593190746       71.37079642563808
H           52.08901374606172       49.51255472531947       71.07421106167678
H           50.14389841671105       51.38423781139174       72.29457635859039
H           51.54661399492538       50.85291160146060       73.20077341368793
H           48.74404714825704       50.36929365037843       74.24788664851381
H           49.91019788974143       50.10101567942126       76.38375489099769
H           50.64121381164553       49.02264032628611       75.19841647997453
H           51.45064684457765       50.52510837837963       75.63726664232648
H           50.60046033118147       52.73972581945590       74.66969773150646
H           49.29197514769359       52.34503406345916       75.77514915604128
H           48.79927430308752       52.88038393341350       72.83158522023000
H           46.49057908669175       53.23937591791869       73.53999432841566
H           47.01718272421729       51.68596576211432       74.16686554448441
H           46.94147279322458       53.08160930602149       75.23996728166006
H           49.96312037548666       54.79239601443790       73.92525939468324
H           48.70836246165955       54.83003572084381       75.15942529891356
H           47.03095026379569       55.38547228507664       73.38412869765278
H           48.20653460091489       57.07669420851337       74.81691085781608
H           49.39710788408700       57.29590552119340       73.53421077185466
H           47.70343685709830       57.72743262420819       73.26602044853966
H           48.28532315508106       54.40893970149133       71.46032066240308
H           49.53235600981118       55.63600824345770       71.66189598484952
H           47.80373697194128       57.38429017800815       71.09697292355726
H           49.40874592001845       56.54315309016912       69.43896612691876
H           48.34733569171148       55.18806611299576       69.05620372210353
H           47.85841671743479       56.83327198298676       68.66141655118018
H           45.84329174919083       55.71387642648888       71.66521809565644
H           46.13228330184985       55.08846813207305       70.04989541543000
H           45.84481142952316       57.56204211739401       69.26780921093390
H           43.49481293666745       55.97229676853323       70.38522070796098
H           43.37560576311445       57.23115592452842       69.15708858631551
H           44.24464171487733       55.74331408601190       68.80421690856700
H           45.99376857823131       58.43337811677065       71.64827061319858
H           44.44788905107247       57.65860783213634       71.96958835390664
H           43.41972666411333       59.15417712301196       70.19921004258825
H           44.77992392069200       60.42545848808594       72.61278405786001
H           43.40019411835283       61.11511670558474       71.76208148203773
H           43.22853306505979       59.58544871621431       72.61391225043135
H           45.65372214116965       59.67399460919631       69.07619440768651
H           46.05286100126466       60.64276682192136       70.48157775157135
H           43.58668549853840       61.70414496198684       69.72729669790029
H           45.59264957685208       62.96677193169290       70.40830164053827
H           46.36364700822093       62.59711510702486       68.86298709096292
H           44.92222356118881       63.61364412708271       68.91160197870728
H           45.18042488026858       61.07512872584459       67.22237535509794
H           43.84480196110805       62.22003375406038       67.30627690602519
H           43.58411259197084       59.23720406089782       67.84602932446930
H           41.48215601370731       61.42631523578165       67.53998887814075
H           41.14185052909742       59.70092194750612       67.66713775366166
H           41.85396281354937       60.55694921150629       69.02796328761580
H           42.75903156093371       60.89654010291316       65.43288154789681
H           42.35276486512596       59.20301618118740       65.69508726333753
H           45.12861501172717       60.34227174062627       65.19046174294930
H           44.26272317913443       57.47987752980426       65.78815322853023
H           45.82900479373421       57.92872051422325       65.10262892183853
H           45.39229841330820       58.45538013294106       66.72441808143039
H           56.62753415901214       73.06218115711727       63.41658123380221
H           58.17426589893511       73.80163041878984       63.01547464385568
C           48.35886602989383       73.96341732572947       58.36055124593577
C           49.53470586326485       73.00374510216804       58.17604934083218
C           49.22819125576763       71.67769781200677       58.86347155638855
C           50.81086563802579       73.65192551773502       58.72642411045322
C           52.11085962024358       72.84174310171791       58.59802882813322
C           53.25492337693952       73.67125216008638       59.18142995569611
C           52.37175409118059       72.46650955870443       57.13450699109980
C           53.73434541038997       71.83789215664349       56.80386993200173
C           53.81295090713489       71.66338487534138       55.28617365871120
C           53.92595162528956       70.50410107966979       57.53663198553672
C           55.30996136207595       69.85626915918554       57.37981347036619
C           55.23994442340225       68.38524537920824       57.78772768257222
C           56.36836710219180       70.59186214760254       58.21067524837938
C           57.81704103852480       70.34206839018002       57.76543495310388
C           58.76278842657306       70.68032117354204       58.91585671689701
C           58.14823815889699       71.17437814919364       56.52068990839626
C           59.51203331513496       70.85198193005002       55.87961064062831
C           60.38334416420681       72.10662753564304       55.82467753936344
C           59.36980985469196       70.26427194808439       54.46939156531469
C           58.80523592677908       68.83935883929573       54.42141341281874
C           59.82987964671960       67.82875987145147       54.93777250593175
C           58.41561986286127       68.44814812856022       52.98802148810650
C           57.22170252701279       69.18716855931937       52.37227937159373
C           55.97672131650582       69.06031785200065       53.24867616530901
C           56.87598294096144       68.61629917143270       50.98888431681252
C           57.98570342622916       68.61164577003106       49.93283278254581
C           58.55800693289633       70.01212935963129       49.71611528947806
C           57.45847195665092       68.07917211432822       48.59024505990404
C           56.77722488844201       66.70657269316685       48.63484463497251
C           57.72196412852721       65.62857722152374       49.16208535656141
C           56.26888952102118       66.28929926561260       47.24792492677589
C           55.22397589966271       67.21055234798634       46.60543908831878
C           54.08625812333414       67.54420273808741       47.57188030278844
C           54.60923137988686       66.55611232369745       45.35903560852391
C           55.57369347573065       66.10590725983305       44.25356880883448
C           56.39669838763475       67.27498437053340       43.72197520841404
C           54.74885167958004       65.43428126021763       43.14469031060967
C           55.55390656766287       64.62270465417905       42.10998398791074
C           55.70281374250055       65.40884529418973       40.80503365945986
C           54.88524730275341       63.26804163289587       41.80559362307169
C           55.35653947656169       62.06474150505932       42.64054038237684
C           55.36039337437818       62.34888816734480       44.14009065708805
C           56.73507000552403       61.56161044599768       42.18343875845490
C           56.70037889894865       60.66205046907886       40.94105880305570
C           56.06449429837173       59.30767317788448       41.25987158479362
C           58.11280318575918       60.39655827629272       40.39744143613957
C           58.89176374152542       61.59533186438854       39.84611711807110
C           58.10600743628077       62.29712018822075       38.73628864206677
C           60.25473387873315       61.16220566621424       39.27716630532809
C           61.40558507789947       60.82146955350819       40.24484806245776
C           61.30073124144902       59.42485034827781       40.86197646222711
C           61.60602366720015       61.84637890030354       41.36694926188971
C           61.88186342852649       63.28462724555826       40.91440758903301
C           63.27805972490277       63.40563740852386       40.30476596219777
C           61.75301773718158       64.25269214562817       42.09999731734730
C           60.31111536669315       64.57195769115162       42.51514409317902
C           59.66769162918899       65.53753033880605       41.52144453073705
C           60.27472388536363       65.17348942447002       43.92780385559529
C           60.41379991728532       64.13451752109498       45.04859719565187
C           59.07772144012935       63.43107256473581       45.28460534030499
C           60.87483261388771       64.77259994240652       46.36636594086696
C           62.31122850787577       65.30652720112337       46.39431543216603
C           63.32570614647103       64.18615939189881       46.16046568047541
C           62.63475119002733       65.96387174161816       47.74527465465913
C           61.73654176291993       67.12280162127173       48.19293347061932
C           61.62084446283409       68.19570254226028       47.10976226763088
C           62.28565985575680       67.77832904746656       49.47038220451510
C           62.52006704742991       66.85409058677270       50.67150939537649
C           61.24775401553863       66.10619825381113       51.06397954632366
C           63.00699748272189       67.65495068954624       51.88828490393831
C           64.33868457799171       68.39824631728619       51.73095861102547
C           65.46686243598865       67.44489875225614       51.33424434123260
C           64.73286045863860       69.10355221287730       53.03882355923804
C           63.73222362127689       70.12861677742448       53.58328707478147
C           63.49135204086271       71.25865483842314       52.58182142606992
C           64.22592832763534       70.73260773670310       54.90575695378322
C           64.41143169584090       69.75759692236691       56.07727246899935
C           63.24404907431191       68.77865164250369       56.20179801607500
C           64.51827420600688       70.51742329520596       57.40836693058993
C           65.58124297249935       71.61551639899476       57.51145973448180
C           66.98890885353920       71.02790826550694       57.43803883780907
C           65.39467650093019       72.38108872620724       58.83145683871876
C           64.24365969500479       73.40055137546686       58.79712821327326
C           64.72455259260430       74.71813090404132       58.19304659626660
C           63.68309720593006       73.59455550491141       60.21176060280524
C           62.52266439321433       74.58978930255552       60.36449211007540
C           62.09751894180552       74.61994551338645       61.83355707852689
C           61.34119256565103       74.23738773745598       59.45441451450561
C           60.18943301618874       75.24013263225245       59.52940018041511
C           59.18847159530235       75.03155986452563       58.39826572701564
H           47.44850523139874       73.53682945603876       57.94510872024387
H           48.19185219426947       74.16076198578811       59.41779487856154
H           48.55127881728274       74.91127606382051       57.86233161987505
H           59.66253146269985       75.19179317110475       57.43189801483538
H           58.79485884821200       74.01743677727943       58.41823080514759
H           58.35439146475793       75.72379280301574       58.49051166850782
H           61.69034728613830       74.20786153199813       58.42065050614080
H           60.97253286406215       73.24036660100528       59.70894168217950
H           63.34665458557708       72.62298433160171       60.58065114121428
H           64.49981853152090       73.92446725814946       60.86023192998036
H           63.45062035594372       72.99828368134681       58.16098389825341
H           65.42673042687315       75.20944681575706       58.86417847340405
H           65.22673183708710       74.54033866632685       57.24464473903288
H           63.89333488652704       75.39445335817010       58.01028953912301
H           65.21630161653216       71.65324003322915       59.62615422932863
H           66.31837190958559       72.90882916621848       59.07931294490693
H           63.54164682232190       70.96212815568700       57.61241824839514
H           64.71379819242075       69.78944329754925       58.20001121449985
H           62.87785432188420       75.59015400453731       60.09378038988852
H           62.95828036617720       74.80276095719745       62.47352804615460
H           61.37095980839869       75.40711316887537       62.01569152331665