      -----------------------------------------------------------      
     |                   =====================                   |     
     |                           x T B                           |     
     |                   =====================                   |     
     |                         S. Grimme                         |     
     |          Mulliken Center for Theoretical Chemistry        |     
     |                    University of Bonn                     |     
      -----------------------------------------------------------      

   * xtb version 6.6.1 (8d0f1dd) compiled by 'stahn@M-Bot' on 2023-08-01

   xtb is free software: you can redistribute it and/or modify it under
   the terms of the GNU Lesser General Public License as published by
   the Free Software Foundation, either version 3 of the License, or
   (at your option) any later version.
   
   xtb is distributed in the hope that it will be useful,
   but WITHOUT ANY WARRANTY; without even the implied warranty of
   MERCHANTABILITY or FITNESS FOR A PARTICULAR PURPOSE.  See the
   GNU Lesser General Public License for more details.
   
   Cite this work as:
   * C. Bannwarth, E. Caldeweyher, S. Ehlert, A. Hansen, P. Pracht,
     J. Seibert, S. Spicher, S. Grimme, WIREs Comput. Mol. Sci., 2020, 11,
     e01493. DOI: 10.1002/wcms.1493
   
   for GFN2-xTB:
   * C. Bannwarth, S. Ehlert and S. Grimme., J. Chem. Theory Comput., 2019,
     15, 1652-1671. DOI: 10.1021/acs.jctc.8b01176
   for GFN1-xTB:
   * S. Grimme, C. Bannwarth, P. Shushkov, J. Chem. Theory Comput., 2017,
     13, 1989-2009. DOI: 10.1021/acs.jctc.7b00118
   for GFN0-xTB:
   * P. Pracht, E. Caldeweyher, S. Ehlert, S. Grimme, ChemRxiv, 2019, preprint.
     DOI: 10.26434/chemrxiv.8326202.v1
   for GFN-FF:
   * S. Spicher and S. Grimme, Angew. Chem. Int. Ed., 2020, 59, 15665-15673.
     DOI: 10.1002/anie.202004239
   
   for ALPB and GBSA implicit solvation:
   * S. Ehlert, M. Stahn, S. Spicher, S. Grimme, J. Chem. Theory Comput.,
     2021, 17, 4250-4261. DOI: 10.1021/acs.jctc.1c00471
   
   for DFT-D4:
   * E. Caldeweyher, C. Bannwarth and S. Grimme, J. Chem. Phys., 2017,
     147, 034112. DOI: 10.1063/1.4993215
   * E. Caldeweyher, S. Ehlert, A. Hansen, H. Neugebauer, S. Spicher,
     C. Bannwarth and S. Grimme, J. Chem. Phys., 2019, 150, 154122.
     DOI: 10.1063/1.5090222
   * E. Caldeweyher, J.-M. Mewes, S. Ehlert and S. Grimme, Phys. Chem. Chem. Phys.
     2020, 22, 8499-8512. DOI: 10.1039/D0CP00502A
   
   for sTDA-xTB:
   * S. Grimme and C. Bannwarth, J. Chem. Phys., 2016, 145, 054103.
     DOI: 10.1063/1.4959605
   
   in the mass-spec context:
   * V. Asgeirsson, C. Bauer and S. Grimme, Chem. Sci., 2017, 8, 4879.
     DOI: 10.1039/c7sc00601b
   * J. Koopman and S. Grimme, ACS Omega 2019, 4, 12, 15120-15133.
     DOI: 10.1021/acsomega.9b02011
   
   for metadynamics refer to:
   * S. Grimme, J. Chem. Theory Comput., 2019, 155, 2847-2862
     DOI: 10.1021/acs.jctc.9b00143
   
   for SPH calculations refer to:
   * S. Spicher and S. Grimme, J. Chem. Theory Comput., 2021, 17, 1701-1714
     DOI: 10.1021/acs.jctc.0c01306
   
   with help from (in alphabetical order)
   P. Atkinson, C. Bannwarth, F. Bohle, G. Brandenburg, E. Caldeweyher
   M. Checinski, S. Dohm, S. Ehlert, S. Ehrlich, I. Gerasimov, C. Hölzer
   A. Katbashev, J. Koopman, C. Lavigne, S. Lehtola, F. März, M. Müller,
   F. Musil, H. Neugebauer, J. Pisarek, C. Plett, P. Pracht, F. Pultar,
   J. Seibert, P. Shushkov, S. Spicher, M. Stahn, M. Steiner, T. Strunk,
   J. Stückrath, T. Rose, and J. Unsleber
   
 * started run on 2024/06/20 at 19:07:46.425     

           -------------------------------------------------
          |                Calculation Setup                |
           -------------------------------------------------

          program call               : /home/abt-grimme/AK-bin/xtb input.xyz --input input.inp --opt --gbsa water
          hostname                   : boar063.thch.uni-bonn.de
          coordinate file            : input.xyz
          omp threads                :                     8

   ID    Z sym.   atoms
    1    6 C      1-90, 273-362, 545-634, 817-906, 1089-1178, 1361-1450,
                  1633-1722, 1905-1994, 2177-2266, 2449-2538, 2721-2810,
                  2993-3082, 3265-3354
    2    1 H      91-272, 363-544, 635-816, 907-1088, 1179-1360, 1451-1632,
                  1723-1904, 1995-2176, 2267-2448, 2539-2720, 2811-2992,
                  3083-3264, 3355-3536

molecular fragmentation (1/2 indicates fragments):
111111111111111111111111111111111111111111111111111111111111111111111111
111111111111111111111111111111111111111111111111111111111111111111111111
111111111111111111111111111111111111111111111111111111111111111111111111
111111111111111111111111111111111111111111111111111111112222222222222222
222222222222222222222222222222222222222222222222222222222222222222222222
222222222222222222222222222222222222222222222222222222222222222222222222
222222222222222222222222222222222222222222222222222222222222222222222222
222222222222222222222222222222222222222222222222222222222222222222222222
222222222222222222222222222222222222222222222222222222222222222222222222
222222222222222222222222222222222222222222222222222222222222222222222222
222222222222222222222222222222222222222222222222222222222222222222222222
222222222222222222222222222222222222222222222222222222222222222222222222
222222222222222222222222222222222222222222222222222222222222222222222222
222222222222222222222222222222222222222222222222222222222222222222222222
222222222222222222222222222222222222222222222222222222222222222222222222
222222222222222222222222222222222222222222222222222222222222222222222222
222222222222222222222222222222222222222222222222222222222222222222222222
222222222222222222222222222222222222222222222222222222222222222222222222
222222222222222222222222222222222222222222222222222222222222222222222222
222222222222222222222222222222222222222222222222222222222222222222222222
222222222222222222222222222222222222222222222222222222222222222222222222
222222222222222222222222222222222222222222222222222222222222222222222222
222222222222222222222222222222222222222222222222222222222222222222222222
222222222222222222222222222222222222222222222222222222222222222222222222
222222222222222222222222222222222222222222222222222222222222222222222222
222222222222222222222222222222222222222222222222222222222222222222222222
222222222222222222222222222222222222222222222222222222222222222222222222
222222222222222222222222222222222222222222222222222222222222222222222222
222222222222222222222222222222222222222222222222222222222222222222222222
222222222222222222222222222222222222222222222222222222222222222222222222
222222222222222222222222222222222222222222222222222222222222222222222222
222222222222222222222222222222222222222222222222222222222222222222222222
222222222222222222222222222222222222222222222222222222222222222222222222
222222222222222222222222222222222222222222222222222222222222222222222222
222222222222222222222222222222222222222222222222222222222222222222222222
222222222222222222222222222222222222222222222222222222222222222222222222
222222222222222222222222222222222222222222222222222222222222222222222222
222222222222222222222222222222222222222222222222222222222222222222222222
222222222222222222222222222222222222222222222222222222222222222222222222
222222222222222222222222222222222222222222222222222222222222222222222222
222222222222222222222222222222222222222222222222222222222222222222222222
222222222222222222222222222222222222222222222222222222222222222222222222
222222222222222222222222222222222222222222222222222222222222222222222222
222222222222222222222222222222222222222222222222222222222222222222222222
222222222222222222222222222222222222222222222222222222222222222222222222
222222222222222222222222222222222222222222222222222222222222222222222222
222222222222222222222222222222222222222222222222222222222222222222222222
222222222222222222222222222222222222222222222222222222222222222222222222
222222222222222222222222222222222222222222222222222222222222222222222222
22222222
# atoms in fragment 1/2:   272  3264
 fragment masses (1/2) :     1264.41    15172.94
CMA distance (Bohr)    :  20.643
constraining FC (au)   :  0.0500

           -------------------------------------------------
          |                 G F N 2 - x T B                 |
           -------------------------------------------------

        Reference                      10.1021/acs.jctc.8b01176
      * Hamiltonian:
        H0-scaling (s, p, d)           1.850000    2.230000    2.230000
        zeta-weighting                 0.500000
      * Dispersion:
        s8                             2.700000
        a1                             0.520000
        a2                             5.000000
        s9                             5.000000
      * Repulsion:
        kExp                           1.500000    1.000000
        rExp                           1.000000
      * Coulomb:
        alpha                          2.000000
        third order                    shell-resolved
        anisotropic                    true
        a3                             3.000000
        a5                             4.000000
        cn-shift                       1.200000
        cn-exp                         4.000000
        max-rad                        5.000000

      * Solvation model:               GBSA
        Solvent                        water
        Parameter file                 internal GFN2-xTB/GBSA
        Dielectric constant                8.0200E+01
        Reference state                gsolv [1 M gas/solution]
        Free energy shift                  1.8574E-03 Eh       1.1656E+00 kcal/mol
        Temperature                        2.9815E+02 K
        Density                            1.0000E+00 kg/L
        Solvent mass                       1.8000E+01 g/mol
        Interaction kernel             Still
        Born radius scaling (c1)           1.5524E+00
        Born radii integrator          GBOBC
        Born offset                        2.4628E-02 a0       4.6540E-02 AA
        H-bond correction              true
        Ion screening                  false
        Surface tension                    1.0000E-05 Eh       1.5569E+01 dyn/cm
        Grid points                               230 per atom
q/qsh data taken from xtbrestart
CAMM data taken from xtbrestart

          ...................................................
          :                      SETUP                      :
          :.................................................:
          :  # basis functions                7046          :
          :  # atomic orbitals                7046          :
          :  # shells                         4706          :
          :  # electrons                      7046          :
          :  max. iterations                   250          :
          :  Hamiltonian                  GFN2-xTB          :
          :  restarted?                       true          :
          :  GBSA solvation                   true          :
          :  PC potential                    false          :
          :  electronic temp.          300.0000000     K    :
          :  accuracy                    1.0000000          :
          :  -> integral cutoff          0.2500000E+02      :
          :  -> integral neglect         0.1000000E-07      :
          :  -> SCF convergence          0.1000000E-05 Eh   :
          :  -> wf. convergence          0.1000000E-03 e    :
          :  Broyden damping             0.4000000          :
          ...................................................

 iter      E             dE          RMSdq      gap      omega  full diag
   1  -3764.2165770 -0.376422E+04  0.340E-05   10.52       0.0  T
   2  -3764.2165770 -0.735326E-09  0.252E-05   10.52      66.6  T
   3  -3764.2165770 -0.709861E-09  0.122E-05   10.52     138.2  T

   *** convergence criteria satisfied after 3 iterations ***

         #    Occupation            Energy/Eh            Energy/eV
      -------------------------------------------------------------
         1        2.0000           -0.6185178             -16.8307
       ...           ...                  ...                  ...
      3517        2.0000           -0.3751872             -10.2094
      3518        2.0000           -0.3747873             -10.1985
      3519        2.0000           -0.3739833             -10.1766
      3520        2.0000           -0.3739037             -10.1744
      3521        2.0000           -0.3733486             -10.1593
      3522        2.0000           -0.3730636             -10.1516
      3523        2.0000           -0.3727509             -10.1431 (HOMO)
      3524                          0.0137211               0.3734 (LUMO)
      3525                          0.0159626               0.4344
      3526                          0.0160143               0.4358
      3527                          0.0160813               0.4376
      3528                          0.0169106               0.4602
       ...                                ...                  ...
      7046                          0.3688490              10.0369
      -------------------------------------------------------------
                  HL-Gap            0.3864720 Eh           10.5164 eV
             Fermi-level           -0.1795149 Eh           -4.8848 eV

 SCC (total)                   0 d,  0 h,  8 min, 59.040 sec
 SCC setup                      ...        0 min,  2.020 sec (  0.375%)
 Dispersion                     ...        0 min,  4.412 sec (  0.818%)
 classical contributions        ...        0 min,  0.166 sec (  0.031%)
 integral evaluation            ...        0 min,  7.452 sec (  1.382%)
 iterations                     ...        3 min, 50.463 sec ( 42.754%)
 molecular gradient             ...        4 min, 43.658 sec ( 52.623%)
 printout                       ...        0 min, 10.870 sec (  2.017%)

         :::::::::::::::::::::::::::::::::::::::::::::::::::::
         ::                     SUMMARY                     ::
         :::::::::::::::::::::::::::::::::::::::::::::::::::::
         :: total energy           -3715.355502574463 Eh    ::
         :: total w/o Gsasa/hb     -3715.247046145193 Eh    ::
         :: gradient norm              0.665494317770 Eh/a0 ::
         :: HOMO-LUMO gap             10.516437172958 eV    ::
         ::.................................................::
         :: SCC energy             -3764.216577024350 Eh    ::
         :: -> isotropic ES            0.438957522794 Eh    ::
         :: -> anisotropic ES          1.494597606604 Eh    ::
         :: -> anisotropic XC          2.301778003285 Eh    ::
         :: -> dispersion             -4.721847386949 Eh    ::
         :: -> Gsolv                  -0.045368852866 Eh    ::
         ::    -> Gelec                0.063087576404 Eh    ::
         ::    -> Gsasa               -0.104183165943 Eh    ::
         ::    -> Ghb                 -0.006130706454 Eh    ::
         ::    -> Gshift               0.001857443127 Eh    ::
         :: repulsion energy          48.128429519413 Eh    ::
         :: add. restraining           0.000000000000 Eh    ::
         :: total charge              -0.000000000013 e     ::
         :::::::::::::::::::::::::::::::::::::::::::::::::::::

      ----------------------------------------------------------- 
     |              Fast Inertial Relaxation Engine              |
      ----------------------------------------------------------- 

          ...................................................
          :                      SETUP                      :
          :.................................................:
          :   energy convergence        0.5000000E-05 Eh    :
          :   grad. convergence         0.1000000E-02 Eh/a0 :
          :   optimization log               true           :
          :   writing optlog all                1     steps :
          :   Hessian reset                    20     steps :
          :   time step scaling                 5     steps :
          :   maximium step len.        1.0000000     a0    :
          :   initial time step         0.2500000     fs    :
          :   maximum time step         1.2500000     fs    :
          :   power reset thr           0.0000000     au    :
          :   alpha parameter           0.1000000           :
          :   BFGS update                   false           :
          :   preconditioning               false           :
          ...................................................

........................................................................
.............................. CYCLE    1 ..............................
........................................................................

 iter      E             dE          RMSdq      gap      omega  full diag
   1  -3764.4792934 -0.376448E+04  0.762E-03   10.53       0.0  T
   2  -3764.4793368 -0.434590E-04  0.413E-03   10.53       1.0  T
   3  -3764.4793375 -0.664071E-06  0.179E-03   10.53       1.0  T
   4  -3764.4793380 -0.518433E-06  0.443E-04   10.53       3.8  T
   5  -3764.4793383 -0.277048E-06  0.173E-04   10.53       9.7  T
     SCC iter.                  ...        6 min, 14.424 sec
     gradient                   ...        4 min, 45.304 sec
 * total energy  : -3715.4059167 Eh     change    :  -0.5041411E-01 Eh
   gradient norm :     0.6330068 Eh/a0  converged?    E=F G=F D=F
   time step     :     0.2500000 fs     power     :   0.2609259E-05
   step length   :     0.0779945 a0     speed     :   0.7546388E-02

........................................................................
.............................. CYCLE    2 ..............................
........................................................................

 iter      E             dE          RMSdq      gap      omega  full diag
   1  -3764.8668046 -0.376487E+04  0.112E-02   10.55       0.0  T
   2  -3764.8668979 -0.933853E-04  0.606E-03   10.55       1.0  T
   3  -3764.8668994 -0.147940E-05  0.262E-03   10.55       1.0  T
   4  -3764.8669005 -0.112336E-05  0.656E-04   10.54       2.6  T
   5  -3764.8669011 -0.603064E-06  0.267E-04   10.54       6.3  T
   6  -3764.8669012 -0.411837E-07  0.119E-04   10.54      14.2  T
     SCC iter.                  ...        7 min, 26.766 sec
     gradient                   ...        4 min, 43.272 sec
 * total energy  : -3715.4758891 Eh     change    :  -0.6997242E-01 Eh
   gradient norm :     0.5869709 Eh/a0  converged?    E=F G=F D=F
   time step     :     0.2500000 fs     power     :   0.3569697E-05
   step length   :     0.1149703 a0     speed     :   0.1112400E-01

........................................................................
.............................. CYCLE    3 ..............................
........................................................................

 iter      E             dE          RMSdq      gap      omega  full diag
   1  -3765.3692499 -0.376537E+04  0.144E-02   10.57       0.0  T
   2  -3765.3694027 -0.152823E-03  0.781E-03   10.56       1.0  T
   3  -3765.3694052 -0.246012E-05  0.334E-03   10.56       1.0  T
   4  -3765.3694070 -0.182688E-05  0.843E-04   10.56       2.0  T
   5  -3765.3694080 -0.992923E-06  0.347E-04   10.56       4.8  T
   6  -3765.3694081 -0.674531E-07  0.151E-04   10.56      11.2  T
     SCC iter.                  ...        7 min, 22.139 sec
     gradient                   ...        4 min, 43.933 sec
 * total energy  : -3715.5588588 Eh     change    :  -0.8296972E-01 Eh
   gradient norm :     0.5289744 Eh/a0  converged?    E=F G=F D=F
   time step     :     0.2500000 fs     power     :   0.4162554E-05
   step length   :     0.1492576 a0     speed     :   0.1444147E-01

........................................................................
.............................. CYCLE    4 ..............................
........................................................................

 iter      E             dE          RMSdq      gap      omega  full diag
   1  -3765.9739454 -0.376597E+04  0.172E-02   10.59       0.0  T
   2  -3765.9741582 -0.212785E-03  0.932E-03   10.58       1.0  T
   3  -3765.9741617 -0.354511E-05  0.394E-03   10.58       1.0  T
   4  -3765.9741642 -0.249949E-05  0.995E-04   10.58       1.7  T
   5  -3765.9741656 -0.136813E-05  0.421E-04   10.58       4.0  T
   6  -3765.9741657 -0.966820E-07  0.178E-04   10.58       9.5  T
   7  -3765.9741658 -0.447467E-07  0.117E-04   10.58      14.4  T
     SCC iter.                  ...        8 min, 43.075 sec
     gradient                   ...        4 min, 43.474 sec
 * total energy  : -3715.6472987 Eh     change    :  -0.8843988E-01 Eh
   gradient norm :     0.4626548 Eh/a0  converged?    E=F G=F D=F
   time step     :     0.2500000 fs     power     :   0.4348205E-05
   step length   :     0.1800249 a0     speed     :   0.1741838E-01

........................................................................
.............................. CYCLE    5 ..............................
........................................................................

 iter      E             dE          RMSdq      gap      omega  full diag
   1  -3766.6654524 -0.376667E+04  0.196E-02   10.61       0.0  T
   2  -3766.6657154 -0.263046E-03  0.105E-02   10.60       1.0  T
   3  -3766.6657200 -0.457398E-05  0.436E-03   10.60       1.0  T
   4  -3766.6657229 -0.294048E-05  0.109E-03   10.60       1.5  T
   5  -3766.6657245 -0.162030E-05  0.472E-04   10.60       3.6  T
   6  -3766.6657246 -0.101195E-06  0.183E-04   10.60       9.2  T
   7  -3766.6657247 -0.448490E-07  0.120E-04   10.60      14.1  T
     SCC iter.                  ...        8 min, 41.689 sec
     gradient                   ...        4 min, 44.072 sec
 * total energy  : -3715.7336697 Eh     change    :  -0.8637098E-01 Eh
   gradient norm :     0.3934120 Eh/a0  converged?    E=F G=F D=F
   time step     :     0.2500000 fs     power     :   0.4141203E-05
   step length   :     0.2065554 a0     speed     :   0.1998535E-01

........................................................................
.............................. CYCLE    6 ..............................
........................................................................

 iter      E             dE          RMSdq      gap      omega  full diag
   1  -3767.5089893 -0.376751E+04  0.236E-02   10.63       0.0  T
   2  -3767.5093503 -0.361000E-03  0.127E-02   10.62       1.0  T
   3  -3767.5093573 -0.697429E-05  0.510E-03   10.62       1.0  T
   4  -3767.5093611 -0.382173E-05  0.126E-03   10.62       1.3  T
   5  -3767.5093632 -0.206704E-05  0.579E-04   10.62       2.9  T
   6  -3767.5093633 -0.138468E-06  0.208E-04   10.62       8.1  T
   7  -3767.5093634 -0.560981E-07  0.137E-04   10.62      12.2  T
     SCC iter.                  ...        8 min, 35.123 sec
     gradient                   ...        4 min, 43.920 sec
 * total energy  : -3715.8189644 Eh     change    :  -0.8529474E-01 Eh
   gradient norm :     0.3222990 Eh/a0  converged?    E=F G=F D=F
   time step     :     0.2750000 fs     power     :   0.3535044E-05
   step length   :     0.2534827 a0     speed     :   0.2229619E-01

........................................................................
.............................. CYCLE    7 ..............................
........................................................................

 iter      E             dE          RMSdq      gap      omega  full diag
   1  -3768.5007984 -0.376850E+04  0.275E-02   10.64       0.0  T
   2  -3768.5012414 -0.442929E-03  0.147E-02   10.63       1.0  T
   3  -3768.5012517 -0.103455E-04  0.565E-03   10.63       1.0  T
   4  -3768.5012560 -0.430182E-05  0.136E-03   10.63       1.2  T
   5  -3768.5012581 -0.211831E-05  0.686E-04   10.63       2.5  T
   6  -3768.5012583 -0.176463E-06  0.220E-04   10.63       7.6  T
   7  -3768.5012584 -0.613136E-07  0.150E-04   10.63      11.2  T
     SCC iter.                  ...        8 min, 33.056 sec
     gradient                   ...        4 min, 43.181 sec
 * total energy  : -3715.8937563 Eh     change    :  -0.7479190E-01 Eh
   gradient norm :     0.2654480 Eh/a0  converged?    E=F G=F D=F
   time step     :     0.3025000 fs     power     :   0.2584651E-05
   step length   :     0.3017691 a0     speed     :   0.2413040E-01

........................................................................
.............................. CYCLE    8 ..............................
........................................................................

 iter      E             dE          RMSdq      gap      omega  full diag
   1  -3769.6063744 -0.376961E+04  0.306E-02   10.64       0.0  T
   2  -3769.6068351 -0.460706E-03  0.163E-02   10.64       1.0  T
   3  -3769.6068499 -0.147697E-04  0.579E-03   10.64       1.0  T
   4  -3769.6068539 -0.395482E-05  0.133E-03   10.64       1.3  T
   5  -3769.6068552 -0.132589E-05  0.759E-04   10.64       2.2  T
   6  -3769.6068554 -0.207369E-06  0.208E-04   10.63       8.1  T
   7  -3769.6068554 -0.531136E-07  0.147E-04   10.63      11.4  T
     SCC iter.                  ...        8 min, 40.888 sec
     gradient                   ...        4 min, 43.303 sec
 * total energy  : -3715.9498480 Eh     change    :  -0.5609171E-01 Eh
   gradient norm :     0.2428375 Eh/a0  converged?    E=F G=F D=F
   time step     :     0.3327500 fs     power     :   0.1494767E-05
   step length   :     0.3460153 a0     speed     :   0.2515315E-01

........................................................................
.............................. CYCLE    9 ..............................
........................................................................

 iter      E             dE          RMSdq      gap      omega  full diag
   1  -3770.7431671 -0.377074E+04  0.325E-02   10.65       0.0  T
   2  -3770.7435465 -0.379368E-03  0.175E-02   10.65       1.0  T
   3  -3770.7435651 -0.186830E-04  0.538E-03   10.65       1.0  T
   4  -3770.7435684 -0.329924E-05  0.129E-03   10.64       1.3  T
   5  -3770.7435689 -0.475449E-06  0.743E-04   10.64       2.3  T
   6  -3770.7435691 -0.193341E-06  0.161E-04   10.64      10.5  T
     SCC iter.                  ...        7 min, 34.080 sec
     gradient                   ...        4 min, 43.628 sec
 * total energy  : -3715.9846121 Eh     change    :  -0.3476405E-01 Eh
   gradient norm :     0.2509349 Eh/a0  converged?    E=F G=F D=F
   time step     :     0.3660250 fs     power     :   0.5688099E-06
   step length   :     0.3786090 a0     speed     :   0.2502046E-01

........................................................................
.............................. CYCLE   10 ..............................
........................................................................

 iter      E             dE          RMSdq      gap      omega  full diag
   1  -3771.7977711 -0.377180E+04  0.333E-02   10.66       0.0  T
   2  -3771.7980154 -0.244270E-03  0.185E-02   10.66       1.0  T
   3  -3771.7980314 -0.159622E-04  0.472E-03   10.66       1.0  T
   4  -3771.7980395 -0.816088E-05  0.145E-03   10.66       1.2  T
   5  -3771.7980406 -0.104651E-05  0.812E-04   10.66       2.1  T
   6  -3771.7980407 -0.119489E-06  0.130E-04   10.66      12.9  T
   7  -3771.7980407 -0.197842E-07  0.955E-05   10.66      17.6  T
     SCC iter.                  ...        8 min, 34.672 sec
     gradient                   ...        4 min, 43.699 sec
 * total energy  : -3716.0017411 Eh     change    :  -0.1712900E-01 Eh
   gradient norm :     0.2607097 Eh/a0  converged?    E=F G=F D=F
   time step     :     0.4026275 fs     power     :  -0.3627149E-07
   step length   :     0.3969241 a0     speed     :   0.2384620E-01

........................................................................
.............................. CYCLE   11 ..............................
........................................................................
 * reset velocities

 iter      E             dE          RMSdq      gap      omega  full diag
   1  -3771.7792116 -0.377178E+04  0.105E-03   10.65       0.0  T
   2  -3771.7792125 -0.838209E-06  0.643E-04   10.65       2.6  T
   3  -3771.7792125 -0.108998E-07  0.270E-04   10.65       6.2  T
     SCC iter.                  ...        3 min, 41.216 sec
     gradient                   ...        4 min, 44.324 sec
 * total energy  : -3716.0042926 Eh     change    :  -0.2551508E-02 Eh
   gradient norm :     0.2544895 Eh/a0  converged?    E=F G=F D=F
   time step     :     0.2013138 fs     power     :   0.1661681E-06
   step length   :     0.0099064 a0     speed     :   0.1190297E-02

........................................................................
.............................. CYCLE   12 ..............................
........................................................................

 iter      E             dE          RMSdq      gap      omega  full diag
   1  -3771.7420304 -0.377174E+04  0.211E-03   10.66       0.0  T
   2  -3771.7420335 -0.314189E-05  0.129E-03   10.66       1.3  T
   3  -3771.7420336 -0.268701E-07  0.521E-04   10.66       3.2  T
   4  -3771.7420336 -0.829787E-07  0.137E-04   10.66      12.3  T
     SCC iter.                  ...        5 min,  0.870 sec
     gradient                   ...        4 min, 43.689 sec
 * total energy  : -3716.0091551 Eh     change    :  -0.4862501E-02 Eh
   gradient norm :     0.2423462 Eh/a0  converged?    E=F G=F D=F
   time step     :     0.2013138 fs     power     :   0.3126306E-06
   step length   :     0.0195762 a0     speed     :   0.2352172E-02

........................................................................
.............................. CYCLE   13 ..............................
........................................................................

 iter      E             dE          RMSdq      gap      omega  full diag
   1  -3771.6874460 -0.377169E+04  0.303E-03   10.66       0.0  T
   2  -3771.6874531 -0.707524E-05  0.186E-03   10.66       1.0  T
   3  -3771.6874532 -0.100115E-06  0.785E-04   10.66       2.1  T
   4  -3771.6874534 -0.187277E-06  0.209E-04   10.66       8.1  T
     SCC iter.                  ...        4 min, 54.797 sec
     gradient                   ...        4 min, 43.322 sec
 * total energy  : -3716.0158745 Eh     change    :  -0.6719400E-02 Eh
   gradient norm :     0.2247606 Eh/a0  converged?    E=F G=F D=F
   time step     :     0.2013138 fs     power     :   0.4259906E-06
   step length   :     0.0287829 a0     speed     :   0.3458414E-02

........................................................................
.............................. CYCLE   14 ..............................
........................................................................

 iter      E             dE          RMSdq      gap      omega  full diag
   1  -3771.6168951 -0.377162E+04  0.391E-03   10.66       0.0  T
   2  -3771.6169069 -0.118321E-04  0.240E-03   10.66       1.0  T
   3  -3771.6169071 -0.173154E-06  0.102E-03   10.66       1.7  T
   4  -3771.6169074 -0.311744E-06  0.271E-04   10.66       6.2  T
   5  -3771.6169075 -0.914056E-07  0.674E-05   10.66      25.0  T
     SCC iter.                  ...        6 min,  8.184 sec
     gradient                   ...        4 min, 43.660 sec
 * total energy  : -3716.0238336 Eh     change    :  -0.7959077E-02 Eh
   gradient norm :     0.2024990 Eh/a0  converged?    E=F G=F D=F
   time step     :     0.2013138 fs     power     :   0.4965531E-06
   step length   :     0.0373153 a0     speed     :   0.4483624E-02

........................................................................
.............................. CYCLE   15 ..............................
........................................................................

 iter      E             dE          RMSdq      gap      omega  full diag
   1  -3771.5323205 -0.377153E+04  0.468E-03   10.66       0.0  T
   2  -3771.5323376 -0.170773E-04  0.288E-03   10.66       1.0  T
   3  -3771.5323378 -0.254638E-06  0.122E-03   10.66       1.4  T
   4  -3771.5323383 -0.434930E-06  0.325E-04   10.66       5.2  T
   5  -3771.5323384 -0.130565E-06  0.800E-05   10.66      21.0  T
     SCC iter.                  ...        6 min,  7.664 sec
     gradient                   ...        4 min, 44.928 sec
 * total energy  : -3716.0323206 Eh     change    :  -0.8487061E-02 Eh
   gradient norm :     0.1766076 Eh/a0  converged?    E=F G=F D=F
   time step     :     0.2013138 fs     power     :   0.5193236E-06
   step length   :     0.0449838 a0     speed     :   0.5405030E-02

........................................................................
.............................. CYCLE   16 ..............................
........................................................................

 iter      E             dE          RMSdq      gap      omega  full diag
   1  -3771.4362301 -0.377144E+04  0.532E-03   10.66       0.0  T
   2  -3771.4362523 -0.221490E-04  0.328E-03   10.66       1.0  T
   3  -3771.4362526 -0.334895E-06  0.138E-03   10.66       1.2  T
   4  -3771.4362532 -0.552706E-06  0.370E-04   10.67       4.6  T
   5  -3771.4362533 -0.168488E-06  0.913E-05   10.67      18.4  T
     SCC iter.                  ...        6 min,  8.924 sec
     gradient                   ...        4 min, 42.843 sec
 * total energy  : -3716.0406114 Eh     change    :  -0.8290783E-02 Eh
   gradient norm :     0.1486612 Eh/a0  converged?    E=F G=F D=F
   time step     :     0.2013138 fs     power     :   0.4949560E-06
   step length   :     0.0516218 a0     speed     :   0.6202614E-02

........................................................................
.............................. CYCLE   17 ..............................
........................................................................

 iter      E             dE          RMSdq      gap      omega  full diag
   1  -3771.3203368 -0.377132E+04  0.643E-03   10.67       0.0  T
   2  -3771.3203693 -0.325239E-04  0.397E-03   10.67       1.0  T
   3  -3771.3203698 -0.495497E-06  0.167E-03   10.67       1.0  T
   4  -3771.3203706 -0.791122E-06  0.447E-04   10.67       3.8  T
   5  -3771.3203709 -0.245153E-06  0.109E-04   10.67      15.4  T
     SCC iter.                  ...        6 min,  9.366 sec
     gradient                   ...        4 min, 44.783 sec
 * total energy  : -3716.0487729 Eh     change    :  -0.8161469E-02 Eh
   gradient norm :     0.1182321 Eh/a0  converged?    E=F G=F D=F
   time step     :     0.2214451 fs     power     :   0.4209897E-06
   step length   :     0.0634024 a0     speed     :   0.6925552E-02

........................................................................
.............................. CYCLE   18 ..............................
........................................................................

 iter      E             dE          RMSdq      gap      omega  full diag
   1  -3771.1868640 -0.377119E+04  0.747E-03   10.67       0.0  T
   2  -3771.1869080 -0.439677E-04  0.463E-03   10.67       1.0  T
   3  -3771.1869086 -0.670562E-06  0.194E-03   10.67       1.0  T
   4  -3771.1869097 -0.104544E-05  0.521E-04   10.67       3.2  T
   5  -3771.1869100 -0.329586E-06  0.126E-04   10.67      13.3  T
   6  -3771.1869100 -0.124169E-07  0.860E-05   10.67      19.6  T
     SCC iter.                  ...        7 min, 22.560 sec
     gradient                   ...        4 min, 43.485 sec
 * total energy  : -3716.0558160 Eh     change    :  -0.7043170E-02 Eh
   gradient norm :     0.0914634 Eh/a0  converged?    E=F G=F D=F
   time step     :     0.2435896 fs     power     :   0.3009282E-06
   step length   :     0.0756200 a0     speed     :   0.7509191E-02

........................................................................
.............................. CYCLE   19 ..............................
........................................................................

 iter      E             dE          RMSdq      gap      omega  full diag
   1  -3771.0442952 -0.377104E+04  0.818E-03   10.68       0.0  T
   2  -3771.0443474 -0.522066E-04  0.511E-03   10.68       1.0  T
   3  -3771.0443482 -0.756032E-06  0.211E-03   10.68       1.0  T
   4  -3771.0443494 -0.123203E-05  0.567E-04   10.68       3.0  T
   5  -3771.0443498 -0.387613E-06  0.130E-04   10.68      13.0  T
   6  -3771.0443498 -0.111490E-07  0.839E-05   10.68      20.0  T
     SCC iter.                  ...        7 min, 25.023 sec
     gradient                   ...        4 min, 42.895 sec
 * total energy  : -3716.0608231 Eh     change    :  -0.5007101E-02 Eh
   gradient norm :     0.0816376 Eh/a0  converged?    E=F G=F D=F
   time step     :     0.2679486 fs     power     :   0.1593590E-06
   step length   :     0.0868861 a0     speed     :   0.7843570E-02

........................................................................
.............................. CYCLE   20 ..............................
........................................................................

 iter      E             dE          RMSdq      gap      omega  full diag
   1  -3770.9109805 -0.377091E+04  0.820E-03   10.68       0.0  T
   2  -3770.9110302 -0.497614E-04  0.517E-03   10.69       1.0  T
   3  -3770.9110308 -0.613057E-06  0.206E-03   10.69       1.0  T
   4  -3770.9110321 -0.126561E-05  0.558E-04   10.69       3.0  T
   5  -3770.9110325 -0.372451E-06  0.130E-04   10.69      13.0  T
   6  -3770.9110325 -0.934278E-08  0.782E-05   10.69      21.5  T
     SCC iter.                  ...        7 min, 27.789 sec
     gradient                   ...        4 min, 43.416 sec
 * total energy  : -3716.0636046 Eh     change    :  -0.2781428E-02 Eh
   gradient norm :     0.0950794 Eh/a0  converged?    E=F G=F D=F
   time step     :     0.2947435 fs     power     :   0.4781076E-07
   step length   :     0.0945952 a0     speed     :   0.7763185E-02
 * RMSD in coord.:     0.0374780 a0     energy gain  -0.7081020E+00 Eh

........................................................................
.............................. CYCLE   21 ..............................
........................................................................

 iter      E             dE          RMSdq      gap      omega  full diag
   1  -3770.8301851 -0.377083E+04  0.582E-03   10.69       0.0  T
   2  -3770.8302067 -0.215814E-04  0.370E-03   10.69       1.0  T
   3  -3770.8302068 -0.134462E-06  0.135E-03   10.69       1.2  T
   4  -3770.8302075 -0.703840E-06  0.370E-04   10.69       4.5  T
   5  -3770.8302077 -0.165177E-06  0.942E-05   10.69      17.8  T
     SCC iter.                  ...        6 min, 11.856 sec
     gradient                   ...        4 min, 43.233 sec
 * total energy  : -3716.0649222 Eh     change    :  -0.1317623E-02 Eh
   gradient norm :     0.1115826 Eh/a0  converged?    E=F G=F D=F
   time step     :     0.2500000 fs     power     :   0.2810298E-07
   step length   :     0.0750412 a0     speed     :   0.7260641E-02

........................................................................
.............................. CYCLE   22 ..............................
........................................................................

 iter      E             dE          RMSdq      gap      omega  full diag
   1  -3770.7844913 -0.377078E+04  0.480E-03   10.70       0.0  T
   2  -3770.7845014 -0.101044E-04  0.305E-03   10.70       1.0  T
   3  -3770.7845013  0.101301E-06  0.875E-04   10.70       1.9  T
   4  -3770.7845018 -0.541070E-06  0.253E-04   10.70       6.6  T
     SCC iter.                  ...        4 min, 57.599 sec
     gradient                   ...        4 min, 42.964 sec
 * total energy  : -3716.0665258 Eh     change    :  -0.1603617E-02 Eh
   gradient norm :     0.1235570 Eh/a0  converged?    E=F G=F D=F
   time step     :     0.2500000 fs     power     :   0.6169981E-07
   step length   :     0.0698455 a0     speed     :   0.6757930E-02

........................................................................
.............................. CYCLE   23 ..............................
........................................................................

 iter      E             dE          RMSdq      gap      omega  full diag
   1  -3770.7732133 -0.377077E+04  0.418E-03   10.71       0.0  T
   2  -3770.7732165 -0.310559E-05  0.261E-03   10.71       1.0  T
   3  -3770.7732163  0.114490E-06  0.401E-04   10.71       4.2  T
   4  -3770.7732167 -0.327876E-06  0.150E-04   10.71      11.2  T
     SCC iter.                  ...        4 min, 56.183 sec
     gradient                   ...        4 min, 43.182 sec
 * total energy  : -3716.0690881 Eh     change    :  -0.2562249E-02 Eh
   gradient norm :     0.1285015 Eh/a0  converged?    E=F G=F D=F
   time step     :     0.2500000 fs     power     :   0.1231347E-06
   step length   :     0.0662928 a0     speed     :   0.6414189E-02

........................................................................
.............................. CYCLE   24 ..............................
........................................................................

 iter      E             dE          RMSdq      gap      omega  full diag
   1  -3770.7939321 -0.377079E+04  0.409E-03   10.72       0.0  T
   2  -3770.7939326 -0.508635E-06  0.246E-03   10.72       1.0  T
   3  -3770.7939327 -0.903010E-07  0.182E-04   10.72       9.3  T
   4  -3770.7939327 -0.462446E-07  0.995E-05   10.72      16.9  T
     SCC iter.                  ...        4 min, 59.683 sec
     gradient                   ...        4 min, 43.773 sec
 * total energy  : -3716.0728165 Eh     change    :  -0.3728443E-02 Eh
   gradient norm :     0.1263328 Eh/a0  converged?    E=F G=F D=F
   time step     :     0.2500000 fs     power     :   0.1883599E-06
   step length   :     0.0649642 a0     speed     :   0.6285637E-02

........................................................................
.............................. CYCLE   25 ..............................
........................................................................

 iter      E             dE          RMSdq      gap      omega  full diag
   1  -3770.8432987 -0.377084E+04  0.443E-03   10.72       0.0  T
   2  -3770.8433000 -0.131572E-05  0.257E-03   10.72       1.0  T
   3  -3770.8433000 -0.195027E-07  0.362E-04   10.72       4.6  T
   4  -3770.8433002 -0.151066E-06  0.113E-04   10.72      14.9  T
     SCC iter.                  ...        4 min, 56.167 sec
     gradient                   ...        4 min, 43.059 sec
 * total energy  : -3716.0775496 Eh     change    :  -0.4733099E-02 Eh
   gradient norm :     0.1180151 Eh/a0  converged?    E=F G=F D=F
   time step     :     0.2500000 fs     power     :   0.2396435E-06
   step length   :     0.0656846 a0     speed     :   0.6355337E-02

........................................................................
.............................. CYCLE   26 ..............................
........................................................................

 iter      E             dE          RMSdq      gap      omega  full diag
   1  -3770.9264114 -0.377093E+04  0.552E-03   10.73       0.0  T
   2  -3770.9264169 -0.552515E-05  0.315E-03   10.73       1.0  T
   3  -3770.9264168  0.122754E-06  0.759E-04   10.73       2.2  T
   4  -3770.9264172 -0.463329E-06  0.169E-04   10.73      10.0  T
     SCC iter.                  ...        4 min, 59.740 sec
     gradient                   ...        4 min, 44.227 sec
 * total energy  : -3716.0834675 Eh     change    :  -0.5917941E-02 Eh
   gradient norm :     0.1036438 Eh/a0  converged?    E=F G=F D=F
   time step     :     0.2750000 fs     power     :   0.2665043E-06
   step length   :     0.0751859 a0     speed     :   0.6613310E-02

........................................................................
.............................. CYCLE   27 ..............................
........................................................................

 iter      E             dE          RMSdq      gap      omega  full diag
   1  -3771.0447948 -0.377104E+04  0.682E-03   10.74       0.0  T
   2  -3771.0448079 -0.131038E-04  0.386E-03   10.74       1.0  T
   3  -3771.0448078  0.181194E-06  0.113E-03   10.74       1.5  T
   4  -3771.0448086 -0.783180E-06  0.245E-04   10.74       6.9  T
   5  -3771.0448086 -0.959317E-07  0.113E-04   10.74      14.9  T
     SCC iter.                  ...        6 min, 12.586 sec
     gradient                   ...        4 min, 45.885 sec
 * total energy  : -3716.0900405 Eh     change    :  -0.6572955E-02 Eh
   gradient norm :     0.0855575 Eh/a0  converged?    E=F G=F D=F
   time step     :     0.3025000 fs     power     :   0.2586200E-06
   step length   :     0.0874563 a0     speed     :   0.6993279E-02

........................................................................
.............................. CYCLE   28 ..............................
........................................................................

 iter      E             dE          RMSdq      gap      omega  full diag
   1  -3771.1960426 -0.377120E+04  0.811E-03   10.75       0.0  T
   2  -3771.1960649 -0.223352E-04  0.457E-03   10.75       1.0  T
   3  -3771.1960647  0.178199E-06  0.142E-03   10.75       1.2  T
   4  -3771.1960658 -0.102506E-05  0.315E-04   10.75       5.3  T
   5  -3771.1960659 -0.159963E-06  0.126E-04   10.75      13.4  T
   6  -3771.1960659 -0.149989E-07  0.741E-05   10.75      22.7  T
     SCC iter.                  ...        7 min, 21.062 sec
     gradient                   ...        4 min, 42.654 sec
 * total energy  : -3716.0964657 Eh     change    :  -0.6425179E-02 Eh
   gradient norm :     0.0702727 Eh/a0  converged?    E=F G=F D=F
   time step     :     0.3327500 fs     power     :   0.2163821E-06
   step length   :     0.1018267 a0     speed     :   0.7402163E-02

........................................................................
.............................. CYCLE   29 ..............................
........................................................................

 iter      E             dE          RMSdq      gap      omega  full diag
   1  -3771.3689309 -0.377137E+04  0.898E-03   10.76       0.0  T
   2  -3771.3689585 -0.275907E-04  0.504E-03   10.76       1.0  T
   3  -3771.3689583  0.148523E-06  0.153E-03   10.76       1.1  T
   4  -3771.3689594 -0.106277E-05  0.348E-04   10.76       4.8  T
   5  -3771.3689596 -0.194365E-06  0.127E-04   10.76      13.2  T
   6  -3771.3689596 -0.123050E-07  0.707E-05   10.76      23.8  T
     SCC iter.                  ...        7 min, 23.233 sec
     gradient                   ...        4 min, 42.220 sec
 * total energy  : -3716.1020554 Eh     change    :  -0.5589708E-02 Eh
   gradient norm :     0.0674657 Eh/a0  converged?    E=F G=F D=F
   time step     :     0.3660250 fs     power     :   0.1594330E-06
   step length   :     0.1167839 a0     speed     :   0.7717690E-02

........................................................................
.............................. CYCLE   30 ..............................
........................................................................

 iter      E             dE          RMSdq      gap      omega  full diag
   1  -3771.5395894 -0.377154E+04  0.904E-03   10.77       0.0  T
   2  -3771.5396118 -0.223925E-04  0.505E-03   10.77       1.0  T
   3  -3771.5396118  0.337832E-08  0.133E-03   10.77       1.3  T
   4  -3771.5396125 -0.718863E-06  0.305E-04   10.77       5.5  T
   5  -3771.5396127 -0.143166E-06  0.123E-04   10.77      13.7  T
     SCC iter.                  ...        6 min,  8.819 sec
     gradient                   ...        4 min, 43.443 sec
 * total energy  : -3716.1068712 Eh     change    :  -0.4815835E-02 Eh
   gradient norm :     0.0757367 Eh/a0  converged?    E=F G=F D=F
   time step     :     0.4026275 fs     power     :   0.1228249E-06
   step length   :     0.1300916 a0     speed     :   0.7815572E-02

........................................................................
.............................. CYCLE   31 ..............................
........................................................................

 iter      E             dE          RMSdq      gap      omega  full diag
   1  -3771.6805578 -0.377168E+04  0.843E-03   10.77       0.0  T
   2  -3771.6805680 -0.102494E-04  0.474E-03   10.77       1.0  T
   3  -3771.6805683 -0.279600E-06  0.855E-04   10.77       2.0  T
   4  -3771.6805685 -0.212087E-06  0.196E-04   10.77       8.6  T
     SCC iter.                  ...        4 min, 57.049 sec
     gradient                   ...        4 min, 43.848 sec
 * total energy  : -3716.1118325 Eh     change    :  -0.4961286E-02 Eh
   gradient norm :     0.0820539 Eh/a0  converged?    E=F G=F D=F
   time step     :     0.4428903 fs     power     :   0.1235039E-06
   step length   :     0.1422113 a0     speed     :   0.7766997E-02

........................................................................
.............................. CYCLE   32 ..............................
........................................................................

 iter      E             dE          RMSdq      gap      omega  full diag
   1  -3771.7690630 -0.377177E+04  0.777E-03   10.78       0.0  T
   2  -3771.7690657 -0.275980E-05  0.455E-03   10.78       1.0  T
   3  -3771.7690656  0.146061E-06  0.621E-04   10.78       2.7  T
   4  -3771.7690663 -0.693871E-06  0.184E-04   10.78       9.2  T
     SCC iter.                  ...        5 min,  0.840 sec
     gradient                   ...        4 min, 43.447 sec
 * total energy  : -3716.1178603 Eh     change    :  -0.6027837E-02 Eh
   gradient norm :     0.0780521 Eh/a0  converged?    E=F G=F D=F
   time step     :     0.4871793 fs     power     :   0.1427160E-06
   step length   :     0.1564318 a0     speed     :   0.7766964E-02

........................................................................
.............................. CYCLE   33 ..............................
........................................................................

 iter      E             dE          RMSdq      gap      omega  full diag
   1  -3771.7906298 -0.377179E+04  0.776E-03   10.79       0.0  T
   2  -3771.7906404 -0.105539E-04  0.487E-03   10.79       1.0  T
   3  -3771.7906390  0.141183E-05  0.114E-03   10.79       1.5  T
   4  -3771.7906416 -0.260458E-05  0.223E-04   10.79       7.6  T
   5  -3771.7906416 -0.357636E-07  0.125E-04   10.79      13.5  T
   6  -3771.7906416 -0.828595E-08  0.549E-05   10.79      30.7  T
     SCC iter.                  ...        7 min, 28.486 sec
     gradient                   ...        4 min, 43.606 sec
 * total energy  : -3716.1248376 Eh     change    :  -0.6977232E-02 Eh
   gradient norm :     0.0652128 Eh/a0  converged?    E=F G=F D=F
   time step     :     0.5358972 fs     power     :   0.1444853E-06
   step length   :     0.1751654 a0     speed     :   0.7906456E-02

........................................................................
.............................. CYCLE   34 ..............................
........................................................................

 iter      E             dE          RMSdq      gap      omega  full diag
   1  -3771.7482925 -0.377175E+04  0.839E-03   10.80       0.0  T
   2  -3771.7483227 -0.302005E-04  0.547E-03   10.80       1.0  T
   3  -3771.7483221  0.641719E-06  0.167E-03   10.80       1.0  T
   4  -3771.7483244 -0.237349E-05  0.398E-04   10.80       4.2  T
   5  -3771.7483247 -0.219429E-06  0.153E-04   10.80      11.0  T
   6  -3771.7483247 -0.160526E-07  0.803E-05   10.80      21.0  T
     SCC iter.                  ...        7 min, 24.525 sec
     gradient                   ...        4 min, 43.540 sec
 * total energy  : -3716.1315527 Eh     change    :  -0.6715162E-02 Eh
   gradient norm :     0.0576830 Eh/a0  converged?    E=F G=F D=F
   time step     :     0.5894869 fs     power     :   0.1138331E-06
   step length   :     0.1977053 a0     speed     :   0.8112584E-02

........................................................................
.............................. CYCLE   35 ..............................
........................................................................

 iter      E             dE          RMSdq      gap      omega  full diag
   1  -3771.6806413 -0.377168E+04  0.898E-03   10.81       0.0  T
   2  -3771.6806763 -0.349540E-04  0.576E-03   10.82       1.0  T
   3  -3771.6806761  0.137772E-06  0.160E-03   10.82       1.0  T
   4  -3771.6806777 -0.161027E-05  0.494E-04   10.82       3.4  T
   5  -3771.6806780 -0.302421E-06  0.171E-04   10.82       9.8  T
   6  -3771.6806781 -0.143391E-07  0.733E-05   10.82      22.9  T
     SCC iter.                  ...        7 min, 26.375 sec
     gradient                   ...        4 min, 43.142 sec
 * total energy  : -3716.1374069 Eh     change    :  -0.5854171E-02 Eh
   gradient norm :     0.0634710 Eh/a0  converged?    E=F G=F D=F
   time step     :     0.6484356 fs     power     :   0.8580531E-07
   step length   :     0.2198443 a0     speed     :   0.8200937E-02

........................................................................
.............................. CYCLE   36 ..............................
........................................................................

 iter      E             dE          RMSdq      gap      omega  full diag
   1  -3771.6497162 -0.377165E+04  0.100E-02   10.84       0.0  T
   2  -3771.6497317 -0.155566E-04  0.601E-03   10.84       1.0  T
   3  -3771.6497325 -0.769813E-06  0.903E-04   10.84       1.9  T
   4  -3771.6497330 -0.462551E-06  0.321E-04   10.84       5.2  T
     SCC iter.                  ...        5 min,  0.021 sec
     gradient                   ...        4 min, 43.254 sec
 * total energy  : -3716.1435146 Eh     change    :  -0.6107696E-02 Eh
   gradient norm :     0.0636242 Eh/a0  converged?    E=F G=F D=F
   time step     :     0.7132792 fs     power     :   0.8759157E-07
   step length   :     0.2408201 a0     speed     :   0.8166732E-02

........................................................................
.............................. CYCLE   37 ..............................
........................................................................

 iter      E             dE          RMSdq      gap      omega  full diag
   1  -3771.7012986 -0.377170E+04  0.120E-02   10.87       0.0  T
   2  -3771.7013068 -0.817960E-05  0.696E-03   10.87       1.0  T
   3  -3771.7013066  0.181274E-06  0.123E-03   10.87       1.4  T
   4  -3771.7013087 -0.206201E-05  0.347E-04   10.87       4.8  T
   5  -3771.7013087 -0.158780E-07  0.124E-04   10.87      13.6  T
   6  -3771.7013087 -0.640375E-08  0.340E-05   10.87      49.4  T
     SCC iter.                  ...        7 min, 26.657 sec
     gradient                   ...        4 min, 44.064 sec
 * total energy  : -3716.1502090 Eh     change    :  -0.6694367E-02 Eh
   gradient norm :     0.0524408 Eh/a0  converged?    E=F G=F D=F
   time step     :     0.7846071 fs     power     :   0.8159587E-07
   step length   :     0.2660488 a0     speed     :   0.8202084E-02

........................................................................
.............................. CYCLE   38 ..............................
........................................................................

 iter      E             dE          RMSdq      gap      omega  full diag
   1  -3771.8331620 -0.377183E+04  0.132E-02   10.90       0.0  T
   2  -3771.8331853 -0.233240E-04  0.766E-03   10.90       1.0  T
   3  -3771.8331843  0.105363E-05  0.169E-03   10.90       1.0  T
   4  -3771.8331875 -0.325674E-05  0.361E-04   10.89       4.7  T
   5  -3771.8331876 -0.111703E-06  0.179E-04   10.89       9.4  T
   6  -3771.8331876 -0.106784E-07  0.612E-05   10.89      27.5  T
     SCC iter.                  ...        7 min, 26.782 sec
     gradient                   ...        4 min, 43.715 sec
 * total energy  : -3716.1558619 Eh     change    :  -0.5652910E-02 Eh
   gradient norm :     0.0536630 Eh/a0  converged?    E=F G=F D=F
   time step     :     0.8630678 fs     power     :   0.4897218E-07
   step length   :     0.2942638 a0     speed     :   0.8247210E-02

........................................................................
.............................. CYCLE   39 ..............................
........................................................................

 iter      E             dE          RMSdq      gap      omega  full diag
   1  -3771.9686040 -0.377197E+04  0.119E-02   10.92       0.0  T
   2  -3771.9686185 -0.144550E-04  0.693E-03   10.92       1.0  T
   3  -3771.9686189 -0.410685E-06  0.102E-03   10.92       1.7  T
   4  -3771.9686197 -0.753504E-06  0.274E-04   10.92       6.1  T
   5  -3771.9686197 -0.449595E-07  0.144E-04   10.92      11.7  T
     SCC iter.                  ...        6 min, 19.930 sec
     gradient                   ...        4 min, 44.358 sec
 * total energy  : -3716.1610434 Eh     change    :  -0.5181480E-02 Eh
   gradient norm :     0.0579891 Eh/a0  converged?    E=F G=F D=F
   time step     :     0.9493746 fs     power     :   0.4481129E-07
   step length   :     0.3184633 a0     speed     :   0.8114034E-02

........................................................................
.............................. CYCLE   40 ..............................
........................................................................

 iter      E             dE          RMSdq      gap      omega  full diag
   1  -3772.0381227 -0.377204E+04  0.116E-02   10.93       0.0  T
   2  -3772.0381384 -0.156814E-04  0.691E-03   10.93       1.0  T
   3  -3772.0381364  0.195550E-05  0.158E-03   10.93       1.1  T
   4  -3772.0381410 -0.455375E-05  0.332E-04   10.93       5.1  T
   5  -3772.0381410 -0.369405E-07  0.180E-04   10.93       9.4  T
   6  -3772.0381410 -0.168616E-07  0.693E-05   10.93      24.3  T
     SCC iter.                  ...        7 min, 24.189 sec
     gradient                   ...        4 min, 42.331 sec
 * total energy  : -3716.1670683 Eh     change    :  -0.6024943E-02 Eh
   gradient norm :     0.0498118 Eh/a0  converged?    E=F G=F D=F
   time step     :     1.0443120 fs     power     :   0.4610619E-07
   step length   :     0.3468973 a0     speed     :   0.8034997E-02

........................................................................
.............................. CYCLE   41 ..............................
........................................................................

 iter      E             dE          RMSdq      gap      omega  full diag
   1  -3772.0597908 -0.377206E+04  0.125E-02   10.94       0.0  T
   2  -3772.0598212 -0.303628E-04  0.773E-03   10.94       1.0  T
   3  -3772.0598193  0.190498E-05  0.173E-03   10.94       1.0  T
   4  -3772.0598241 -0.479921E-05  0.420E-04   10.94       4.0  T
   5  -3772.0598243 -0.167965E-06  0.220E-04   10.94       7.7  T
   6  -3772.0598243 -0.293976E-07  0.982E-05   10.94      17.1  T
     SCC iter.                  ...        7 min, 23.645 sec
     gradient                   ...        4 min, 43.855 sec
 * total energy  : -3716.1723327 Eh     change    :  -0.5264350E-02 Eh
   gradient norm :     0.0500790 Eh/a0  converged?    E=F G=F D=F
   time step     :     1.1487432 fs     power     :   0.2507579E-07
   step length   :     0.3799924 a0     speed     :   0.8001419E-02

........................................................................
.............................. CYCLE   42 ..............................
........................................................................

 iter      E             dE          RMSdq      gap      omega  full diag
   1  -3772.1272172 -0.377213E+04  0.141E-02   10.97       0.0  T
   2  -3772.1272258 -0.859744E-05  0.820E-03   10.97       1.0  T
   3  -3772.1272261 -0.252550E-06  0.103E-03   10.97       1.6  T
   4  -3772.1272273 -0.122379E-05  0.320E-04   10.97       5.3  T
   5  -3772.1272273 -0.262148E-07  0.156E-04   10.97      10.8  T
   6  -3772.1272273 -0.923637E-08  0.450E-05   10.97      37.4  T
     SCC iter.                  ...        7 min, 26.946 sec
     gradient                   ...        4 min, 42.770 sec
 * total energy  : -3716.1766868 Eh     change    :  -0.4354172E-02 Eh
   gradient norm :     0.0470950 Eh/a0  converged?    E=F G=F D=F
   time step     :     1.2500000 fs     power     :   0.1173628E-07
   step length   :     0.4052826 a0     speed     :   0.7842653E-02
 * RMSD in coord.:     0.0602906 a0     energy gain  -0.1130823E+00 Eh

........................................................................
.............................. CYCLE   43 ..............................
........................................................................

 iter      E             dE          RMSdq      gap      omega  full diag
   1  -3772.1409498 -0.377214E+04  0.239E-03   10.97       0.0  T
   2  -3772.1409500 -0.281062E-06  0.138E-03   10.97       1.2  T
   3  -3772.1409500  0.155123E-07  0.208E-04   10.97       8.1  T
   4  -3772.1409501 -0.601481E-07  0.507E-05   10.97      33.2  T
     SCC iter.                  ...        5 min,  1.333 sec
     gradient                   ...        4 min, 42.700 sec
 * total energy  : -3716.1773172 Eh     change    :  -0.6304076E-03 Eh
   gradient norm :     0.0474486 Eh/a0  converged?    E=F G=F D=F
   time step     :     0.2500000 fs     power     :   0.2919725E-07
   step length   :     0.0743755 a0     speed     :   0.7196225E-02

........................................................................
.............................. CYCLE   44 ..............................
........................................................................

 iter      E             dE          RMSdq      gap      omega  full diag
   1  -3772.1538880 -0.377215E+04  0.230E-03   10.98       0.0  T
   2  -3772.1538886 -0.549136E-06  0.135E-03   10.98       1.2  T
   3  -3772.1538886  0.219516E-07  0.240E-04   10.98       7.0  T
   4  -3772.1538886 -0.692949E-07  0.495E-05   10.98      34.0  T
     SCC iter.                  ...        5 min,  0.942 sec
     gradient                   ...        4 min, 44.016 sec
 * total energy  : -3716.1782161 Eh     change    :  -0.8988791E-03 Eh
   gradient norm :     0.0440143 Eh/a0  converged?    E=F G=F D=F
   time step     :     0.2500000 fs     power     :   0.4340204E-07
   step length   :     0.0692699 a0     speed     :   0.6702234E-02

........................................................................
.............................. CYCLE   45 ..............................
........................................................................

 iter      E             dE          RMSdq      gap      omega  full diag
   1  -3772.1644364 -0.377216E+04  0.246E-03   10.98       0.0  T
   2  -3772.1644373 -0.877910E-06  0.148E-03   10.98       1.1  T
   3  -3772.1644373  0.910268E-08  0.269E-04   10.98       6.3  T
   4  -3772.1644373 -0.729310E-07  0.615E-05   10.98      27.3  T
     SCC iter.                  ...        4 min, 55.994 sec
     gradient                   ...        4 min, 44.354 sec
 * total energy  : -3716.1792600 Eh     change    :  -0.1043865E-02 Eh
   gradient norm :     0.0378720 Eh/a0  converged?    E=F G=F D=F
   time step     :     0.2500000 fs     power     :   0.4953246E-07
   step length   :     0.0655355 a0     speed     :   0.6340908E-02

........................................................................
.............................. CYCLE   46 ..............................
........................................................................

 iter      E             dE          RMSdq      gap      omega  full diag
   1  -3772.1709293 -0.377217E+04  0.271E-03   10.99       0.0  T
   2  -3772.1709304 -0.108188E-05  0.165E-03   10.99       1.0  T
   3  -3772.1709304 -0.922546E-08  0.282E-04   10.99       6.0  T
   4  -3772.1709305 -0.772939E-07  0.732E-05   10.99      23.0  T
     SCC iter.                  ...        4 min, 54.912 sec
     gradient                   ...        4 min, 46.057 sec
 * total energy  : -3716.1802849 Eh     change    :  -0.1024940E-02 Eh
   gradient norm :     0.0307481 Eh/a0  converged?    E=F G=F D=F
   time step     :     0.2500000 fs     power     :   0.4658610E-07
   step length   :     0.0628087 a0     speed     :   0.6077081E-02

........................................................................
.............................. CYCLE   47 ..............................
........................................................................

 iter      E             dE          RMSdq      gap      omega  full diag
   1  -3772.1717075 -0.377217E+04  0.290E-03   10.99       0.0  T
   2  -3772.1717085 -0.106255E-05  0.176E-03   10.99       1.0  T
   3  -3772.1717085 -0.237801E-07  0.278E-04   10.99       6.1  T
   4  -3772.1717086 -0.849332E-07  0.825E-05   10.99      20.4  T
     SCC iter.                  ...        4 min, 58.045 sec
     gradient                   ...        4 min, 46.148 sec
 * total energy  : -3716.1811524 Eh     change    :  -0.8674959E-03 Eh
   gradient norm :     0.0252383 Eh/a0  converged?    E=F G=F D=F
   time step     :     0.2500000 fs     power     :   0.3696184E-07
   step length   :     0.0606302 a0     speed     :   0.5866294E-02

........................................................................
.............................. CYCLE   48 ..............................
........................................................................

 iter      E             dE          RMSdq      gap      omega  full diag
   1  -3772.1649059 -0.377216E+04  0.323E-03   10.99       0.0  T
   2  -3772.1649069 -0.101861E-05  0.194E-03   10.99       1.0  T
   3  -3772.1649070 -0.251462E-07  0.299E-04   10.99       5.6  T
   4  -3772.1649071 -0.123436E-06  0.975E-05   10.99      17.2  T
     SCC iter.                  ...        5 min,  6.621 sec
     gradient                   ...        4 min, 46.537 sec
 * total energy  : -3716.1818552 Eh     change    :  -0.7027458E-03 Eh
   gradient norm :     0.0240397 Eh/a0  converged?    E=F G=F D=F
   time step     :     0.2750000 fs     power     :   0.2424210E-07
   step length   :     0.0643159 a0     speed     :   0.5657190E-02

........................................................................
.............................. CYCLE   49 ..............................
........................................................................

 iter      E             dE          RMSdq      gap      omega  full diag
   1  -3772.1499337 -0.377215E+04  0.330E-03   11.00       0.0  T
   2  -3772.1499345 -0.845593E-06  0.194E-03   11.00       1.0  T
   3  -3772.1499345 -0.185355E-08  0.321E-04   11.00       5.2  T
   4  -3772.1499347 -0.168509E-06  0.103E-04   11.00      16.3  T
     SCC iter.                  ...        4 min, 57.828 sec
     gradient                   ...        4 min, 44.657 sec
 * total energy  : -3716.1823875 Eh     change    :  -0.5323823E-03 Eh
   gradient norm :     0.0273132 Eh/a0  converged?    E=F G=F D=F
   time step     :     0.3025000 fs     power     :   0.1529554E-07
   step length   :     0.0672385 a0     speed     :   0.5376601E-02

........................................................................
.............................. CYCLE   50 ..............................
........................................................................

 iter      E             dE          RMSdq      gap      omega  full diag
   1  -3772.1290362 -0.377213E+04  0.316E-03   11.00       0.0  T
   2  -3772.1290370 -0.781069E-06  0.183E-03   11.00       1.0  T
   3  -3772.1290370  0.128789E-07  0.329E-04   11.00       5.1  T
   4  -3772.1290371 -0.170052E-06  0.953E-05   11.00      17.6  T
     SCC iter.                  ...        4 min, 59.502 sec
     gradient                   ...        4 min, 46.054 sec
 * total energy  : -3716.1828696 Eh     change    :  -0.4820505E-03 Eh
   gradient norm :     0.0311633 Eh/a0  converged?    E=F G=F D=F
   time step     :     0.3327500 fs     power     :   0.1365700E-07
   step length   :     0.0693385 a0     speed     :   0.5040478E-02

........................................................................
.............................. CYCLE   51 ..............................
........................................................................

 iter      E             dE          RMSdq      gap      omega  full diag
   1  -3772.1055836 -0.377211E+04  0.303E-03   11.00       0.0  T
   2  -3772.1055845 -0.892967E-06  0.173E-03   11.00       1.0  T
   3  -3772.1055845  0.865975E-08  0.320E-04   11.00       5.3  T
   4  -3772.1055846 -0.128069E-06  0.803E-05   11.00      21.0  T
     SCC iter.                  ...        4 min, 56.661 sec
     gradient                   ...        4 min, 44.834 sec
 * total energy  : -3716.1834577 Eh     change    :  -0.5881015E-03 Eh
   gradient norm :     0.0327367 Eh/a0  converged?    E=F G=F D=F
   time step     :     0.3660250 fs     power     :   0.1751108E-07
   step length   :     0.0715427 a0     speed     :   0.4727917E-02

........................................................................
.............................. CYCLE   52 ..............................
........................................................................

 iter      E             dE          RMSdq      gap      omega  full diag
   1  -3772.0834096 -0.377208E+04  0.311E-03   11.00       0.0  T
   2  -3772.0834107 -0.107899E-05  0.179E-03   11.00       1.0  T
   3  -3772.0834107  0.789441E-09  0.307E-04   11.00       5.5  T
   4  -3772.0834108 -0.857217E-07  0.660E-05   11.00      25.5  T
     SCC iter.                  ...        5 min,  6.201 sec
     gradient                   ...        4 min, 48.211 sec
 * total energy  : -3716.1842438 Eh     change    :  -0.7861289E-03 Eh
   gradient norm :     0.0311371 Eh/a0  converged?    E=F G=F D=F
   time step     :     0.4026275 fs     power     :   0.2245868E-07
   step length   :     0.0747361 a0     speed     :   0.4489954E-02

........................................................................
.............................. CYCLE   53 ..............................
........................................................................

 iter      E             dE          RMSdq      gap      omega  full diag
   1  -3772.0668605 -0.377207E+04  0.344E-03   11.00       0.0  T
   2  -3772.0668617 -0.114775E-05  0.200E-03   11.00       1.0  T
   3  -3772.0668617 -0.755517E-08  0.291E-04   11.00       5.8  T
   4  -3772.0668618 -0.707169E-07  0.606E-05   11.00      27.7  T
     SCC iter.                  ...        4 min, 55.783 sec
     gradient                   ...        4 min, 45.598 sec
 * total energy  : -3716.1851982 Eh     change    :  -0.9543541E-03 Eh
   gradient norm :     0.0270791 Eh/a0  converged?    E=F G=F D=F
   time step     :     0.4428903 fs     power     :   0.2422011E-07
   step length   :     0.0794209 a0     speed     :   0.4337644E-02

........................................................................
.............................. CYCLE   54 ..............................
........................................................................

 iter      E             dE          RMSdq      gap      omega  full diag
   1  -3772.0605803 -0.377206E+04  0.384E-03   11.00       0.0  T
   2  -3772.0605813 -0.968461E-06  0.226E-03   11.00       1.0  T
   3  -3772.0605813 -0.424325E-08  0.283E-04   11.00       5.9  T
   4  -3772.0605814 -0.104325E-06  0.780E-05   11.00      21.6  T
     SCC iter.                  ...        4 min, 55.588 sec
     gradient                   ...        4 min, 44.359 sec
 * total energy  : -3716.1861790 Eh     change    :  -0.9808060E-03 Eh
   gradient norm :     0.0230469 Eh/a0  converged?    E=F G=F D=F
   time step     :     0.4871793 fs     power     :   0.2097426E-07
   step length   :     0.0855204 a0     speed     :   0.4246154E-02

........................................................................
.............................. CYCLE   55 ..............................
........................................................................

 iter      E             dE          RMSdq      gap      omega  full diag
   1  -3772.0678565 -0.377207E+04  0.403E-03   11.00       0.0  T
   2  -3772.0678573 -0.790285E-06  0.238E-03   11.00       1.0  T
   3  -3772.0678573  0.241166E-07  0.318E-04   11.00       5.3  T
   4  -3772.0678575 -0.183506E-06  0.101E-04   11.00      16.6  T
     SCC iter.                  ...        4 min, 59.782 sec
     gradient                   ...        4 min, 44.749 sec
 * total energy  : -3716.1870387 Eh     change    :  -0.8597603E-03 Eh
   gradient norm :     0.0221873 Eh/a0  converged?    E=F G=F D=F
   time step     :     0.5358972 fs     power     :   0.1500709E-07
   step length   :     0.0921907 a0     speed     :   0.4161218E-02

........................................................................
.............................. CYCLE   56 ..............................
........................................................................

 iter      E             dE          RMSdq      gap      omega  full diag
   1  -3772.0868269 -0.377209E+04  0.384E-03   11.00       0.0  T
   2  -3772.0868280 -0.112714E-05  0.226E-03   11.00       1.0  T
   3  -3772.0868280  0.158093E-07  0.361E-04   11.00       4.7  T
   4  -3772.0868282 -0.186036E-06  0.110E-04   11.00      15.3  T
     SCC iter.                  ...        4 min, 53.722 sec
     gradient                   ...        4 min, 44.495 sec
 * total energy  : -3716.1877738 Eh     change    :  -0.7350655E-03 Eh
   gradient norm :     0.0243179 Eh/a0  converged?    E=F G=F D=F
   time step     :     0.5894869 fs     power     :   0.1117717E-07
   step length   :     0.0982522 a0     speed     :   0.4031653E-02

........................................................................
.............................. CYCLE   57 ..............................
........................................................................

 iter      E             dE          RMSdq      gap      omega  full diag
   1  -3772.1100704 -0.377211E+04  0.350E-03   11.00       0.0  T
   2  -3772.1100720 -0.160054E-05  0.205E-03   11.00       1.0  T
   3  -3772.1100720 -0.243663E-07  0.379E-04   11.00       4.4  T
   4  -3772.1100721 -0.114140E-06  0.102E-04   11.00      16.5  T
     SCC iter.                  ...        4 min, 58.710 sec
     gradient                   ...        4 min, 43.939 sec
 * total energy  : -3716.1885521 Eh     change    :  -0.7783216E-03 Eh
   gradient norm :     0.0263528 Eh/a0  converged?    E=F G=F D=F
   time step     :     0.6484356 fs     power     :   0.1201353E-07
   step length   :     0.1040051 a0     speed     :   0.3879744E-02

........................................................................
.............................. CYCLE   58 ..............................
........................................................................

 iter      E             dE          RMSdq      gap      omega  full diag
   1  -3772.1281562 -0.377213E+04  0.341E-03   11.00       0.0  T
   2  -3772.1281575 -0.132853E-05  0.200E-03   11.00       1.0  T
   3  -3772.1281576 -0.499786E-07  0.328E-04   11.00       5.1  T
   4  -3772.1281577 -0.713048E-07  0.905E-05   11.00      18.6  T
     SCC iter.                  ...        4 min, 57.699 sec
     gradient                   ...        4 min, 46.543 sec
 * total energy  : -3716.1895702 Eh     change    :  -0.1018110E-02 Eh
   gradient norm :     0.0257125 Eh/a0  converged?    E=F G=F D=F
   time step     :     0.7132792 fs     power     :   0.1571410E-07
   step length   :     0.1112432 a0     speed     :   0.3772500E-02

........................................................................
.............................. CYCLE   59 ..............................
........................................................................

 iter      E             dE          RMSdq      gap      omega  full diag
   1  -3772.1323816 -0.377213E+04  0.380E-03   11.00       0.0  T
   2  -3772.1323824 -0.766267E-06  0.222E-03   11.00       1.0  T
   3  -3772.1323825 -0.766472E-07  0.290E-04   11.00       5.8  T
   4  -3772.1323825 -0.789087E-07  0.103E-04   11.00      16.4  T
     SCC iter.                  ...        4 min, 56.429 sec
     gradient                   ...        4 min, 48.165 sec
 * total energy  : -3716.1908386 Eh     change    :  -0.1268344E-02 Eh
   gradient norm :     0.0220262 Eh/a0  converged?    E=F G=F D=F
   time step     :     0.7846071 fs     power     :   0.1737964E-07
   step length   :     0.1215544 a0     speed     :   0.3747432E-02

........................................................................
.............................. CYCLE   60 ..............................
........................................................................

 iter      E             dE          RMSdq      gap      omega  full diag
   1  -3772.1177736 -0.377212E+04  0.442E-03   11.00       0.0  T
   2  -3772.1177751 -0.156491E-05  0.256E-03   11.00       1.0  T
   3  -3772.1177752 -0.898794E-07  0.420E-04   11.00       4.0  T
   4  -3772.1177753 -0.132460E-06  0.118E-04   11.00      14.2  T
     SCC iter.                  ...        5 min,  1.840 sec
     gradient                   ...        4 min, 44.733 sec
 * total energy  : -3716.1921177 Eh     change    :  -0.1279108E-02 Eh
   gradient norm :     0.0205839 Eh/a0  converged?    E=F G=F D=F
   time step     :     0.8630678 fs     power     :   0.1426784E-07
   step length   :     0.1346801 a0     speed     :   0.3774625E-02

........................................................................
.............................. CYCLE   61 ..............................
........................................................................

 iter      E             dE          RMSdq      gap      omega  full diag
   1  -3772.0895801 -0.377209E+04  0.448E-03   11.00       0.0  T
   2  -3772.0895825 -0.242300E-05  0.257E-03   11.00       1.0  T
   3  -3772.0895826 -0.882628E-07  0.503E-04   11.00       3.3  T
   4  -3772.0895827 -0.140807E-06  0.118E-04   11.00      14.3  T
     SCC iter.                  ...        4 min, 59.386 sec
     gradient                   ...        4 min, 43.587 sec
 * total energy  : -3716.1933628 Eh     change    :  -0.1245106E-02 Eh
   gradient norm :     0.0232071 Eh/a0  converged?    E=F G=F D=F
   time step     :     0.9493746 fs     power     :   0.1303820E-07
   step length   :     0.1481180 a0     speed     :   0.3773855E-02

........................................................................
.............................. CYCLE   62 ..............................
........................................................................

 iter      E             dE          RMSdq      gap      omega  full diag
   1  -3772.0649917 -0.377206E+04  0.427E-03   11.00       0.0  T
   2  -3772.0649935 -0.178160E-05  0.245E-03   11.00       1.0  T
   3  -3772.0649936 -0.103635E-06  0.444E-04   11.00       3.8  T
   4  -3772.0649937 -0.122181E-06  0.120E-04   11.00      14.0  T
     SCC iter.                  ...        4 min, 58.841 sec
     gradient                   ...        4 min, 42.873 sec
 * total energy  : -3716.1948838 Eh     change    :  -0.1520962E-02 Eh
   gradient norm :     0.0210570 Eh/a0  converged?    E=F G=F D=F
   time step     :     1.0443120 fs     power     :   0.1556720E-07
   step length   :     0.1631820 a0     speed     :   0.3779698E-02

........................................................................
.............................. CYCLE   63 ..............................
[...]
  3287   6 C     3288   6 C                                       1.5270426
  3287   6 C     3289   6 C                                       1.5351199
  3289   6 C     3290   6 C                                       1.5327852
  3290   6 C     3291   6 C                                       1.5292528
  3290   6 C     3292   6 C                                       1.5355930
  3292   6 C     3293   6 C                                       1.5331478
  3293   6 C     3294   6 C                                       1.5288675
  3293   6 C     3295   6 C                                       1.5355964
  3295   6 C     3296   6 C                                       1.5351019
  3296   6 C     3297   6 C                                       1.5281254
  3296   6 C     3298   6 C                                       1.5368231
  3298   6 C     3299   6 C                                       1.5340008
  3299   6 C     3300   6 C                                       1.5294579
  3299   6 C     3301   6 C                                       1.5355409
  3301   6 C     3302   6 C                                       1.5352991
  3302   6 C     3303   6 C                                       1.5257282
  3302   6 C     3304   6 C                                       1.5348406
  3304   6 C     3305   6 C                                       1.5344577
  3305   6 C     3306   6 C                                       1.5296515
  3307   6 C     3308   6 C                                       1.5341859
  3308   6 C     3309   6 C                                       1.5294151
  3308   6 C     3310   6 C                                       1.5370795
  3310   6 C     3311   6 C                                       1.5326173
  3311   6 C     3312   6 C                                       1.5283307
  3311   6 C     3313   6 C                                       1.5376903
  3313   6 C     3314   6 C                                       1.5330583
  3314   6 C     3315   6 C                                       1.5288934
  3314   6 C     3316   6 C                                       1.5372542
  3316   6 C     3317   6 C                                       1.5334940
  3317   6 C     3318   6 C                                       1.5286424
  3317   6 C     3319   6 C                                       1.5376647
  3319   6 C     3320   6 C                                       1.5344680
  3320   6 C     3321   6 C                                       1.5243006
  3322   6 C     3323   6 C                                       1.5390341
  3323   6 C     3324   6 C                                       1.5299668
  3323   6 C     3325   6 C                                       1.5368843
  3325   6 C     3326   6 C                                       1.5365258
  3326   6 C     3327   6 C                                       1.5273192
  3326   6 C     3328   6 C                                       1.5342784
  3328   6 C     3329   6 C                                       1.5348219
  3329   6 C     3330   6 C                                       1.5271943
  3329   6 C     3331   6 C                                       1.5334080
  3331   6 C     3332   6 C                                       1.5382436
  3332   6 C     3333   6 C                                       1.5270817
  3332   6 C     3334   6 C                                       1.5337265
  3334   6 C     3335   6 C                                       1.5315530
  3335   6 C     3336   6 C                                       1.5260052
  3335   6 C     3337   6 C                                       1.5356517
  3337   6 C     3338   6 C                                       1.5350716
  3338   6 C     3339   6 C                                       1.5274902
  3338   6 C     3340   6 C                                       1.5335420
  3340   6 C     3341   6 C                                       1.5341119
  3341   6 C     3342   6 C                                       1.5294746
  3341   6 C     3343   6 C                                       1.5400246 (max)
  3343   6 C     3344   6 C                                       1.5340025
  3344   6 C     3345   6 C                                       1.5283559
  3344   6 C     3346   6 C                                       1.5362509
  3346   6 C     3347   6 C                                       1.5319141
  3347   6 C     3348   6 C                                       1.5286800
  3347   6 C     3349   6 C                                       1.5360563
  3349   6 C     3350   6 C                                       1.5356319
  3350   6 C     3351   6 C                                       1.5263842
  3350   6 C     3352   6 C                                       1.5364464
  3352   6 C     3353   6 C                                       1.5289321
  3353   6 C     3354   6 C                                       1.5232908
  3265   6 C     3355   1 H                                       1.0885627
  3265   6 C     3356   1 H                                       1.0881252
  3265   6 C     3357   1 H                                       1.0879111
  3354   6 C     3358   1 H                                       1.0888123
  3354   6 C     3359   1 H                                       1.0863516
  3354   6 C     3360   1 H                                       1.0877541
  3352   6 C     3361   1 H                                       1.0932253
  3352   6 C     3362   1 H                                       1.0918304
  3349   6 C     3363   1 H                                       1.0930230
  3349   6 C     3364   1 H                                       1.0911160
  3347   6 C     3365   1 H                                       1.0940016
  3348   6 C     3366   1 H                                       1.0884870
  3348   6 C     3367   1 H                                       1.0862114
  3348   6 C     3368   1 H                                       1.0880820
  3346   6 C     3369   1 H                                       1.0912026
  3346   6 C     3370   1 H                                       1.0937875
  3343   6 C     3371   1 H                                       1.0908681
  3343   6 C     3372   1 H                                       1.0925051
  3350   6 C     3373   1 H                                       1.0936936
  3351   6 C     3374   1 H                                       1.0870653
  3351   6 C     3375   1 H                                       1.0872260
  3351   6 C     3376   1 H                                       1.0886542
  3344   6 C     3377   1 H                                       1.0925100
  3345   6 C     3378   1 H                                       1.0870553
  3345   6 C     3379   1 H                                       1.0885910
  3345   6 C     3380   1 H                                       1.0884551
  3341   6 C     3381   1 H                                       1.0929158
  3342   6 C     3382   1 H                                       1.0878363
  3342   6 C     3383   1 H                                       1.0874323
  3342   6 C     3384   1 H                                       1.0885405
  3340   6 C     3385   1 H                                       1.0938257
  3340   6 C     3386   1 H                                       1.0936837
  3338   6 C     3387   1 H                                       1.0934175
  3339   6 C     3388   1 H                                       1.0872266
  3339   6 C     3389   1 H                                       1.0874113
  3339   6 C     3390   1 H                                       1.0887516
  3337   6 C     3391   1 H                                       1.0933527
  3337   6 C     3392   1 H                                       1.0930648
  3335   6 C     3393   1 H                                       1.0929569
  3336   6 C     3394   1 H                                       1.0879920
  3336   6 C     3395   1 H                                       1.0878760
  3336   6 C     3396   1 H                                       1.0862612
  3334   6 C     3397   1 H                                       1.0919758
  3334   6 C     3398   1 H                                       1.0935104
  3332   6 C     3399   1 H                                       1.0924764
  3333   6 C     3400   1 H                                       1.0885951
  3333   6 C     3401   1 H                                       1.0873464
  3333   6 C     3402   1 H                                       1.0888445
  3331   6 C     3403   1 H                                       1.0911130
  3331   6 C     3404   1 H                                       1.0935070
  3329   6 C     3405   1 H                                       1.0947729
  3330   6 C     3406   1 H                                       1.0880567
  3330   6 C     3407   1 H                                       1.0882097
  3330   6 C     3408   1 H                                       1.0867455
  3328   6 C     3409   1 H                                       1.0919310
  3328   6 C     3410   1 H                                       1.0931635
  3326   6 C     3411   1 H                                       1.0943494
  3327   6 C     3412   1 H                                       1.0879404
  3327   6 C     3413   1 H                                       1.0879149
  3327   6 C     3414   1 H                                       1.0880332
  3325   6 C     3415   1 H                                       1.0896251
  3325   6 C     3416   1 H                                       1.0935245
  3323   6 C     3417   1 H                                       1.0931509
  3324   6 C     3418   1 H                                       1.0875727
  3324   6 C     3419   1 H                                       1.0871193
  3324   6 C     3420   1 H                                       1.0890233
  3322   6 C     3421   1 H                                       1.0924732
  3322   6 C     3422   1 H                                       1.0932834
  3320   6 C     3423   1 H                                       1.0965117
  3321   6 C     3424   1 H                                       1.0858045
  3321   6 C     3425   1 H                                       1.0871311
  3321   6 C     3426   1 H                                       1.0877206
  3319   6 C     3427   1 H                                       1.0935018
  3319   6 C     3428   1 H                                       1.0922480
  3317   6 C     3429   1 H                                       1.0936325
  3318   6 C     3430   1 H                                       1.0880827
  3318   6 C     3431   1 H                                       1.0881250
  3318   6 C     3432   1 H                                       1.0865703
  3316   6 C     3433   1 H                                       1.0922266
  3316   6 C     3434   1 H                                       1.0942624
  3314   6 C     3435   1 H                                       1.0935355
  3315   6 C     3436   1 H                                       1.0869833
  3315   6 C     3437   1 H                                       1.0889100
  3315   6 C     3438   1 H                                       1.0880252
  3313   6 C     3439   1 H                                       1.0920850
  3313   6 C     3440   1 H                                       1.0936899
  3311   6 C     3441   1 H                                       1.0934445
  3312   6 C     3442   1 H                                       1.0886195
  3312   6 C     3443   1 H                                       1.0885081
  3312   6 C     3444   1 H                                       1.0873623
  3310   6 C     3445   1 H                                       1.0913967
  3310   6 C     3446   1 H                                       1.0932123
  3308   6 C     3447   1 H                                       1.0944986
  3309   6 C     3448   1 H                                       1.0880017
  3309   6 C     3449   1 H                                       1.0878432
  3309   6 C     3450   1 H                                       1.0874758
  3307   6 C     3451   1 H                                       1.0905914
  3307   6 C     3452   1 H                                       1.0930489
  3305   6 C     3453   1 H                                       1.0928897
  3306   6 C     3454   1 H                                       1.0887374
  3306   6 C     3455   1 H                                       1.0882687
  3306   6 C     3456   1 H                                       1.0880656
  3304   6 C     3457   1 H                                       1.0920807
  3304   6 C     3458   1 H                                       1.0941924
  3302   6 C     3459   1 H                                       1.0933156
  3303   6 C     3460   1 H                                       1.0863019
  3303   6 C     3461   1 H                                       1.0860230
  3303   6 C     3462   1 H                                       1.0889420
  3301   6 C     3463   1 H                                       1.0929280
  3301   6 C     3464   1 H                                       1.0940719
  3299   6 C     3465   1 H                                       1.0924003
  3300   6 C     3466   1 H                                       1.0874422
  3300   6 C     3467   1 H                                       1.0883549
  3300   6 C     3468   1 H                                       1.0888594
  3298   6 C     3469   1 H                                       1.0904788
  3298   6 C     3470   1 H                                       1.0931020
  3296   6 C     3471   1 H                                       1.0948227
  3297   6 C     3472   1 H                                       1.0882239
  3297   6 C     3473   1 H                                       1.0877807
  3297   6 C     3474   1 H                                       1.0864969
  3295   6 C     3475   1 H                                       1.0926500
  3295   6 C     3476   1 H                                       1.0927804
  3293   6 C     3477   1 H                                       1.0926161
  3294   6 C     3478   1 H                                       1.0887482
  3294   6 C     3479   1 H                                       1.0861688
  3294   6 C     3480   1 H                                       1.0880743
  3292   6 C     3481   1 H                                       1.0919162
  3292   6 C     3482   1 H                                       1.0939956
  3290   6 C     3483   1 H                                       1.0927522
  3291   6 C     3484   1 H                                       1.0877529
  3291   6 C     3485   1 H                                       1.0886709
  3291   6 C     3486   1 H                                       1.0888434
  3289   6 C     3487   1 H                                       1.0910705
  3289   6 C     3488   1 H                                       1.0937067
  3287   6 C     3489   1 H                                       1.0932176
  3288   6 C     3490   1 H                                       1.0886665
  3288   6 C     3491   1 H                                       1.0875100
  3288   6 C     3492   1 H                                       1.0868857
  3286   6 C     3493   1 H                                       1.0909870
  3286   6 C     3494   1 H                                       1.0915349
  3284   6 C     3495   1 H                                       1.0926730
  3285   6 C     3496   1 H                                       1.0869554
  3285   6 C     3497   1 H                                       1.0878965
  3285   6 C     3498   1 H                                       1.0878600
  3283   6 C     3499   1 H                                       1.0924843
  3283   6 C     3500   1 H                                       1.0930710
  3281   6 C     3501   1 H                                       1.0932314
  3282   6 C     3502   1 H                                       1.0868954
  3282   6 C     3503   1 H                                       1.0887353
  3282   6 C     3504   1 H                                       1.0891471
  3280   6 C     3505   1 H                                       1.0919687
  3280   6 C     3506   1 H                                       1.0935445
  3278   6 C     3507   1 H                                       1.0926786
  3279   6 C     3508   1 H                                       1.0882732
  3279   6 C     3509   1 H                                       1.0872658
  3279   6 C     3510   1 H                                       1.0889662
  3277   6 C     3511   1 H                                       1.0916817
  3277   6 C     3512   1 H                                       1.0937084
  3275   6 C     3513   1 H                                       1.0936533
  3276   6 C     3514   1 H                                       1.0879678
  3276   6 C     3515   1 H                                       1.0872322
  3276   6 C     3516   1 H                                       1.0864914
  3274   6 C     3517   1 H                                       1.0917235
  3274   6 C     3518   1 H                                       1.0938008
  3272   6 C     3519   1 H                                       1.0941677
  3273   6 C     3520   1 H                                       1.0865621
  3273   6 C     3521   1 H                                       1.0880537
  3273   6 C     3522   1 H                                       1.0886362
  3271   6 C     3523   1 H                                       1.0919619
  3271   6 C     3524   1 H                                       1.0941998
  3269   6 C     3525   1 H                                       1.0929528
  3270   6 C     3526   1 H                                       1.0884520
  3270   6 C     3527   1 H                                       1.0885812
  3270   6 C     3528   1 H                                       1.0866408
  3268   6 C     3529   1 H                                       1.0941297
  3268   6 C     3530   1 H                                       1.0940569
  3266   6 C     3531   1 H                                       1.0945410
  3267   6 C     3532   1 H                                       1.0862490
  3267   6 C     3533   1 H                                       1.0882587
  3267   6 C     3534   1 H                                       1.0880629
  3353   6 C     3535   1 H                                       1.0938420
  3353   6 C     3536   1 H                                       1.0905854

 * 2 distinct bonds (by element types)

   Z      Z             #   av. dist./Å        max./Å        min./Å
   1 H    6 C        2366     1.0902951     1.0979611     1.0839278
   6 C    6 C        1112     1.5324343     1.5400246     1.5232898


optimized geometry written to: xtbopt.xyz


           -------------------------------------------------
          | TOTAL ENERGY            -3716.268036209359 Eh   |
          | GRADIENT NORM               0.000658921085 Eh/α |
          | HOMO-LUMO GAP              11.150237064178 eV   |
           -------------------------------------------------

------------------------------------------------------------------------
 * finished run on 2024/06/25 at 08:02:02.918     
------------------------------------------------------------------------
 total:
 * wall-time:     4 d, 12 h, 54 min, 16.492 sec
 *  cpu-time:    23 d, 15 h, 46 min, 19.468 sec
 * ratio c/w:     5.213 speedup
 SCF:
 * wall-time:     0 d,  0 h,  8 min, 59.210 sec
 *  cpu-time:     0 d,  0 h, 46 min, 30.456 sec
 * ratio c/w:     5.175 speedup
 ANC optimizer:
 * wall-time:     4 d, 12 h, 43 min, 49.865 sec
 *  cpu-time:    23 d, 14 h, 58 min,  4.592 sec
 * ratio c/w:     5.214 speedup

