3258
 energy: -3427.488533687505 gnorm: 0.000969288571 xtb: 6.6.1 (8d0f1dd)
C          103.38942415670330      123.51145138681719       97.45802783479473
C          104.87902838096824      123.21475476568713       97.33326507695067
C          105.49768069815200      122.84324733899551       98.67857806453175
C          106.97340969990397      122.47033793993995       98.56139484029400
C          107.58287581633540      122.12906120230278       99.91952690344515
C          108.98582709678885      121.54472093761636       99.78210399881522
C          109.67334245636437      121.28257917683088      101.12182650207370
C          108.91018943146547      120.31338922907547      102.02193171681948
C          109.79091204460937      119.77337466489652      103.14572682233269
C          109.04686779769874      118.77076637066932      104.02260227540593
C          109.96776765367819      118.07363140193641      105.02135849848963
C          109.26883855420854      116.90317306693804      105.70663174196153
C          110.21969320816082      116.06398613571479      106.55445318798063
C          109.53634488613996      114.81191523526482      107.09349941432750
C          110.50335870054805      113.85816251053639      107.78882741752686
C          109.78170781329776      112.61747006171632      108.30790603559052
C          110.74164815860399      111.56848695820426      108.85988363944038
C          110.00031893256944      110.37581204665966      109.45928673521408
C          110.94273313053435      109.22421486763891      109.80195318930775
C          110.24683213006578      108.05793307261398      110.50438269371686
C          109.22091091587673      107.33954651953157      109.62921132012335
C          108.57839061369262      106.16522038676300      110.36323238357241
C          107.39944808360340      105.56386642165907      109.60086718392085
C          106.63105815999296      104.57408282109962      110.47334339685686
C          105.48554369797111      103.85345171106177      109.75903131788294
C          104.44209175521794      104.76707731745012      109.11431325108430
C          103.73486364731556      105.70599373436892      110.09090737285909
C          102.76013195898375      106.62576262141671      109.35761706683667
C          102.05454972889987      107.61426317206526      110.28310693324967
C          101.37320668573778      108.75686264015069      109.52705323395635
C          100.16383936967986      108.32831932642765      108.69676418777495
C           99.53182713839047      109.52312539643680      107.98179777701210
C           98.21057161090968      109.22839159400939      107.27029636841536
C           98.35815484877348      108.29161084175401      106.07599697643012
C           97.05728229107687      108.17060044478121      105.28595851975756
C           97.17217015675932      107.22384777471028      104.09090057861515
C           97.28025412875256      105.75629563822010      104.49659570259801
C           97.37126853231435      104.82979813706633      103.28747321364163
C           97.54411402382149      103.37231050681066      103.70754467729576
C           97.63050732834954      102.43561685496428      102.50496611272438
C           98.03250586521555      101.00429594056619      102.86950699377314
C           97.10176121640716      100.31293923329903      103.86631202265397
C           95.69703048553227      100.07199902610016      103.31945047035028
C           94.73502431687869       99.52674494456956      104.37739108128766
C           94.36607907468276      100.52504571515860      105.47790566028597
C           93.57396166187200      101.72699546466113      104.96718312202213
C           93.21106763444648      102.68684012439088      106.09828652808379
C           92.35168328791957      103.86766460672271      105.64430627956115
C           93.10576508271033      104.84788512953507      104.74913809208624
C           92.22771340612761      106.01836217792926      104.31300133645513
C           92.96072337502962      107.00427101375732      103.40149642464641
C           93.20265685034019      106.44664674743711      102.00171307547039
C           93.97103738110947      107.41662800438435      101.10635422295206
C           94.20677659510422      106.84761837603024       99.70576078279107
C           95.27144682377167      105.75113672884798       99.67835399509126
C           95.24598622833486      104.95825433629007       98.37515590125680
C           96.26902175937101      103.82450301508456       98.37040295099520
C           96.09088775157831      102.91454745011715       97.15740348671463
C           97.19955523666985      101.87452890570896       97.00294246847561
C           97.28790328085378      100.88427312316260       98.16136252377541
C           98.33446133716052       99.80597473583606       97.89073860052612
C           98.47067411505945       98.82749672739965       99.05426005708111
C           99.52307641826735       97.75697229132062       98.77623511298351
C           99.54051297747669       96.63511359478758       99.81352532945077
C           99.96847342457191       97.08590468583843      101.20899826159854
C          100.08469661249761       95.89257569508621      102.15360180197925
C          100.68374282386046       96.23139918137208      103.51767457306080
C           99.78871313446668       97.10661510323969      104.39350579283331
C          100.25090832694643       97.08252252043195      105.85053657918174
C           99.33884633899696       97.87178075999633      106.79006887037357
C           99.54640815274423       99.38183489513315      106.71153645692549
C           98.52261611992705      100.12970279260409      107.56032803709718
C           98.75009359879436      101.63816155053584      107.54767083406487
C           97.68555276659667      102.38087862108883      108.35041911390384
C           97.99006395066520      103.87056674807025      108.47674585996273
C           96.93010988547590      104.60706219381949      109.29215666902414
C           97.34067497778310      106.04691134435673      109.58683805273320
C           96.25187501277384      106.82677535263016      110.31891314146257
C           96.72279721357167      108.19436178244243      110.81243765537414
C           95.58965383993809      108.96829850512515      111.48158709343889
C           96.05286588047920      110.21483476445964      112.23235834013073
C           96.51381305164199      111.37476766001525      111.35172977994088
C           96.87728287511351      112.57052638330106      112.22945425708144
C           97.26637498967617      113.83360577918030      111.46569857506688
C           97.53026240131335      114.97388328530951      112.44768745455261
C           97.94106868134443      116.29536525273765      111.80075277322403
C           96.84018795696424      116.93131300253603      110.95310620362984
C           97.13784434867117      118.40133925002391      110.66251867006551
C           96.10335095825602      119.06290432218931      109.74984301769177
C           96.27623972852781      118.67655802597920      108.28303553954437
C           95.26457903602979      119.37557847609857      107.37515102645381
C           95.67200588521841      119.33705688454681      105.90230145489345
C           95.59446826524049      117.95075985402281      105.26375822626150
C           96.35690075216995      117.92222180938846      103.94089658967621
C           96.13347397136845      116.64475486520698      103.13612265940881
C           97.03885380675189      116.60470814086815      101.90609520505694
C           96.65631220539601      115.50161951013732      100.92350780218013
C           97.59688892676051      115.46540266673250       99.72032078950960
C           97.10642116144534      114.49929543299761       98.64502122023998
C           98.02911455702298      114.41773987137937       97.42804268507273
C           99.32351784278717      113.66126941669199       97.71404560345681
C          100.19733178298796      113.52086800673388       96.46912934932352
C          101.45168011634451      112.68246452880170       96.72413331490368
C          101.15499861462713      111.18528578609981       96.79073865653778
C          102.35527530127651      110.34006940139516       97.21918702720501
C          102.74139579558384      110.56616856595245       98.68004724535295
C          103.73960485774047      109.53104374136917       99.19306393925051
C          104.10575260269761      109.79613950609205      100.65232763621950
C          105.23748171495275      108.91188034006385      101.17348867349315
C          104.82614102980563      107.47190457923313      101.46990404205319
C          106.03500946676076      106.64077566659746      101.89437062088005
C          105.67214668493484      105.19567589227333      102.22692383747815
C          106.89318309018277      104.29499216271050      102.41918066012185
C          107.76421436366904      104.68348219656976      103.61223931000077
C          108.89711350267361      103.68149777628886      103.82483855627305
C          109.77159936931129      104.00350822104944      105.03764915724381
C          110.80835324888838      105.09193758765257      104.77132336263419
C          111.61353667040267      105.42311174970320      106.02528129470629
C          112.71454144452798      106.44774671924768      105.76409817136843
C          113.50054565716044      106.76180503613487      107.03038654848400
H          113.39311399338773      106.05758115494463      105.00227066741103
H          112.27254279154377      107.36849130609741      105.37520934870503
H          110.93940377657759      105.80852175234971      106.79471105066366
H          112.06463338539521      104.50728537209345      106.41498512217282
H          111.48889092586424      104.75878544496425      103.98383591282932
H          110.31090836334286      105.99544725167544      104.41446728523050
H          109.13116304759171      104.31093797383907      105.86729665549186
H          110.29429659480360      103.09594471478739      105.34770747597869
H          108.45985728994297      102.68927434759784      103.96186153042083
H          109.52118209676377      103.64721154631179      102.92796122891926
H          108.18528642247374      105.67626678559746      103.45132230379492
H          107.14543207283228      104.72144784403345      104.51221714852824
H          106.54745938336850      103.26670286472272      102.55943267018846
H          107.50335069088203      104.31454581310595      101.51278531882777
H          105.06374151186158      105.17184702865249      103.13423855535856
H          105.06260529039498      104.78962271875116      101.41441493022366
H          106.76938141241541      106.64902068979646      101.08631537985615
H          106.49841685435682      107.11294838615956      102.76211731795378
H          104.07752394083653      107.46477197468370      102.26365817669651
H          104.37300584049058      107.02173006681232      100.58487753711476
H          106.04772781009058      108.90718892779255      100.44052677208761
H          105.62981230096408      109.34959826391756      102.09600642567719
H          104.41106085891604      110.84186005620883      100.74026795811594
H          103.22260072557242      109.66410046330587      101.28180345291271
H          103.30892747114792      108.53278033980686       99.09069833421967
H          104.64455050888638      109.56652678975102       98.58065097881114
H          103.17727266799926      111.55996021269073       98.79656835992257
H          101.84065523390204      110.52608358646765       99.29590925938754
H          102.09927213552164      109.28556852255099       97.08324616713546
H          103.20867734769914      110.55761118175117       96.57287186805881
H          100.33959191463377      111.00763443719840       97.49447494682303
H          100.81628023638233      110.85112684786806       95.80683868086098
H          102.17246166653440      112.86076472509441       95.92251416974007
H          101.90554111337183      113.01271105235135       97.66008054077902
H           99.61635129548220      113.06536002803867       95.66357302914760
H          100.49527966807666      114.51875478510092       96.13778157343786
H           99.89181252693002      114.18038986387796       98.48674629984863
H           99.07066076042000      112.67182527869601       98.09908337864002
H           97.49931031924490      113.90557211307807       96.62084189487791
H           98.26313667780619      115.42677271934815       97.07997891917509
H           96.99985808557780      113.50350278132649       99.07858191581100
H           96.11565690850284      114.82289554828240       98.31523124297271
H           97.67080933789022      116.46860252720550       99.29233851785305
H           98.59274382786543      115.17348249986368      100.05754015153886
H           96.67437366881077      114.53345224535384      101.43007081644556
H           95.63350556737171      115.67144025275054      100.57743461004546
H           96.98156000063379      117.56794408813390      101.39247824402142
H           98.07407362780718      116.46241280115697      102.22597168661017
H           96.32939091852268      115.77146111354810      103.76302901012998
H           95.08807570735704      116.59488667212825      102.82236451239973
H           96.05562029761755      118.77848005056093      103.33223403820986
H           97.42404253274896      118.02833977887289      104.15096818389176
H           96.02582156276901      117.20928161435884      105.93586247431476
H           94.54937088334580      117.68039249481050      105.09665393992590
H           95.03528784487972      120.02165117736479      105.33604174543721
H           96.69718876850857      119.70186327461444      105.82088617784051
H           94.27877258045325      118.92277083074922      107.50104116464230
H           95.18677442635344      120.42247058261491      107.68078409280095
H           97.28562411849579      118.95097624480151      107.96712855824562
H           96.17812687494339      117.59662530409597      108.17565926595738
H           95.09815437912422      118.79656759734333      110.08478562213851
H           96.20220355988924      120.14801265576456      109.83562414670581
H           97.17074778431376      118.94130826017137      111.61247777209596
H           98.12536557774953      118.48489666405487      110.20258358889811
H           96.74038610441166      116.38282572107359      110.01608625505804
H           95.88815507525727      116.86147531562264      111.48526215042082
H           98.20998150232350      116.99253915203073      112.59894565448626
H           98.83110415367887      116.14401362603387      111.18538243258699
H           96.63113849992118      115.14001338516287      113.04671550911583
H           98.32156160068632      114.66256579133666      113.13365863506503
H           98.15979915292175      113.64756825565364      110.86512035859057
H           96.45762100818182      114.10923885818866      110.78910237102950
H           96.02005308802501      112.80414903237927      112.86564066733104
H           97.70435317362032      112.28542685653350      112.88599478937525
H           97.37690837971982      111.07769612554739      110.75272351943262
H           95.71130567070568      111.65275961504781      110.66445188017875
H           95.22740958431417      110.56865617057873      112.85564770973919
H           96.86869862721576      109.93699054609672      112.90037046169729
H           94.84383437533300      109.24843728719327      110.73297463785229
H           95.10407027754434      108.30486612411751      112.20108613069632
H           97.53288969875761      108.05340954871254      111.53079032306890
H           97.11652998323814      108.77502762814177      109.97832546983014
H           95.39622419870928      106.95490575712310      109.65261285497934
H           95.91719902502282      106.24265410450533      111.18057449500934
H           98.24592471341656      106.03419405765416      110.19767379239907
H           97.57637734161999      106.54670452829372      108.64576727709330
H           95.98200937048178      104.59865432535786      108.75054071017178
H           96.77279178779470      104.07803317245511      110.23544944907516
H           98.96247259991546      103.99406479144454      108.95910781209146
H           98.05557775694804      104.31523835362300      107.48055544379542
H           96.71016540974905      102.24602105659541      107.87678943933038
H           97.62284912219019      101.94328087199449      109.34999795949011
H           99.73440932231323      101.85414337787886      107.96927923590063
H           98.74666512232112      101.99805508512722      106.51592317678487
H           97.51881047121981       99.90960525497900      107.18886866019655
H           98.57398203991727       99.76760489587740      108.59045328593803
H          100.55368386779519       99.62359338429233      107.05832878662216
H           99.46386167522734       99.71609272369547      105.67660239648788
H           98.29718195273954       97.63516818446007      106.55894276462888
H           99.52346198649867       97.55130634065127      107.81895592877144
H          100.27387790852728       96.04095308074376      106.18094927317779
H          101.26899492198363       97.47340725412249      105.92002736031911
H           99.78865750727029       98.13018965263183      104.01702178654043
H           98.76365678767765       96.73045074024995      104.34399483993147
H          100.86362843618122       95.29265253283192      104.04473246365345
H          101.64989722236648       96.72322782723435      103.37905244378337
H           99.09670747988409       95.44792571390052      102.29610440995164
H          100.71571721086191       95.13500595816572      101.68059810141855
H          100.93586718332543       97.58939741197493      101.14584749094715
H           99.24651670066389       97.79882379624837      101.60770413779369
H           98.54669984671170       96.18422892475523       99.87122837695019
H          100.23181070634878       95.86002350349433       99.47137893860543
H           99.32544068264173       97.31784416036315       97.79502478605309
H          100.51079547969809       98.22213566516724       98.73086241631665
H           98.74067168958049       99.38230896190410       99.95461261692708
H           97.50616085736094       98.34630513835492       99.23420108497682
H           98.06082266499170       99.25610320019695       96.98697184496019
H           99.29974715622021      100.28192419821515       97.70347768129074
H           97.55267833791441      101.41299705370162       99.07840173295637
H           96.31366756816064      100.41409816982853       98.31524702191301
H           97.02601851791273      101.31759854187248       96.07851855231702
H           98.15686802207287      102.38673107921075       96.90086027628058
H           95.12573470917710      102.40714195924784       97.22938662593074
H           96.07007883012591      103.53311936415969       96.25645637659336
H           97.27731262755007      104.24340395467212       98.36791783002083
H           96.15427556101430      103.23963318385171       99.28484640509284
H           94.24728889271931      104.53513944619723       98.23974880168666
H           95.43711493033834      105.62825171274915       97.53450324448204
H           96.25937380037853      106.19634994819437       99.81908623175646
H           95.10482367921099      105.05686207967584      100.50379209506714
H           93.26412982026005      106.44292110960083       99.32945069103573
H           94.50907597331741      107.65168121609355       99.03164733209779
H           93.40410104351386      108.34714426591280      101.02553857575032
H           94.93430614232999      107.65477353441648      101.56540290371473
H           93.75929299528960      105.51273974343931      102.07996578839214
H           92.24062923754481      106.21908773611779      101.53619546539240
H           92.37266747663868      107.92114944160772      103.31955877488245
H           93.91768849964934      107.26780267456725      103.85735892812093
H           91.34594590634673      105.63565065542771      103.79356306664779
H           91.88182384656791      106.54629298361610      105.20425410982016
H           93.97411193346201      105.23428971980982      105.28914299433607
H           93.46996122303645      104.32149346002052      103.86723808056713
H           91.47672247155324      103.49017302877918      105.10974448331861
H           91.99135930302351      104.40199821167734      106.52727759419102
H           92.66770622570810      102.13269494223353      106.86699546239912
H           94.13031087569360      103.06832123050842      106.55172762399161
H           94.16466790357688      102.25909775864457      104.22174567681817
H           92.65961360044568      101.37672470830185      104.48226752205363
H           93.76663142626245      100.00260284286195      106.22814264549662
H           95.27146702655779      100.87808032569765      105.97643069603579
H           93.81593150603662       99.20323212792042      103.88239378497921
H           95.18572524625391       98.64516878254125      104.84118274652864
H           95.29159845147578      100.99616939467116      102.90961825592895
H           95.75858822010839       99.35409661196225      102.49733079314852
H           97.53625665492009       99.34832604603608      104.13997648224955
H           97.04999469305535      100.91375429302481      104.77313082899093
H           98.07553774447048      100.41035446884230      101.95227692284458
H           99.04043753524319      101.02664347008958      103.29541012126046
H           96.67466912310299      102.43126426967879      101.97714825682050
H           98.37674533290097      102.83186635999697      101.81146914163088
H           98.45753198517600      103.27935502638377      104.30130612624134
H           96.70381988123398      103.08781457721993      104.34315646975220
H           96.46807292888643      104.93196113950745      102.68113083097690
H           98.21842507497830      105.13071596615076      102.66632998520524
H           98.16664419825111      105.60940954939190      105.11576011552731
H           96.40806756492731      105.48277485245120      105.09587809201346
H           96.29134008147868      107.34447019500658      103.45480701759408
H           98.04490831905365      107.50120619201988      103.49518022109052
H           96.26246320842037      107.82162361374345      105.95028197833059
H           96.77329624759467      109.16320192563880      104.92705192392252
H           99.14312071589809      108.66585656940607      105.41434394853560
H           98.65849322676954      107.30588468423575      106.43191483694345
H           97.49951758879605      108.79492634662532      107.97509220121357
H           97.78812922073807      110.17538589746751      106.92759825069894
H           99.35409575131693      110.31137027357825      108.71970530466888
H          100.24072315059530      109.91292229352072      107.24630303365174
H          100.46832584583352      107.57988930447149      107.96467944662625
H           99.42669011145763      107.87384012940238      109.35852132025806
H          101.04459933010460      109.50506979217147      110.25186844222446
H          102.10909422585814      109.23262066518711      108.87324464259972
H          101.32276405438938      107.09022091035185      110.90067985283571
H          102.79731450661312      108.04796605889156      110.95784388300618
H          103.31969477539059      107.19441069873095      108.61299671305562
H          102.02149257667799      106.01951262183741      108.82949551689434
H          103.20055327100290      105.11981305470424      110.84095518742244
H          104.47240744291767      106.32107862878134      110.60971522003379
H          104.91943764028075      105.35971670836062      108.33070597387415
H          103.69190882288650      104.13454249323750      108.63142135536562
H          105.90498608017037      103.21250114145963      108.97963107682303
H          104.98632073399980      103.20414693513213      110.48221126909358
H          107.33264125625097      103.81961756914951      110.83967151140733
H          106.24423657780891      105.10281159463413      111.34727961411107
H          106.73443312457442      106.37303446957070      109.29385639592084
H          107.75751663587958      105.06048446873547      108.69993940582989
H          109.32869563544288      105.39590148104652      110.55104526998355
H          108.21843757204392      106.51123587348890      111.33435913519403
H          108.43598860813320      108.03908914535232      109.33583051005014
H          109.70508316031155      106.98406620241570      108.71635303492693
H          111.00348423739543      107.33695134397946      110.82457866112789
H          109.75165418321663      108.43237848315458      111.40405683721951
H          111.41604212205166      108.86342847454398      108.88463941390846
H          111.73362048371054      109.60187039745033      110.45569639573156
H          109.47459936706477      110.69382815525917      110.36226656895242
H          109.25055328008671      110.03285727496308      108.74345157331383
H          111.38752899052088      111.22176559492117      108.05100427960410
H          111.37758591683654      112.02247334744833      109.62213708585453
H          109.07911939758513      112.91411771291047      109.08913499159901
H          109.20319178301280      112.17389554171027      107.49269054545330
H          111.27851984623017      113.55544859006348      107.08172134818605
H          110.99221761433417      114.36978135067838      108.62097552145156
H          108.74942267757075      115.10351373596994      107.79113147246969
H          109.06278369853622      114.28420531026696      106.26100351196526
H          111.06853008001147      115.76342019357185      105.93727397309500
H          110.60899819540761      116.66057298939486      107.38202196775396
H          108.45392876434794      117.27768160470235      106.32862338213164
H          108.83017739206174      116.26064301102360      104.93818499587067
H          110.85014887265261      117.70102310614837      104.49361634379355
H          110.31461559812099      118.78905805053516      105.76825544032677
H          108.23872566455678      119.27493500172292      104.55679498053892
H          108.58925871234322      118.01598293766521      103.37790587023915
H          110.66345843131302      119.28280197377764      102.70626064418103
H          110.15426988649705      120.60053653881783      103.75924013835152
H          108.03920527945770      120.81048428848263      102.45181397725310
H          108.54850283463253      119.47486009391659      101.42148103352739
H          110.66553499467918      120.86964481073066      100.92228494683540
H          109.81352044783544      122.22617673787134      101.65289218613714
H          108.92512305043088      120.60574394056871       99.22531078585070
H          109.60252553172006      122.23270237230753       99.19764435667328
H          107.62055369417720      123.02776188400425      100.53902815960809
H          106.94000108557417      121.40537673771050      100.42187724249243
H          107.07247737635984      121.60843569747853       97.89789824739401
H          107.52563502479043      123.29833862701254       98.11032476372237
H          105.38828736695496      123.68229012968241       99.36993892456229
H          104.95004895718786      121.99673154775644       99.10126891580069
H          105.02465145379756      122.39273515217658       96.62789727733504
H          105.39236916787662      124.08962945591459       96.92781999797381
H          102.85707564342422      122.64013414484302       97.83446339174336
H          103.22123370546204      124.33741931260269       98.14600678796742
H          102.96859514300424      123.77851610790918       96.49141695126210
H          112.85260629854579      107.20955621728248      107.78051773117895
H          113.92961721703256      105.85393959416885      107.44759561581884
H          114.30871679380155      107.45895028399234      106.82233244265691
C          106.19545348146964       99.06511687993699      116.09619943507478
C          107.32622118849807       98.14356885555803      115.65948836187273
C          108.66797268105866       98.62234807558352      116.20353687646268
C          109.81383170917009       97.67620787259425      115.85492595115390
C          111.15468767254603       98.15439833666049      116.41395932751033
C          111.26323150018898       97.96065978075639      117.92458073738881
C          112.51658398465209       98.59185070437134      118.52845670078641
C          112.47679510114151      100.11695144678869      118.49284500020467
C          113.65555562225194      100.74326027778058      119.22776101292479
C          113.64168235320754      102.27085283165572      119.18445455988883
C          113.76434394239105      102.87526299255819      117.78469590195439
C          115.02980189323205      102.43416933443702      117.05153446425548
C          115.34027118609211      103.28540258246747      115.82003025389868
C          115.59385083903761      104.74991942248947      116.17992341831470
C          116.47630073272411      105.47636517589369      115.16757920789800
C          116.63236821654796      106.96087533410532      115.49947302944923
C          117.44086896162486      107.20800117767421      116.77212769520506
C          117.23951156933398      108.61985314151170      117.31158805717075
C          118.06264685620592      108.92340389868302      118.56560958354260
C          117.90909758139394      107.90825985559323      119.70182247327551
C          116.45797215069767      107.65032982624504      120.09990618034576