      -----------------------------------------------------------      
     |                   =====================                   |     
     |                           x T B                           |     
     |                   =====================                   |     
     |                         S. Grimme                         |     
     |          Mulliken Center for Theoretical Chemistry        |     
     |                    University of Bonn                     |     
      -----------------------------------------------------------      

   * xtb version 6.6.1 (8d0f1dd) compiled by 'stahn@M-Bot' on 2023-08-01

   xtb is free software: you can redistribute it and/or modify it under
   the terms of the GNU Lesser General Public License as published by
   the Free Software Foundation, either version 3 of the License, or
   (at your option) any later version.
   
   xtb is distributed in the hope that it will be useful,
   but WITHOUT ANY WARRANTY; without even the implied warranty of
   MERCHANTABILITY or FITNESS FOR A PARTICULAR PURPOSE.  See the
   GNU Lesser General Public License for more details.
   
   Cite this work as:
   * C. Bannwarth, E. Caldeweyher, S. Ehlert, A. Hansen, P. Pracht,
     J. Seibert, S. Spicher, S. Grimme, WIREs Comput. Mol. Sci., 2020, 11,
     e01493. DOI: 10.1002/wcms.1493
   
   for GFN2-xTB:
   * C. Bannwarth, S. Ehlert and S. Grimme., J. Chem. Theory Comput., 2019,
     15, 1652-1671. DOI: 10.1021/acs.jctc.8b01176
   for GFN1-xTB:
   * S. Grimme, C. Bannwarth, P. Shushkov, J. Chem. Theory Comput., 2017,
     13, 1989-2009. DOI: 10.1021/acs.jctc.7b00118
   for GFN0-xTB:
   * P. Pracht, E. Caldeweyher, S. Ehlert, S. Grimme, ChemRxiv, 2019, preprint.
     DOI: 10.26434/chemrxiv.8326202.v1
   for GFN-FF:
   * S. Spicher and S. Grimme, Angew. Chem. Int. Ed., 2020, 59, 15665-15673.
     DOI: 10.1002/anie.202004239
   
   for ALPB and GBSA implicit solvation:
   * S. Ehlert, M. Stahn, S. Spicher, S. Grimme, J. Chem. Theory Comput.,
     2021, 17, 4250-4261. DOI: 10.1021/acs.jctc.1c00471
   
   for DFT-D4:
   * E. Caldeweyher, C. Bannwarth and S. Grimme, J. Chem. Phys., 2017,
     147, 034112. DOI: 10.1063/1.4993215
   * E. Caldeweyher, S. Ehlert, A. Hansen, H. Neugebauer, S. Spicher,
     C. Bannwarth and S. Grimme, J. Chem. Phys., 2019, 150, 154122.
     DOI: 10.1063/1.5090222
   * E. Caldeweyher, J.-M. Mewes, S. Ehlert and S. Grimme, Phys. Chem. Chem. Phys.
     2020, 22, 8499-8512. DOI: 10.1039/D0CP00502A
   
   for sTDA-xTB:
   * S. Grimme and C. Bannwarth, J. Chem. Phys., 2016, 145, 054103.
     DOI: 10.1063/1.4959605
   
   in the mass-spec context:
   * V. Asgeirsson, C. Bauer and S. Grimme, Chem. Sci., 2017, 8, 4879.
     DOI: 10.1039/c7sc00601b
   * J. Koopman and S. Grimme, ACS Omega 2019, 4, 12, 15120-15133.
     DOI: 10.1021/acsomega.9b02011
   
   for metadynamics refer to:
   * S. Grimme, J. Chem. Theory Comput., 2019, 155, 2847-2862
     DOI: 10.1021/acs.jctc.9b00143
   
   for SPH calculations refer to:
   * S. Spicher and S. Grimme, J. Chem. Theory Comput., 2021, 17, 1701-1714
     DOI: 10.1021/acs.jctc.0c01306
   
   with help from (in alphabetical order)
   P. Atkinson, C. Bannwarth, F. Bohle, G. Brandenburg, E. Caldeweyher
   M. Checinski, S. Dohm, S. Ehlert, S. Ehrlich, I. Gerasimov, C. Hölzer
   A. Katbashev, J. Koopman, C. Lavigne, S. Lehtola, F. März, M. Müller,
   F. Musil, H. Neugebauer, J. Pisarek, C. Plett, P. Pracht, F. Pultar,
   J. Seibert, P. Shushkov, S. Spicher, M. Stahn, M. Steiner, T. Strunk,
   J. Stückrath, T. Rose, and J. Unsleber
   
 * started run on 2024/06/17 at 15:17:37.340     

           -------------------------------------------------
          |                Calculation Setup                |
           -------------------------------------------------

          program call               : /home/abt-grimme/AK-bin/xtb input.xyz --input input.inp --opt --gbsa water
          hostname                   : boar053.thch.uni-bonn.de
          coordinate file            : input.xyz
          omp threads                :                     8

   ID    Z sym.   atoms
    1    6 C      1-120, 363-482, 725-844, 1087-1206, 1449-1568, 1811-1930,
                  2173-2292, 2535-2654, 2897-3016
    2    1 H      121-362, 483-724, 845-1086, 1207-1448, 1569-1810,
                  1931-2172, 2293-2534, 2655-2896, 3017-3258

molecular fragmentation (1/2 indicates fragments):
111111111111111111111111111111111111111111111111111111111111111111111111
111111111111111111111111111111111111111111111111111111111111111111111111
111111111111111111111111111111111111111111111111111111111111111111111111
111111111111111111111111111111111111111111111111111111111111111111111111
111111111111111111111111111111111111111111111111111111111111111111111111
112222222222222222222222222222222222222222222222222222222222222222222222
222222222222222222222222222222222222222222222222222222222222222222222222
222222222222222222222222222222222222222222222222222222222222222222222222
222222222222222222222222222222222222222222222222222222222222222222222222
222222222222222222222222222222222222222222222222222222222222222222222222
222222222222222222222222222222222222222222222222222222222222222222222222
222222222222222222222222222222222222222222222222222222222222222222222222
222222222222222222222222222222222222222222222222222222222222222222222222
222222222222222222222222222222222222222222222222222222222222222222222222
222222222222222222222222222222222222222222222222222222222222222222222222
222222222222222222222222222222222222222222222222222222222222222222222222
222222222222222222222222222222222222222222222222222222222222222222222222
222222222222222222222222222222222222222222222222222222222222222222222222
222222222222222222222222222222222222222222222222222222222222222222222222
222222222222222222222222222222222222222222222222222222222222222222222222
222222222222222222222222222222222222222222222222222222222222222222222222
222222222222222222222222222222222222222222222222222222222222222222222222
222222222222222222222222222222222222222222222222222222222222222222222222
222222222222222222222222222222222222222222222222222222222222222222222222
222222222222222222222222222222222222222222222222222222222222222222222222
222222222222222222222222222222222222222222222222222222222222222222222222
222222222222222222222222222222222222222222222222222222222222222222222222
222222222222222222222222222222222222222222222222222222222222222222222222
222222222222222222222222222222222222222222222222222222222222222222222222
222222222222222222222222222222222222222222222222222222222222222222222222
222222222222222222222222222222222222222222222222222222222222222222222222
222222222222222222222222222222222222222222222222222222222222222222222222
222222222222222222222222222222222222222222222222222222222222222222222222
222222222222222222222222222222222222222222222222222222222222222222222222
222222222222222222222222222222222222222222222222222222222222222222222222
222222222222222222222222222222222222222222222222222222222222222222222222
222222222222222222222222222222222222222222222222222222222222222222222222
222222222222222222222222222222222222222222222222222222222222222222222222
222222222222222222222222222222222222222222222222222222222222222222222222
222222222222222222222222222222222222222222222222222222222222222222222222
222222222222222222222222222222222222222222222222222222222222222222222222
222222222222222222222222222222222222222222222222222222222222222222222222
222222222222222222222222222222222222222222222222222222222222222222222222
222222222222222222222222222222222222222222222222222222222222222222222222
222222222222222222222222222222222222222222222222222222222222222222222222
222222222222222222
# atoms in fragment 1/2:   362  2896
 fragment masses (1/2) :     1685.21    13481.68
CMA distance (Bohr)    :  19.557
constraining FC (au)   :  0.0500

           -------------------------------------------------
          |                 G F N 2 - x T B                 |
           -------------------------------------------------

        Reference                      10.1021/acs.jctc.8b01176
      * Hamiltonian:
        H0-scaling (s, p, d)           1.850000    2.230000    2.230000
        zeta-weighting                 0.500000
      * Dispersion:
        s8                             2.700000
        a1                             0.520000
        a2                             5.000000
        s9                             5.000000
      * Repulsion:
        kExp                           1.500000    1.000000
        rExp                           1.000000
      * Coulomb:
        alpha                          2.000000
        third order                    shell-resolved
        anisotropic                    true
        a3                             3.000000
        a5                             4.000000
        cn-shift                       1.200000
        cn-exp                         4.000000
        max-rad                        5.000000

      * Solvation model:               GBSA
        Solvent                        water
        Parameter file                 internal GFN2-xTB/GBSA
        Dielectric constant                8.0200E+01
        Reference state                gsolv [1 M gas/solution]
        Free energy shift                  1.8574E-03 Eh       1.1656E+00 kcal/mol
        Temperature                        2.9815E+02 K
        Density                            1.0000E+00 kg/L
        Solvent mass                       1.8000E+01 g/mol
        Interaction kernel             Still
        Born radius scaling (c1)           1.5524E+00
        Born radii integrator          GBOBC
        Born offset                        2.4628E-02 a0       4.6540E-02 AA
        H-bond correction              true
        Ion screening                  false
        Surface tension                    1.0000E-05 Eh       1.5569E+01 dyn/cm
        Grid points                               230 per atom
q/qsh data taken from xtbrestart
CAMM data taken from xtbrestart

          ...................................................
          :                      SETUP                      :
          :.................................................:
          :  # basis functions                6498          :
          :  # atomic orbitals                6498          :
          :  # shells                         4338          :
          :  # electrons                      6498          :
          :  max. iterations                   250          :
          :  Hamiltonian                  GFN2-xTB          :
          :  restarted?                       true          :
          :  GBSA solvation                   true          :
          :  PC potential                    false          :
          :  electronic temp.          300.0000000     K    :
          :  accuracy                    1.0000000          :
          :  -> integral cutoff          0.2500000E+02      :
          :  -> integral neglect         0.1000000E-07      :
          :  -> SCF convergence          0.1000000E-05 Eh   :
          :  -> wf. convergence          0.1000000E-03 e    :
          :  Broyden damping             0.4000000          :
          ...................................................

 iter      E             dE          RMSdq      gap      omega  full diag
   1  -3472.2861246 -0.347229E+04  0.540E-05   10.82       0.0  T
   2  -3472.2861246 -0.188311E-08  0.418E-05   10.82      41.9  T
   3  -3472.2861246 -0.261207E-08  0.217E-05   10.82      80.6  T

   *** convergence criteria satisfied after 3 iterations ***

         #    Occupation            Energy/Eh            Energy/eV
      -------------------------------------------------------------
         1        2.0000           -0.6164672             -16.7749
       ...           ...                  ...                  ...
      3243        2.0000           -0.3832926             -10.4299
      3244        2.0000           -0.3828230             -10.4171
      3245        2.0000           -0.3824580             -10.4072
      3246        2.0000           -0.3823099             -10.4032
      3247        2.0000           -0.3821425             -10.3986
      3248        2.0000           -0.3813499             -10.3771
      3249        2.0000           -0.3811240             -10.3709 (HOMO)
      3250                          0.0165091               0.4492 (LUMO)
      3251                          0.0186114               0.5064
      3252                          0.0202255               0.5504
      3253                          0.0205864               0.5602
      3254                          0.0206198               0.5611
       ...                                ...                  ...
      6498                          0.3827398              10.4149
      -------------------------------------------------------------
                  HL-Gap            0.3976331 Eh           10.8201 eV
             Fermi-level           -0.1823075 Eh           -4.9608 eV

 SCC (total)                   0 d,  0 h,  7 min, 20.928 sec
 SCC setup                      ...        0 min,  1.694 sec (  0.384%)
 Dispersion                     ...        0 min,  3.915 sec (  0.888%)
 classical contributions        ...        0 min,  0.138 sec (  0.031%)
 integral evaluation            ...        0 min,  5.921 sec (  1.343%)
 iterations                     ...        3 min,  1.176 sec ( 41.090%)
 molecular gradient             ...        3 min, 59.525 sec ( 54.323%)
 printout                       ...        0 min,  8.559 sec (  1.941%)

         :::::::::::::::::::::::::::::::::::::::::::::::::::::
         ::                     SUMMARY                     ::
         :::::::::::::::::::::::::::::::::::::::::::::::::::::
         :: total energy           -3426.776981710584 Eh    ::
         :: total w/o Gsasa/hb     -3426.689679338258 Eh    ::
         :: gradient norm              0.629773244197 Eh/a0 ::
         :: HOMO-LUMO gap             10.820148486697 eV    ::
         ::.................................................::
         :: SCC energy             -3472.286124635262 Eh    ::
         :: -> isotropic ES            0.279718173975 Eh    ::
         :: -> anisotropic ES          1.280700299050 Eh    ::
         :: -> anisotropic XC          2.129115516095 Eh    ::
         :: -> dispersion             -4.310761329338 Eh    ::
         :: -> Gsolv                  -0.024123553809 Eh    ::
         ::    -> Gelec                0.063178818517 Eh    ::
         ::    -> Gsasa               -0.085490611981 Eh    ::
         ::    -> Ghb                 -0.003669203472 Eh    ::
         ::    -> Gshift               0.001857443127 Eh    ::
         :: repulsion energy          44.775826481578 Eh    ::
         :: add. restraining           0.000000000000 Eh    ::
         :: total charge              -0.000000000012 e     ::
         :::::::::::::::::::::::::::::::::::::::::::::::::::::

      ----------------------------------------------------------- 
     |              Fast Inertial Relaxation Engine              |
      ----------------------------------------------------------- 

          ...................................................
          :                      SETUP                      :
          :.................................................:
          :   energy convergence        0.5000000E-05 Eh    :
          :   grad. convergence         0.1000000E-02 Eh/a0 :
          :   optimization log               true           :
          :   writing optlog all                1     steps :
          :   Hessian reset                    20     steps :
          :   time step scaling                 5     steps :
          :   maximium step len.        1.0000000     a0    :
          :   initial time step         0.2500000     fs    :
          :   maximum time step         1.2500000     fs    :
          :   power reset thr           0.0000000     au    :
          :   alpha parameter           0.1000000           :
          :   BFGS update                   false           :
          :   preconditioning               false           :
          ...................................................

........................................................................
.............................. CYCLE    1 ..............................
........................................................................

 iter      E             dE          RMSdq      gap      omega  full diag
   1  -3472.5194940 -0.347252E+04  0.739E-03   10.85       0.0  T
   2  -3472.5195379 -0.439590E-04  0.388E-03   10.85       1.0  T
   3  -3472.5195383 -0.427759E-06  0.181E-03   10.85       1.0  T
   4  -3472.5195385 -0.156251E-06  0.223E-04   10.85       7.8  T
   5  -3472.5195385 -0.360492E-07  0.145E-04   10.85      12.1  T
     SCC iter.                  ...        4 min, 59.052 sec
     gradient                   ...        3 min, 59.099 sec
 * total energy  : -3426.8221060 Eh     change    :  -0.4512425E-01 Eh
   gradient norm :     0.5963087 Eh/a0  converged?    E=F G=F D=F
   time step     :     0.2500000 fs     power     :   0.2328802E-05
   step length   :     0.0738081 a0     speed     :   0.7141328E-02

........................................................................
.............................. CYCLE    2 ..............................
........................................................................

 iter      E             dE          RMSdq      gap      omega  full diag
   1  -3472.8633119 -0.347286E+04  0.108E-02   10.88       0.0  T
   2  -3472.8634059 -0.940101E-04  0.569E-03   10.88       1.0  T
   3  -3472.8634069 -0.986400E-06  0.265E-03   10.88       1.0  T
   4  -3472.8634073 -0.385016E-06  0.347E-04   10.88       5.1  T
   5  -3472.8634074 -0.875038E-07  0.232E-04   10.88       7.5  T
     SCC iter.                  ...        4 min, 52.759 sec
     gradient                   ...        3 min, 58.571 sec
 * total energy  : -3426.8841660 Eh     change    :  -0.6206006E-01 Eh
   gradient norm :     0.5479787 Eh/a0  converged?    E=F G=F D=F
   time step     :     0.2500000 fs     power     :   0.3150339E-05
   step length   :     0.1086704 a0     speed     :   0.1051445E-01

........................................................................
.............................. CYCLE    3 ..............................
........................................................................

 iter      E             dE          RMSdq      gap      omega  full diag
   1  -3473.3084915 -0.347331E+04  0.139E-02   10.91       0.0  T
   2  -3473.3086443 -0.152836E-03  0.729E-03   10.91       1.0  T
   3  -3473.3086460 -0.169711E-05  0.337E-03   10.91       1.0  T
   4  -3473.3086467 -0.660705E-06  0.456E-04   10.91       3.8  T
   5  -3473.3086468 -0.147927E-06  0.307E-04   10.91       5.7  T
     SCC iter.                  ...        5 min,  1.822 sec
     gradient                   ...        3 min, 58.488 sec
 * total energy  : -3426.9567213 Eh     change    :  -0.7255524E-01 Eh
   gradient norm :     0.4876681 Eh/a0  converged?    E=F G=F D=F
   time step     :     0.2500000 fs     power     :   0.3612515E-05
   step length   :     0.1406830 a0     speed     :   0.1361184E-01

........................................................................
.............................. CYCLE    4 ..............................
........................................................................

 iter      E             dE          RMSdq      gap      omega  full diag
   1  -3473.8434974 -0.347384E+04  0.164E-02   10.92       0.0  T
   2  -3473.8437079 -0.210501E-03  0.863E-03   10.91       1.0  T
   3  -3473.8437104 -0.250519E-05  0.396E-03   10.91       1.0  T
   4  -3473.8437114 -0.946903E-06  0.551E-04   10.91       3.2  T
   5  -3473.8437116 -0.206917E-06  0.370E-04   10.91       4.7  T
     SCC iter.                  ...        4 min, 58.145 sec
     gradient                   ...        3 min, 59.229 sec
 * total energy  : -3427.0325333 Eh     change    :  -0.7581200E-01 Eh
   gradient norm :     0.4197910 Eh/a0  converged?    E=F G=F D=F
   time step     :     0.2500000 fs     power     :   0.3686064E-05
   step length   :     0.1690057 a0     speed     :   0.1635221E-01

........................................................................
.............................. CYCLE    5 ..............................
........................................................................

 iter      E             dE          RMSdq      gap      omega  full diag
   1  -3474.4544425 -0.347445E+04  0.184E-02   10.92       0.0  T
   2  -3474.4546989 -0.256321E-03  0.965E-03   10.92       1.0  T
   3  -3474.4547022 -0.335245E-05  0.436E-03   10.92       1.0  T
   4  -3474.4547034 -0.120313E-05  0.631E-04   10.91       2.8  T
   5  -3474.4547037 -0.253026E-06  0.420E-04   10.91       4.2  T
   6  -3474.4547038 -0.169363E-06  0.193E-04   10.91       9.1  T
     SCC iter.                  ...        5 min, 58.905 sec
     gradient                   ...        4 min,  0.214 sec
 * total energy  : -3427.1045949 Eh     change    :  -0.7206166E-01 Eh
   gradient norm :     0.3510771 Eh/a0  converged?    E=F G=F D=F
   time step     :     0.2500000 fs     power     :   0.3400357E-05
   step length   :     0.1929140 a0     speed     :   0.1866546E-01

........................................................................
.............................. CYCLE    6 ..............................
........................................................................

 iter      E             dE          RMSdq      gap      omega  full diag
   1  -3475.1982821 -0.347520E+04  0.219E-02   10.92       0.0  T
   2  -3475.1986250 -0.342821E-03  0.115E-02   10.92       1.0  T
   3  -3475.1986300 -0.504296E-05  0.503E-03   10.92       1.0  T
   4  -3475.1986316 -0.160986E-05  0.753E-04   10.91       2.3  T
   5  -3475.1986319 -0.318608E-06  0.486E-04   10.91       3.6  T
   6  -3475.1986321 -0.188950E-06  0.205E-04   10.91       8.5  T
     SCC iter.                  ...        5 min, 57.017 sec
     gradient                   ...        3 min, 58.685 sec
 * total energy  : -3427.1731116 Eh     change    :  -0.6851666E-01 Eh
   gradient norm :     0.2850571 Eh/a0  converged?    E=F G=F D=F
   time step     :     0.2750000 fs     power     :   0.2763304E-05
   step length   :     0.2350801 a0     speed     :   0.2067751E-01

........................................................................
.............................. CYCLE    7 ..............................
........................................................................

 iter      E             dE          RMSdq      gap      omega  full diag
   1  -3476.0693552 -0.347607E+04  0.249E-02   10.91       0.0  T
   2  -3476.0697573 -0.402181E-03  0.131E-02   10.90       1.0  T
   3  -3476.0697647 -0.735067E-05  0.546E-03   10.91       1.0  T
   4  -3476.0697668 -0.206901E-05  0.884E-04   10.90       2.0  T
   5  -3476.0697671 -0.363534E-06  0.557E-04   10.90       3.1  T
   6  -3476.0697673 -0.209678E-06  0.213E-04   10.90       8.2  T
     SCC iter.                  ...        6 min,  1.812 sec
     gradient                   ...        3 min, 58.372 sec
 * total energy  : -3427.2300617 Eh     change    :  -0.5695015E-01 Eh
   gradient norm :     0.2418195 Eh/a0  converged?    E=F G=F D=F
   time step     :     0.3025000 fs     power     :   0.1872000E-05
   step length   :     0.2769883 a0     speed     :   0.2214885E-01

........................................................................
.............................. CYCLE    8 ..............................
........................................................................

 iter      E             dE          RMSdq      gap      omega  full diag
   1  -3477.0311394 -0.347703E+04  0.272E-02   10.90       0.0  T
   2  -3477.0315239 -0.384466E-03  0.144E-02   10.90       1.0  T
   3  -3477.0315338 -0.994976E-05  0.538E-03   10.90       1.0  T
   4  -3477.0315361 -0.230180E-05  0.989E-04   10.90       1.8  T
   5  -3477.0315364 -0.332161E-06  0.601E-04   10.89       2.9  T
   6  -3477.0315366 -0.190105E-06  0.196E-04   10.89       8.9  T
     SCC iter.                  ...        5 min, 56.063 sec
     gradient                   ...        3 min, 59.132 sec
 * total energy  : -3427.2701090 Eh     change    :  -0.4004725E-01 Eh
   gradient norm :     0.2366808 Eh/a0  converged?    E=F G=F D=F
   time step     :     0.3327500 fs     power     :   0.9670897E-06
   step length   :     0.3127279 a0     speed     :   0.2273336E-01

........................................................................
.............................. CYCLE    9 ..............................
........................................................................

 iter      E             dE          RMSdq      gap      omega  full diag
   1  -3478.0075285 -0.347801E+04  0.289E-02   10.91       0.0  T
   2  -3478.0078016 -0.273156E-03  0.157E-02   10.90       1.0  T
   3  -3478.0078137 -0.121299E-04  0.453E-03   10.90       1.0  T
   4  -3478.0078158 -0.205833E-05  0.104E-03   10.90       1.7  T
   5  -3478.0078160 -0.213038E-06  0.594E-04   10.90       3.0  T
   6  -3478.0078161 -0.129278E-06  0.148E-04   10.90      11.9  T
     SCC iter.                  ...        5 min, 54.178 sec
     gradient                   ...        3 min, 59.085 sec
 * total energy  : -3427.2939415 Eh     change    :  -0.2383256E-01 Eh
   gradient norm :     0.2508424 Eh/a0  converged?    E=F G=F D=F
   time step     :     0.3660250 fs     power     :   0.3073151E-06
   step length   :     0.3366219 a0     speed     :   0.2224574E-01

........................................................................
.............................. CYCLE   10 ..............................
........................................................................

 iter      E             dE          RMSdq      gap      omega  full diag
   1  -3478.9051101 -0.347891E+04  0.309E-02   10.91       0.0  T
   2  -3478.9052390 -0.128897E-03  0.175E-02   10.91       1.0  T
   3  -3478.9052522 -0.131660E-04  0.294E-03   10.91       1.0  T
   4  -3478.9052537 -0.153363E-05  0.104E-03   10.91       1.7  T
   5  -3478.9052538 -0.708742E-07  0.520E-04   10.91       3.4  T
   6  -3478.9052539 -0.678378E-07  0.780E-05   10.90      22.5  T
     SCC iter.                  ...        5 min, 57.036 sec
     gradient                   ...        4 min,  0.692 sec
 * total energy  : -3427.3062919 Eh     change    :  -0.1235038E-01 Eh
   gradient norm :     0.2506042 Eh/a0  converged?    E=F G=F D=F
   time step     :     0.4026275 fs     power     :  -0.7609516E-07
   step length   :     0.3498823 a0     speed     :   0.2102004E-01

........................................................................
.............................. CYCLE   11 ..............................
........................................................................
 * reset velocities

 iter      E             dE          RMSdq      gap      omega  full diag
   1  -3478.8881822 -0.347889E+04  0.115E-03   10.90       0.0  T
   2  -3478.8881829 -0.785607E-06  0.662E-04   10.90       2.6  T
   3  -3478.8881830 -0.387990E-08  0.265E-04   10.90       6.6  T
     SCC iter.                  ...        2 min, 57.221 sec
     gradient                   ...        3 min, 58.186 sec
 * total energy  : -3427.3086447 Eh     change    :  -0.2352767E-02 Eh
   gradient norm :     0.2435668 Eh/a0  converged?    E=F G=F D=F
   time step     :     0.2013138 fs     power     :   0.1528752E-06
   step length   :     0.0095224 a0     speed     :   0.1144159E-02

........................................................................
.............................. CYCLE   12 ..............................
........................................................................

 iter      E             dE          RMSdq      gap      omega  full diag
   1  -3478.8544792 -0.347885E+04  0.226E-03   10.90       0.0  T
   2  -3478.8544822 -0.304170E-05  0.130E-03   10.90       1.3  T
   3  -3478.8544823 -0.178902E-07  0.522E-04   10.90       3.4  T
   4  -3478.8544823 -0.851742E-08  0.445E-05   10.90      39.3  T
     SCC iter.                  ...        3 min, 56.194 sec
     gradient                   ...        3 min, 58.120 sec
 * total energy  : -3427.3130886 Eh     change    :  -0.4443905E-02 Eh
   gradient norm :     0.2297773 Eh/a0  converged?    E=F G=F D=F
   time step     :     0.2013138 fs     power     :   0.2843614E-06
   step length   :     0.0187772 a0     speed     :   0.2256179E-02

........................................................................
.............................. CYCLE   13 ..............................
........................................................................

 iter      E             dE          RMSdq      gap      omega  full diag
   1  -3478.8050214 -0.347881E+04  0.331E-03   10.90       0.0  T
   2  -3478.8050280 -0.658254E-05  0.191E-03   10.91       1.0  T
   3  -3478.8050280 -0.457167E-07  0.770E-04   10.91       2.3  T
   4  -3478.8050280 -0.241057E-07  0.758E-05   10.91      23.1  T
     SCC iter.                  ...        3 min, 55.650 sec
     gradient                   ...        3 min, 57.712 sec
 * total energy  : -3427.3191318 Eh     change    :  -0.6043213E-02 Eh
   gradient norm :     0.2096908 Eh/a0  converged?    E=F G=F D=F
   time step     :     0.2013138 fs     power     :   0.3800237E-06
   step length   :     0.0275075 a0     speed     :   0.3305161E-02

........................................................................
.............................. CYCLE   14 ..............................
........................................................................

 iter      E             dE          RMSdq      gap      omega  full diag
   1  -3478.7411224 -0.347874E+04  0.425E-03   10.91       0.0  T
   2  -3478.7411334 -0.109532E-04  0.245E-03   10.91       1.0  T
   3  -3478.7411334 -0.803716E-07  0.994E-04   10.91       1.8  T
   4  -3478.7411335 -0.436844E-07  0.102E-04   10.91      17.1  T
     SCC iter.                  ...        4 min,  4.254 sec
     gradient                   ...        3 min, 57.787 sec
 * total energy  : -3427.3261099 Eh     change    :  -0.6978082E-02 Eh
   gradient norm :     0.1840402 Eh/a0  converged?    E=F G=F D=F
   time step     :     0.2013138 fs     power     :   0.4296589E-06
   step length   :     0.0354718 a0     speed     :   0.4262110E-02

........................................................................
.............................. CYCLE   15 ..............................
........................................................................

 iter      E             dE          RMSdq      gap      omega  full diag
   1  -3478.6645340 -0.347866E+04  0.507E-03   10.91       0.0  T
   2  -3478.6645496 -0.156744E-04  0.292E-03   10.91       1.0  T
   3  -3478.6645498 -0.117867E-06  0.119E-03   10.91       1.5  T
   4  -3478.6645498 -0.647906E-07  0.125E-04   10.91      14.0  T
   5  -3478.6645498 -0.175205E-07  0.893E-05   10.91      19.6  T
     SCC iter.                  ...        4 min, 59.329 sec
     gradient                   ...        3 min, 58.357 sec
 * total energy  : -3427.3332649 Eh     change    :  -0.7155057E-02 Eh
   gradient norm :     0.1538224 Eh/a0  converged?    E=F G=F D=F
   time step     :     0.2013138 fs     power     :   0.4284840E-06
   step length   :     0.0424530 a0     speed     :   0.5100933E-02

........................................................................
.............................. CYCLE   16 ..............................
........................................................................

 iter      E             dE          RMSdq      gap      omega  full diag
   1  -3478.5774695 -0.347858E+04  0.573E-03   10.91       0.0  T
   2  -3478.5774897 -0.201699E-04  0.330E-03   10.91       1.0  T
   3  -3478.5774898 -0.138079E-06  0.135E-03   10.91       1.3  T
   4  -3478.5774899 -0.729074E-07  0.132E-04   10.91      13.3  T
   5  -3478.5774899 -0.200907E-07  0.923E-05   10.91      19.0  T
     SCC iter.                  ...        5 min,  4.265 sec
     gradient                   ...        3 min, 58.172 sec
 * total energy  : -3427.3398358 Eh     change    :  -0.6570871E-02 Eh
   gradient norm :     0.1205136 Eh/a0  converged?    E=F G=F D=F
   time step     :     0.2013138 fs     power     :   0.3780083E-06
   step length   :     0.0482616 a0     speed     :   0.5798873E-02

........................................................................
.............................. CYCLE   17 ..............................
........................................................................

 iter      E             dE          RMSdq      gap      omega  full diag
   1  -3478.4722855 -0.347847E+04  0.686E-03   10.91       0.0  T
   2  -3478.4723148 -0.293450E-04  0.396E-03   10.91       1.0  T
   3  -3478.4723150 -0.194257E-06  0.163E-03   10.91       1.1  T
   4  -3478.4723151 -0.101169E-06  0.156E-04   10.91      11.2  T
   5  -3478.4723151 -0.283853E-07  0.107E-04   10.91      16.4  T
     SCC iter.                  ...        4 min, 56.651 sec
     gradient                   ...        3 min, 58.928 sec
 * total energy  : -3427.3456194 Eh     change    :  -0.5783588E-02 Eh
   gradient norm :     0.0829723 Eh/a0  converged?    E=F G=F D=F
   time step     :     0.2214451 fs     power     :   0.2742625E-06
   step length   :     0.0585048 a0     speed     :   0.6390587E-02

........................................................................
.............................. CYCLE   18 ..............................
........................................................................

 iter      E             dE          RMSdq      gap      omega  full diag
   1  -3478.3508093 -0.347835E+04  0.786E-03   10.91       0.0  T
   2  -3478.3508484 -0.391533E-04  0.454E-03   10.91       1.0  T
   3  -3478.3508487 -0.255342E-06  0.188E-03   10.91       1.0  T
   4  -3478.3508488 -0.130689E-06  0.178E-04   10.91       9.8  T
   5  -3478.3508489 -0.373188E-07  0.120E-04   10.91      14.6  T
     SCC iter.                  ...        5 min,  2.953 sec
     gradient                   ...        4 min,  0.325 sec
 * total energy  : -3427.3494775 Eh     change    :  -0.3858046E-02 Eh
   gradient norm :     0.0506441 Eh/a0  converged?    E=F G=F D=F
   time step     :     0.2435896 fs     power     :   0.1232285E-06
   step length   :     0.0684415 a0     speed     :   0.6796356E-02

........................................................................
.............................. CYCLE   19 ..............................
........................................................................

 iter      E             dE          RMSdq      gap      omega  full diag
   1  -3478.2229027 -0.347822E+04  0.825E-03   10.91       0.0  T
   2  -3478.2229466 -0.439445E-04  0.478E-03   10.91       1.0  T
   3  -3478.2229469 -0.286278E-06  0.200E-03   10.91       1.0  T
   4  -3478.2229470 -0.141052E-06  0.187E-04   10.91       9.4  T
   5  -3478.2229471 -0.415171E-07  0.122E-04   10.91      14.4  T
     SCC iter.                  ...        5 min,  5.880 sec
     gradient                   ...        3 min, 59.171 sec
 * total energy  : -3427.3504930 Eh     change    :  -0.1015541E-02 Eh
   gradient norm :     0.0555250 Eh/a0  converged?    E=F G=F D=F
   time step     :     0.2679486 fs     power     :  -0.3795298E-07
   step length   :     0.0753918 a0     speed     :   0.6805935E-02

........................................................................
.............................. CYCLE   20 ..............................
........................................................................
 * reset velocities

 iter      E             dE          RMSdq      gap      omega  full diag
   1  -3478.2241389 -0.347822E+04  0.122E-04   10.91       0.0  T
   2  -3478.2241389 -0.635328E-08  0.807E-05   10.91      21.7  T
   3  -3478.2241389 -0.454565E-08  0.374E-05   10.91      46.8  T
     SCC iter.                  ...        3 min,  4.321 sec
     gradient                   ...        3 min, 59.766 sec
 * total energy  : -3427.3505447 Eh     change    :  -0.5172106E-04 Eh
   gradient norm :     0.0551764 Eh/a0  converged?    E=F G=F D=T
   time step     :     0.1339743 fs     power     :   0.5106436E-08
   step length   :     0.0009344 a0     speed     :   0.1687076E-03
 * RMSD in coord.:     0.0347414 a0     energy gain  -0.5735630E+00 Eh

........................................................................
.............................. CYCLE   21 ..............................
........................................................................

 iter      E             dE          RMSdq      gap      omega  full diag
   1  -3478.2304452 -0.347823E+04  0.545E-04   10.91       0.0  T
   2  -3478.2304453 -0.815412E-07  0.310E-04   10.91       5.6  T
   3  -3478.2304453 -0.768523E-09  0.824E-05   10.91      21.3  T
     SCC iter.                  ...        2 min, 58.270 sec
     gradient                   ...        3 min, 58.801 sec
 * total energy  : -3427.3508150 Eh     change    :  -0.2703365E-03 Eh
   gradient norm :     0.0535080 Eh/a0  converged?    E=F G=F D=F
   time step     :     0.2500000 fs     power     :   0.1412610E-07
   step length   :     0.0049769 a0     speed     :   0.4815421E-03

........................................................................
.............................. CYCLE   22 ..............................
........................................................................

 iter      E             dE          RMSdq      gap      omega  full diag
   1  -3478.2405395 -0.347824E+04  0.889E-04   10.91       0.0  T
   2  -3478.2405397 -0.209031E-06  0.508E-04   10.91       3.5  T
   3  -3478.2405397 -0.414502E-08  0.133E-04   10.91      13.2  T
     SCC iter.                  ...        3 min,  0.868 sec
     gradient                   ...        3 min, 59.251 sec
 * total energy  : -3427.3512383 Eh     change    :  -0.4232006E-03 Eh
   gradient norm :     0.0509804 Eh/a0  converged?    E=F G=F D=F
   time step     :     0.2500000 fs     power     :   0.2188416E-07
   step length   :     0.0081112 a0     speed     :   0.7847988E-03

........................................................................
.............................. CYCLE   23 ..............................
........................................................................

 iter      E             dE          RMSdq      gap      omega  full diag
   1  -3478.2539360 -0.347825E+04  0.120E-03   10.91       0.0  T
   2  -3478.2539364 -0.365803E-06  0.684E-04   10.91       2.6  T
   3  -3478.2539364 -0.996442E-08  0.176E-04   10.91       9.9  T
     SCC iter.                  ...        3 min,  6.314 sec
     gradient                   ...        4 min,  0.290 sec
 * total energy  : -3427.3517841 Eh     change    :  -0.5458002E-03 Eh
   gradient norm :     0.0479072 Eh/a0  converged?    E=F G=F D=F
   time step     :     0.2500000 fs     power     :   0.2794977E-07
   step length   :     0.0110913 a0     speed     :   0.1073139E-02

........................................................................
.............................. CYCLE   24 ..............................
........................................................................

 iter      E             dE          RMSdq      gap      omega  full diag
   1  -3478.2699535 -0.347827E+04  0.146E-03   10.91       0.0  T
   2  -3478.2699540 -0.515314E-06  0.835E-04   10.91       2.1  T
   3  -3478.2699540 -0.169307E-07  0.209E-04   10.91       8.4  T
     SCC iter.                  ...        2 min, 55.709 sec
     gradient                   ...        4 min,  5.037 sec
 * total energy  : -3427.3524186 Eh     change    :  -0.6345102E-03 Eh
   gradient norm :     0.0447201 Eh/a0  converged?    E=F G=F D=F
   time step     :     0.2500000 fs     power     :   0.3221171E-07
   step length   :     0.0138733 a0     speed     :   0.1342314E-02

........................................................................
.............................. CYCLE   25 ..............................
........................................................................

 iter      E             dE          RMSdq      gap      omega  full diag
   1  -3478.2877200 -0.347829E+04  0.167E-03   10.91       0.0  T
   2  -3478.2877206 -0.618346E-06  0.954E-04   10.91       1.8  T
   3  -3478.2877207 -0.241594E-07  0.228E-04   10.91       7.7  T
     SCC iter.                  ...        2 min, 58.633 sec
     gradient                   ...        4 min,  0.691 sec
 * total energy  : -3427.3531106 Eh     change    :  -0.6919968E-03 Eh
   gradient norm :     0.0419103 Eh/a0  converged?    E=F G=F D=F
   time step     :     0.2500000 fs     power     :   0.3491653E-07
   step length   :     0.0164275 a0     speed     :   0.1589447E-02

........................................................................
.............................. CYCLE   26 ..............................
........................................................................

 iter      E             dE          RMSdq      gap      omega  full diag
   1  -3478.3082047 -0.347831E+04  0.201E-03   10.91       0.0  T
   2  -3478.3082055 -0.788682E-06  0.115E-03   10.91       1.5  T
   3  -3478.3082055 -0.356799E-07  0.255E-04   10.91       6.9  T
   4  -3478.3082055 -0.140035E-07  0.697E-05   10.91      25.1  T
     SCC iter.                  ...        3 min, 55.798 sec
     gradient                   ...        3 min, 58.878 sec
 * total energy  : -3427.3539172 Eh     change    :  -0.8066660E-03 Eh
   gradient norm :     0.0397417 Eh/a0  converged?    E=F G=F D=F
   time step     :     0.2750000 fs     power     :   0.3671716E-07
   step length   :     0.0208768 a0     speed     :   0.1836312E-02

........................................................................
.............................. CYCLE   27 ..............................
........................................................................

 iter      E             dE          RMSdq      gap      omega  full diag
   1  -3478.3302378 -0.347833E+04  0.232E-03   10.91       0.0  T
   2  -3478.3302387 -0.863268E-06  0.133E-03   10.91       1.3  T
   3  -3478.3302387 -0.442228E-07  0.262E-04   10.91       6.7  T
   4  -3478.3302387 -0.175010E-07  0.769E-05   10.91      22.8  T
     SCC iter.                  ...        3 min, 56.112 sec
     gradient                   ...        3 min, 58.324 sec
 * total energy  : -3427.3548436 Eh     change    :  -0.9263611E-03 Eh
   gradient norm :     0.0387150 Eh/a0  converged?    E=F G=F D=F
   time step     :     0.3025000 fs     power     :   0.3825585E-07
   step length   :     0.0260021 a0     speed     :   0.2079206E-02

........................................................................
.............................. CYCLE   28 ..............................
........................................................................

 iter      E             dE          RMSdq      gap      omega  full diag
   1  -3478.3518235 -0.347835E+04  0.258E-03   10.91       0.0  T
   2  -3478.3518242 -0.743696E-06  0.148E-03   10.91       1.2  T
   3  -3478.3518243 -0.547520E-07  0.238E-04   10.91       7.4  T
   4  -3478.3518243 -0.205505E-07  0.841E-05   10.91      20.8  T
     SCC iter.                  ...        4 min,  3.523 sec
     gradient                   ...        4 min,  0.475 sec
 * total energy  : -3427.3559173 Eh     change    :  -0.1073712E-02 Eh
   gradient norm :     0.0387761 Eh/a0  converged?    E=F G=F D=F
   time step     :     0.3327500 fs     power     :   0.4056831E-07
   step length   :     0.0318919 a0     speed     :   0.2318344E-02

........................................................................
.............................. CYCLE   29 ..............................
........................................................................

 iter      E             dE          RMSdq      gap      omega  full diag
   1  -3478.3703314 -0.347837E+04  0.278E-03   10.91       0.0  T
   2  -3478.3703319 -0.474250E-06  0.161E-03   10.91       1.1  T
   3  -3478.3703320 -0.619598E-07  0.190E-04   10.91       9.2  T
   4  -3478.3703320 -0.233854E-07  0.881E-05   10.91      19.9  T
     SCC iter.                  ...        3 min, 56.399 sec
     gradient                   ...        3 min, 57.925 sec
 * total energy  : -3427.3571960 Eh     change    :  -0.1278666E-02 Eh
   gradient norm :     0.0390070 Eh/a0  converged?    E=F G=F D=F
   time step     :     0.3660250 fs     power     :   0.4442492E-07
   step length   :     0.0387707 a0     speed     :   0.2562172E-02

........................................................................
.............................. CYCLE   30 ..............................
........................................................................

 iter      E             dE          RMSdq      gap      omega  full diag
   1  -3478.3830417 -0.347838E+04  0.297E-03   10.91       0.0  T
   2  -3478.3830419 -0.286185E-06  0.174E-03   10.91       1.0  T
   3  -3478.3830420 -0.628988E-07  0.159E-04   10.91      11.0  T
   4  -3478.3830420 -0.275681E-07  0.877E-05   10.91      20.0  T
     SCC iter.                  ...        3 min, 59.895 sec
     gradient                   ...        3 min, 57.464 sec
 * total energy  : -3427.3587509 Eh     change    :  -0.1554978E-02 Eh
   gradient norm :     0.0380298 Eh/a0  converged?    E=F G=F D=F
   time step     :     0.4026275 fs     power     :   0.4943093E-07
   step length   :     0.0470428 a0     speed     :   0.2826213E-02

........................................................................
.............................. CYCLE   31 ..............................
........................................................................

 iter      E             dE          RMSdq      gap      omega  full diag
   1  -3478.3880334 -0.347839E+04  0.327E-03   10.91       0.0  T
   2  -3478.3880339 -0.549768E-06  0.194E-03   10.91       1.0  T
   3  -3478.3880340 -0.585901E-07  0.175E-04   10.91      10.0  T
   4  -3478.3880340 -0.330560E-07  0.811E-05   10.91      21.6  T
     SCC iter.                  ...        3 min, 56.722 sec
     gradient                   ...        3 min, 57.906 sec
 * total energy  : -3427.3606184 Eh     change    :  -0.1867435E-02 Eh
   gradient norm :     0.0348875 Eh/a0  converged?    E=F G=F D=F
   time step     :     0.4428903 fs     power     :   0.5358330E-07
   step length   :     0.0571852 a0     speed     :   0.3123219E-02

........................................................................
.............................. CYCLE   32 ..............................
........................................................................

 iter      E             dE          RMSdq      gap      omega  full diag
   1  -3478.3857204 -0.347839E+04  0.374E-03   10.91       0.0  T
   2  -3478.3857218 -0.145144E-05  0.224E-03   10.91       1.0  T
   3  -3478.3857219 -0.651662E-07  0.262E-04   10.91       6.7  T
   4  -3478.3857219 -0.373866E-07  0.815E-05   10.91      21.5  T
     SCC iter.                  ...        3 min, 56.644 sec
     gradient                   ...        3 min, 57.254 sec
 * total energy  : -3427.3627427 Eh     change    :  -0.2124351E-02 Eh
   gradient norm :     0.0302678 Eh/a0  converged?    E=F G=F D=F
   time step     :     0.4871793 fs     power     :   0.5417269E-07
   step length   :     0.0695149 a0     speed     :   0.3451471E-02

........................................................................
.............................. CYCLE   33 ..............................
........................................................................

 iter      E             dE          RMSdq      gap      omega  full diag
   1  -3478.3811257 -0.347838E+04  0.430E-03   10.91       0.0  T
   2  -3478.3811280 -0.234185E-05  0.259E-03   10.91       1.0  T
   3  -3478.3811281 -0.780815E-07  0.331E-04   10.91       5.3  T
   4  -3478.3811281 -0.407013E-07  0.848E-05   10.91      20.7  T
     SCC iter.                  ...        3 min, 53.573 sec
     gradient                   ...        3 min, 58.858 sec
 * total energy  : -3427.3649880 Eh     change    :  -0.2245260E-02 Eh
   gradient norm :     0.0273123 Eh/a0  converged?    E=F G=F D=F
   time step     :     0.5358972 fs     power     :   0.5060579E-07
   step length   :     0.0839283 a0     speed     :   0.3788282E-02

........................................................................
.............................. CYCLE   34 ..............................
........................................................................

 iter      E             dE          RMSdq      gap      omega  full diag
   1  -3478.3857889 -0.347839E+04  0.485E-03   10.91       0.0  T
   2  -3478.3857907 -0.183328E-05  0.292E-03   10.91       1.0  T
   3  -3478.3857908 -0.988080E-07  0.251E-04   10.91       7.0  T
   4  -3478.3857909 -0.401064E-07  0.896E-05   10.91      19.6  T
     SCC iter.                  ...        3 min, 54.465 sec
     gradient                   ...        3 min, 57.747 sec
 * total energy  : -3427.3672850 Eh     change    :  -0.2296991E-02 Eh
   gradient norm :     0.0277924 Eh/a0  converged?    E=F G=F D=F
   time step     :     0.5894869 fs     power     :   0.4675531E-07
   step length   :     0.0996439 a0     speed     :   0.4088762E-02

........................................................................
.............................. CYCLE   35 ..............................
........................................................................

 iter      E             dE          RMSdq      gap      omega  full diag
   1  -3478.4131334 -0.347841E+04  0.556E-03   10.92       0.0  T
   2  -3478.4131339 -0.503419E-06  0.329E-03   10.92       1.0  T
   3  -3478.4131341 -0.141558E-06  0.175E-04   10.92      10.0  T
   4  -3478.4131341 -0.286677E-07  0.101E-04   10.92      17.3  T
     SCC iter.                  ...        4 min,  1.871 sec
     gradient                   ...        4 min,  6.507 sec
 * total energy  : -3427.3697369 Eh     change    :  -0.2451962E-02 Eh
   gradient norm :     0.0271794 Eh/a0  converged?    E=F G=F D=F
   time step     :     0.6484356 fs     power     :   0.4592744E-07
   step length   :     0.1161539 a0     speed     :   0.4332933E-02

........................................................................
.............................. CYCLE   36 ..............................
........................................................................

 iter      E             dE          RMSdq      gap      omega  full diag
   1  -3478.4689946 -0.347847E+04  0.667E-03   10.92       0.0  T
   2  -3478.4689959 -0.126392E-05  0.387E-03   10.92       1.0  T
   3  -3478.4689961 -0.195837E-06  0.246E-04   10.92       7.1  T
   4  -3478.4689961 -0.257764E-07  0.117E-04   10.92      15.0  T
     SCC iter.                  ...        3 min, 56.169 sec
     gradient                   ...        3 min, 59.948 sec
 * total energy  : -3427.3723745 Eh     change    :  -0.2637537E-02 Eh
   gradient norm :     0.0230480 Eh/a0  converged?    E=F G=F D=F
   time step     :     0.7132792 fs     power     :   0.4393178E-07
   step length   :     0.1347535 a0     speed     :   0.4569782E-02

........................................................................
.............................. CYCLE   37 ..............................
........................................................................

 iter      E             dE          RMSdq      gap      omega  full diag
   1  -3478.5413266 -0.347854E+04  0.754E-03   10.92       0.0  T
   2  -3478.5413296 -0.299358E-05  0.433E-03   10.92       1.0  T
   3  -3478.5413298 -0.215554E-06  0.387E-04   10.92       4.5  T
   4  -3478.5413298 -0.347472E-07  0.122E-04   10.92      14.4  T
     SCC iter.                  ...        3 min, 52.010 sec
     gradient                   ...        4 min,  0.746 sec
 * total energy  : -3427.3749814 Eh     change    :  -0.2606923E-02 Eh
   gradient norm :     0.0227867 Eh/a0  converged?    E=F G=F D=F
   time step     :     0.7846071 fs     power     :   0.3775527E-07
   step length   :     0.1561201 a0     speed     :   0.4813065E-02

........................................................................
.............................. CYCLE   38 ..............................
........................................................................

 iter      E             dE          RMSdq      gap      omega  full diag
   1  -3478.5950085 -0.347860E+04  0.718E-03   10.92       0.0  T
   2  -3478.5950093 -0.866797E-06  0.418E-03   10.92       1.0  T
   3  -3478.5950095 -0.183370E-06  0.202E-04   10.92       8.7  T
   4  -3478.5950095 -0.196969E-07  0.986E-05   10.92      17.8  T
     SCC iter.                  ...        4 min,  1.503 sec
     gradient                   ...        3 min, 59.659 sec
 * total energy  : -3427.3776325 Eh     change    :  -0.2651079E-02 Eh
   gradient norm :     0.0247901 Eh/a0  converged?    E=F G=F D=F
   time step     :     0.8630678 fs     power     :   0.3618288E-07
   step length   :     0.1777102 a0     speed     :   0.4980609E-02

........................................................................
.............................. CYCLE   39 ..............................
........................................................................

 iter      E             dE          RMSdq      gap      omega  full diag
   1  -3478.6067462 -0.347861E+04  0.666E-03   10.93       0.0  T
   2  -3478.6067485 -0.237394E-05  0.399E-03   10.93       1.0  T
   3  -3478.6067487 -0.220032E-06  0.250E-04   10.93       7.0  T
   4  -3478.6067488 -0.293535E-07  0.122E-04   10.93      14.4  T
     SCC iter.                  ...        3 min, 58.609 sec
     gradient                   ...        3 min, 59.871 sec
 * total energy  : -3427.3805969 Eh     change    :  -0.2964397E-02 Eh
   gradient norm :     0.0216585 Eh/a0  converged?    E=F G=F D=F
   time step     :     0.9493746 fs     power     :   0.3665282E-07
   step length   :     0.2012759 a0     speed     :   0.5128251E-02

........................................................................
.............................. CYCLE   40 ..............................
........................................................................

 iter      E             dE          RMSdq      gap      omega  full diag
   1  -3478.5966691 -0.347860E+04  0.672E-03   10.93       0.0  T
   2  -3478.5966742 -0.510279E-05  0.404E-03   10.93       1.0  T
   3  -3478.5966745 -0.324364E-06  0.442E-04   10.93       4.0  T
   4  -3478.5966746 -0.588630E-07  0.170E-04   10.93      10.3  T
     SCC iter.                  ...        3 min, 52.369 sec
     gradient                   ...        3 min, 59.459 sec
 * total energy  : -3427.3837157 Eh     change    :  -0.3118791E-02 Eh
   gradient norm :     0.0239569 Eh/a0  converged?    E=F G=F D=F
   time step     :     1.0443120 fs     power     :   0.3438788E-07
   step length   :     0.2294551 a0     speed     :   0.5314745E-02

........................................................................
.............................. CYCLE   41 ..............................
........................................................................

 iter      E             dE          RMSdq      gap      omega  full diag
   1  -3478.6200147 -0.347862E+04  0.754E-03   10.94       0.0  T
   2  -3478.6200156 -0.957099E-06  0.442E-03   10.94       1.0  T
   3  -3478.6200160 -0.317408E-06  0.257E-04   10.94       6.8  T
   4  -3478.6200160 -0.359996E-07  0.155E-04   10.94      11.3  T
     SCC iter.                  ...        3 min, 50.803 sec
     gradient                   ...        3 min, 58.826 sec
 * total energy  : -3427.3873415 Eh     change    :  -0.3625835E-02 Eh
   gradient norm :     0.0218138 Eh/a0  converged?    E=F G=F D=F
   time step     :     1.1487432 fs     power     :   0.3813434E-07
   step length   :     0.2598455 a0     speed     :   0.5471511E-02

........................................................................
.............................. CYCLE   42 ..............................
........................................................................

 iter      E             dE          RMSdq      gap      omega  full diag
   1  -3478.6708261 -0.347867E+04  0.892E-03   10.95       0.0  T
   2  -3478.6708299 -0.372588E-05  0.517E-03   10.95       1.0  T
   3  -3478.6708302 -0.298816E-06  0.394E-04   10.95       4.4  T
   4  -3478.6708302 -0.430191E-07  0.136E-04   10.95      12.9  T
     SCC iter.                  ...        4 min,  1.473 sec
     gradient                   ...        3 min, 57.257 sec
 * total energy  : -3427.3913012 Eh     change    :  -0.3959731E-02 Eh
   gradient norm :     0.0222276 Eh/a0  converged?    E=F G=F D=F
   time step     :     1.2500000 fs     power     :   0.3621660E-07
   step length   :     0.2948481 a0     speed     :   0.5705627E-02
 * RMSD in coord.:     0.0340824 a0     energy gain  -0.4075652E-01 Eh

........................................................................
.............................. CYCLE   43 ..............................
........................................................................

 iter      E             dE          RMSdq      gap      omega  full diag
   1  -3478.6738498 -0.347867E+04  0.147E-03   10.95       0.0  T
   2  -3478.6738498 -0.434407E-07  0.860E-04   10.95       2.0  T
   3  -3478.6738498 -0.137843E-07  0.577E-05   10.95      30.3  T
     SCC iter.                  ...        2 min, 59.416 sec
     gradient                   ...        3 min, 57.757 sec
 * total energy  : -3427.3920621 Eh     change    :  -0.7608958E-03 Eh
   gradient norm :     0.0220550 Eh/a0  converged?    E=F G=F D=F
   time step     :     0.2500000 fs     power     :   0.3967283E-07
   step length   :     0.0571520 a0     speed     :   0.5529760E-02

........................................................................
.............................. CYCLE   44 ..............................
........................................................................

 iter      E             dE          RMSdq      gap      omega  full diag
   1  -3478.6705233 -0.347867E+04  0.142E-03   10.95       0.0  T
   2  -3478.6705235 -0.184243E-06  0.837E-04   10.95       2.1  T
   3  -3478.6705235 -0.145283E-07  0.907E-05   10.95      19.3  T
     SCC iter.                  ...        2 min, 55.295 sec
     gradient                   ...        4 min,  0.138 sec
 * total energy  : -3427.3928719 Eh     change    :  -0.8097447E-03 Eh
   gradient norm :     0.0203896 Eh/a0  converged?    E=F G=F D=F
   time step     :     0.2500000 fs     power     :   0.4204615E-07
   step length   :     0.0558778 a0     speed     :   0.5406474E-02

........................................................................
.............................. CYCLE   45 ..............................
........................................................................

 iter      E             dE          RMSdq      gap      omega  full diag
   1  -3478.6626970 -0.347866E+04  0.156E-03   10.95       0.0  T
   2  -3478.6626975 -0.421941E-06  0.913E-04   10.95       1.9  T
   3  -3478.6626975 -0.176774E-07  0.160E-04   10.95      11.0  T
     SCC iter.                  ...        2 min, 57.457 sec
     gradient                   ...        3 min, 59.623 sec
 * total energy  : -3427.3936957 Eh     change    :  -0.8238678E-03 Eh
   gradient norm :     0.0183028 Eh/a0  converged?    E=F G=F D=F
   time step     :     0.2500000 fs     power     :   0.4225918E-07
   step length   :     0.0552214 a0     speed     :   0.5342969E-02

........................................................................
.............................. CYCLE   46 ..............................
........................................................................

 iter      E             dE          RMSdq      gap      omega  full diag
   1  -3478.6533177 -0.347865E+04  0.169E-03   10.95       0.0  T
   2  -3478.6533183 -0.528429E-06  0.986E-04   10.95       1.8  T
   3  -3478.6533183 -0.194750E-07  0.183E-04   10.95       9.6  T
     SCC iter.                  ...        2 min, 58.250 sec
     gradient                   ...        3 min, 58.069 sec
 * total energy  : -3427.3945000 Eh     change    :  -0.8042380E-03 Eh
   gradient norm :     0.0172182 Eh/a0  converged?    E=F G=F D=F
   time step     :     0.2500000 fs     power     :   0.4092208E-07
   step length   :     0.0550442 a0     speed     :   0.5325827E-02

........................................................................
.............................. CYCLE   47 ..............................
........................................................................

 iter      E             dE          RMSdq      gap      omega  full diag
   1  -3478.6459378 -0.347865E+04  0.171E-03   10.95       0.0  T
   2  -3478.6459382 -0.386642E-06  0.100E-03   10.95       1.8  T
   3  -3478.6459382 -0.178147E-07  0.144E-04   10.95      12.2  T
   4  -3478.6459382 -0.589489E-08  0.399E-05   10.95      43.9  T
     SCC iter.                  ...        3 min, 58.236 sec
     gradient                   ...        4 min,  4.849 sec
 * total energy  : -3427.3952773 Eh     change    :  -0.7772793E-03 Eh
   gradient norm :     0.0173882 Eh/a0  converged?    E=F G=F D=F
   time step     :     0.2500000 fs     power     :   0.3970690E-07
   step length   :     0.0549690 a0     speed     :   0.5318544E-02

........................................................................
.............................. CYCLE   48 ..............................
........................................................................

 iter      E             dE          RMSdq      gap      omega  full diag
   1  -3478.6430221 -0.347864E+04  0.184E-03   10.95       0.0  T
   2  -3478.6430223 -0.190011E-06  0.108E-03   10.95       1.6  T
   3  -3478.6430223 -0.153714E-07  0.866E-05   10.95      20.2  T
   4  -3478.6430223 -0.585669E-08  0.313E-05   10.95      56.1  T
     SCC iter.                  ...        4 min,  2.129 sec
     gradient                   ...        3 min, 59.289 sec
 * total energy  : -3427.3961188 Eh     change    :  -0.8415664E-03 Eh
   gradient norm :     0.0176411 Eh/a0  converged?    E=F G=F D=F
   time step     :     0.2750000 fs     power     :   0.3937197E-07
   step length   :     0.0602872 a0     speed     :   0.5302831E-02

........................................................................
.............................. CYCLE   49 ..............................
........................................................................

 iter      E             dE          RMSdq      gap      omega  full diag
   1  -3478.6469492 -0.347865E+04  0.203E-03   10.96       0.0  T
   2  -3478.6469492 -0.718637E-07  0.119E-03   10.96       1.5  T
   3  -3478.6469493 -0.172781E-07  0.623E-05   10.96      28.1  T
   4  -3478.6469493 -0.499267E-08  0.289E-05   10.96      60.7  T
     SCC iter.                  ...        3 min, 59.218 sec
     gradient                   ...        3 min, 59.961 sec
 * total energy  : -3427.3970428 Eh     change    :  -0.9240197E-03 Eh
   gradient norm :     0.0167375 Eh/a0  converged?    E=F G=F D=F
   time step     :     0.3025000 fs     power     :   0.3934575E-07
   step length   :     0.0661521 a0     speed     :   0.5289726E-02

........................................................................
.............................. CYCLE   50 ..............................
........................................................................

 iter      E             dE          RMSdq      gap      omega  full diag
   1  -3478.6582771 -0.347866E+04  0.231E-03   10.96       0.0  T
   2  -3478.6582773 -0.232381E-06  0.135E-03   10.96       1.3  T
   3  -3478.6582773 -0.238883E-07  0.954E-05   10.96      18.4  T
   4  -3478.6582773 -0.520822E-08  0.370E-05   10.96      47.3  T
     SCC iter.                  ...        3 min, 53.930 sec
     gradient                   ...        3 min, 59.700 sec
 * total energy  : -3427.3980404 Eh     change    :  -0.9975958E-03 Eh
   gradient norm :     0.0147469 Eh/a0  converged?    E=F G=F D=F
   time step     :     0.3327500 fs     power     :   0.3814884E-07
   step length   :     0.0730059 a0     speed     :   0.5307069E-02

........................................................................
.............................. CYCLE   51 ..............................
........................................................................

 iter      E             dE          RMSdq      gap      omega  full diag
   1  -3478.6743727 -0.347867E+04  0.256E-03   10.96       0.0  T
   2  -3478.6743732 -0.500833E-06  0.149E-03   10.96       1.2  T
   3  -3478.6743732 -0.319051E-07  0.151E-04   10.96      11.6  T
   4  -3478.6743732 -0.682257E-08  0.466E-05   10.96      37.6  T
     SCC iter.                  ...        3 min, 54.587 sec
     gradient                   ...        4 min,  1.108 sec
 * total energy  : -3427.3990744 Eh     change    :  -0.1033926E-02 Eh
   gradient norm :     0.0136864 Eh/a0  converged?    E=F G=F D=F
   time step     :     0.3660250 fs     power     :   0.3536080E-07
   step length   :     0.0812047 a0     speed     :   0.5366429E-02

........................................................................
.............................. CYCLE   52 ..............................
........................................................................

 iter      E             dE          RMSdq      gap      omega  full diag
   1  -3478.6880455 -0.347869E+04  0.259E-03   10.96       0.0  T
   2  -3478.6880458 -0.368524E-06  0.151E-03   10.96       1.2  T
   3  -3478.6880459 -0.345358E-07  0.121E-04   10.96      14.5  T
   4  -3478.6880459 -0.635600E-08  0.461E-05   10.96      38.0  T
     SCC iter.                  ...        4 min,  2.526 sec
     gradient                   ...        4 min,  1.136 sec
 * total energy  : -3427.4001329 Eh     change    :  -0.1058562E-02 Eh
   gradient norm :     0.0144625 Eh/a0  converged?    E=F G=F D=F
   time step     :     0.4026275 fs     power     :   0.3299200E-07
   step length   :     0.0902455 a0     speed     :   0.5421722E-02

........................................................................
.............................. CYCLE   53 ..............................
........................................................................

 iter      E             dE          RMSdq      gap      omega  full diag
   1  -3478.6918838 -0.347869E+04  0.251E-03   10.96       0.0  T
   2  -3478.6918840 -0.114223E-06  0.147E-03   10.96       1.2  T
   3  -3478.6918840 -0.344157E-07  0.788E-05   10.96      22.2  T
   4  -3478.6918840 -0.532054E-08  0.425E-05   10.96      41.2  T
     SCC iter.                  ...        4 min,  0.926 sec
     gradient                   ...        4 min,  0.348 sec
 * total energy  : -3427.4012554 Eh     change    :  -0.1122519E-02 Eh
   gradient norm :     0.0143327 Eh/a0  converged?    E=F G=F D=F
   time step     :     0.4428903 fs     power     :   0.3216681E-07
   step length   :     0.0994140 a0     speed     :   0.5429582E-02

........................................................................
.............................. CYCLE   54 ..............................
........................................................................

 iter      E             dE          RMSdq      gap      omega  full diag
   1  -3478.6835381 -0.347868E+04  0.260E-03   10.97       0.0  T
   2  -3478.6835386 -0.494140E-06  0.153E-03   10.97       1.1  T
   3  -3478.6835387 -0.439309E-07  0.135E-04   10.97      12.9  T
   4  -3478.6835387 -0.747923E-08  0.532E-05   10.97      32.9  T
     SCC iter.                  ...        3 min, 53.966 sec
     gradient                   ...        3 min, 59.335 sec
 * total energy  : -3427.4024544 Eh     change    :  -0.1198932E-02 Eh
   gradient norm :     0.0127577 Eh/a0  converged?    E=F G=F D=F
   time step     :     0.4871793 fs     power     :   0.3090763E-07
   step length   :     0.1095798 a0     speed     :   0.5440723E-02

........................................................................
.............................. CYCLE   55 ..............................
........................................................................

 iter      E             dE          RMSdq      gap      omega  full diag
   1  -3478.6695854 -0.347867E+04  0.268E-03   10.97       0.0  T
   2  -3478.6695863 -0.916736E-06  0.158E-03   10.97       1.1  T
   3  -3478.6695864 -0.576238E-07  0.214E-04   10.97       8.2  T
   4  -3478.6695864 -0.110490E-07  0.687E-05   10.97      25.5  T
     SCC iter.                  ...        4 min,  0.715 sec
     gradient                   ...        3 min, 59.258 sec
 * total energy  : -3427.4036950 Eh     change    :  -0.1240585E-02 Eh
   gradient norm :     0.0131589 Eh/a0  converged?    E=F G=F D=F
   time step     :     0.5358972 fs     power     :   0.2876565E-07
   step length   :     0.1215130 a0     speed     :   0.5484745E-02

........................................................................
.............................. CYCLE   56 ..............................
........................................................................

 iter      E             dE          RMSdq      gap      omega  full diag
   1  -3478.6651084 -0.347867E+04  0.255E-03   10.97       0.0  T
   2  -3478.6651087 -0.336754E-06  0.150E-03   10.97       1.2  T
   3  -3478.6651088 -0.550508E-07  0.129E-04   10.97      13.6  T
   4  -3478.6651088 -0.968157E-08  0.668E-05   10.97      26.2  T
     SCC iter.                  ...        3 min, 54.715 sec
     gradient                   ...        3 min, 59.702 sec
 * total energy  : -3427.4050150 Eh     change    :  -0.1320028E-02 Eh
   gradient norm :     0.0138096 Eh/a0  converged?    E=F G=F D=F
   time step     :     0.5894869 fs     power     :   0.2838990E-07
   step length   :     0.1338943 a0     speed     :   0.5494182E-02

........................................................................
.............................. CYCLE   57 ..............................
........................................................................

 iter      E             dE          RMSdq      gap      omega  full diag
   1  -3478.6784495 -0.347868E+04  0.287E-03   10.98       0.0  T
   2  -3478.6784498 -0.375713E-06  0.167E-03   10.98       1.0  T
   3  -3478.6784499 -0.442888E-07  0.152E-04   10.98      11.5  T
   4  -3478.6784499 -0.130449E-07  0.603E-05   10.98      29.1  T
     SCC iter.                  ...        3 min, 54.516 sec
     gradient                   ...        3 min, 59.403 sec
 * total energy  : -3427.4064639 Eh     change    :  -0.1448957E-02 Eh
   gradient norm :     0.0122986 Eh/a0  converged?    E=F G=F D=F
   time step     :     0.6484356 fs     power     :   0.2816600E-07
   step length   :     0.1473691 a0     speed     :   0.5497367E-02

........................................................................
.............................. CYCLE   58 ..............................
........................................................................

 iter      E             dE          RMSdq      gap      omega  full diag
   1  -3478.7020597 -0.347870E+04  0.326E-03   10.98       0.0  T
   2  -3478.7020604 -0.695792E-06  0.189E-03   10.98       1.0  T
   3  -3478.7020605 -0.459099E-07  0.201E-04   10.98       8.7  T
   4  -3478.7020605 -0.131522E-07  0.612E-05   10.98      28.6  T
     SCC iter.                  ...        3 min, 57.106 sec
     gradient                   ...        3 min, 58.370 sec
 * total energy  : -3427.4080023 Eh     change    :  -0.1538392E-02 Eh
   gradient norm :     0.0129581 Eh/a0  converged?    E=F G=F D=F
   time step     :     0.7132792 fs     power     :   0.2692293E-07
   step length   :     0.1635800 a0     speed     :   0.5547353E-02

........................................................................
.............................. CYCLE   59 ..............................
........................................................................

 iter      E             dE          RMSdq      gap      omega  full diag
   1  -3478.7151701 -0.347872E+04  0.316E-03   10.99       0.0  T
   2  -3478.7151703 -0.253649E-06  0.188E-03   10.99       1.0  T
   3  -3478.7151704 -0.609302E-07  0.126E-04   10.99      13.9  T
   4  -3478.7151704 -0.105733E-07  0.734E-05   10.99      23.9  T
     SCC iter.                  ...        3 min, 54.246 sec
     gradient                   ...        3 min, 59.238 sec
 * total energy  : -3427.4096847 Eh     change    :  -0.1682328E-02 Eh
   gradient norm :     0.0122861 Eh/a0  converged?    E=F G=F D=F
   time step     :     0.7846071 fs     power     :   0.2722357E-07
   step length   :     0.1807568 a0     speed     :   0.5572595E-02

........................................................................
.............................. CYCLE   60 ..............................
........................................................................

 iter      E             dE          RMSdq      gap      omega  full diag
   1  -3478.7158880 -0.347872E+04  0.345E-03   10.99       0.0  T
   2  -3478.7158894 -0.140533E-05  0.209E-03   10.99       1.0  T
   3  -3478.7158895 -0.810564E-07  0.244E-04   10.99       7.2  T
   4  -3478.7158895 -0.199734E-07  0.896E-05   10.99      19.6  T
     SCC iter.                  ...        4 min,  6.013 sec
     gradient                   ...        3 min, 59.078 sec
 * total energy  : -3427.4114946 Eh     change    :  -0.1809894E-02 Eh
   gradient norm :     0.0115099 Eh/a0  converged?    E=F G=F D=F
   time step     :     0.8630678 fs     power     :   0.2589232E-07
   step length   :     0.2010145 a0     speed     :   0.5633750E-02

........................................................................
.............................. CYCLE   61 ..............................
........................................................................

 iter      E             dE          RMSdq      gap      omega  full diag
   1  -3478.7352706 -0.347874E+04  0.404E-03   11.00       0.0  T
   2  -3478.7352709 -0.329103E-06  0.240E-03   11.00       1.0  T
   3  -3478.7352710 -0.688160E-07  0.132E-04   11.00      13.3  T
   4  -3478.7352710 -0.113200E-07  0.704E-05   11.00      24.9  T
     SCC iter.                  ...        4 min,  4.926 sec
     gradient                   ...        3 min, 59.387 sec
 * total energy  : -3427.4134094 Eh     change    :  -0.1914864E-02 Eh
   gradient norm :     0.0109241 Eh/a0  converged?    E=F G=F D=F
   time step     :     0.9493746 fs     power     :   0.2523085E-07
   step length   :     0.2238088 a0     speed     :   0.5702361E-02

........................................................................
.............................. CYCLE   62 ..............................
........................................................................

 iter      E             dE          RMSdq      gap      omega  full diag
   1  -3478.7799764 -0.347878E+04  0.551E-03   11.01       0.0  T
   2  -3478.7799777 -0.129855E-05  0.319E-03   11.01       1.0  T
   3  -3478.7799778 -0.905948E-07  0.253E-04   11.01       6.9  T
   4  -3478.7799778 -0.162040E-07  0.771E-05   11.01      22.7  T
     SCC iter.                  ...        3 min, 58.982 sec
     gradient                   ...        3 min, 59.310 sec
 * total energy  : -3427.4153875 Eh     change    :  -0.1978064E-02 Eh
   gradient norm :     0.0106082 Eh/a0  converged?    E=F G=F D=F
   time step     :     1.0443120 fs     power     :   0.2271306E-07
   step length   :     0.2498073 a0     speed     :   0.5786155E-02

........................................................................
.............................. CYCLE   63 ..............................
........................................................................

 iter      E             dE          RMSdq      gap      omega  full diag
   1  -3478.7928135 -0.347879E+04  0.514E-03   11.01       0.0  T
   2  -3478.7928145 -0.100916E-05  0.305E-03   11.01       1.0  T
   3  -3478.7928146 -0.767618E-07  0.185E-04   11.01       9.5  T
   4  -3478.7928146 -0.293653E-07  0.753E-05   11.01      23.3  T
     SCC iter.                  ...        4 min,  1.506 sec
     gradient                   ...        3 min, 57.962 sec
 * total energy  : -3427.4173941 Eh     change    :  -0.2006609E-02 Eh
   gradient norm :     0.0089647 Eh/a0  converged?    E=F G=F D=F
   time step     :     1.1487432 fs     power     :   0.2109333E-07
   step length   :     0.2772805 a0     speed     :   0.5838637E-02

........................................................................
.............................. CYCLE   64 ..............................
........................................................................

 iter      E             dE          RMSdq      gap      omega  full diag
   1  -3478.7937689 -0.347879E+04  0.527E-03   11.02       0.0  T
   2  -3478.7937703 -0.141439E-05  0.314E-03   11.02       1.0  T
   3  -3478.7937704 -0.794976E-07  0.204E-04   11.02       8.6  T
   4  -3478.7937704 -0.280984E-07  0.783E-05   11.02      22.4  T
     SCC iter.                  ...        3 min, 56.151 sec
     gradient                   ...        3 min, 58.580 sec
 * total energy  : -3427.4193552 Eh     change    :  -0.1961075E-02 Eh
   gradient norm :     0.0104142 Eh/a0  converged?    E=F G=F D=F
   time step     :     1.2500000 fs     power     :   0.1863831E-07
   step length   :     0.3056885 a0     speed     :   0.5915400E-02

........................................................................
.............................. CYCLE   65 ..............................
........................................................................

 iter      E             dE          RMSdq      gap      omega  full diag
   1  -3478.8346985 -0.347883E+04  0.608E-03   11.03       0.0  T
   2  -3478.8347004 -0.192679E-05  0.352E-03   11.03       1.0  T
   3  -3478.8347005 -0.766827E-07  0.309E-04   11.03       5.7  T
   4  -3478.8347005 -0.319983E-07  0.786E-05   11.03      22.3  T
     SCC iter.                  ...        3 min, 56.891 sec
     gradient                   ...        3 min, 58.804 sec
 * total energy  : -3427.4211585 Eh     change    :  -0.1803326E-02 Eh
   gradient norm :     0.0106122 Eh/a0  converged?    E=F G=F D=F
   time step     :     1.2500000 fs     power     :   0.1668874E-07
   step length   :     0.3044754 a0     speed     :   0.5891926E-02

........................................................................
.............................. CYCLE   66 ..............................
........................................................................

 iter      E             dE          RMSdq      gap      omega  full diag
   1  -3478.8329360 -0.347883E+04  0.455E-03   11.04       0.0  T
   2  -3478.8329375 -0.152988E-05  0.272E-03   11.04       1.0  T
   3  -3478.8329376 -0.836367E-07  0.229E-04   11.04       7.6  T
   4  -3478.8329376 -0.249624E-07  0.897E-05   11.04      19.5  T
     SCC iter.                  ...        3 min, 56.961 sec
     gradient                   ...        3 min, 59.493 sec
 * total energy  : -3427.4228672 Eh     change    :  -0.1708685E-02 Eh
   gradient norm :     0.0089227 Eh/a0  converged?    E=F G=F D=F
[...]
  3011   6 C     3012   6 C                                       1.5265748
  3012   6 C     3013   6 C                                       1.5262433
  3013   6 C     3014   6 C                                       1.5264931
  3014   6 C     3015   6 C                                       1.5261443
  3015   6 C     3016   6 C                                       1.5235876
  3015   6 C     3017   1 H                                       1.0934941
  3015   6 C     3018   1 H                                       1.0922109
  3014   6 C     3019   1 H                                       1.0929011
  3014   6 C     3020   1 H                                       1.0934979
  3013   6 C     3021   1 H                                       1.0926700
  3013   6 C     3022   1 H                                       1.0932832
  3012   6 C     3023   1 H                                       1.0899908
  3012   6 C     3024   1 H                                       1.0920381
  3011   6 C     3025   1 H                                       1.0943939
  3011   6 C     3026   1 H                                       1.0920137
  3010   6 C     3027   1 H                                       1.0933654
  3010   6 C     3028   1 H                                       1.0936488
  3009   6 C     3029   1 H                                       1.0921799
  3009   6 C     3030   1 H                                       1.0912939
  3008   6 C     3031   1 H                                       1.0927729
  3008   6 C     3032   1 H                                       1.0922599
  3007   6 C     3033   1 H                                       1.0921359
  3007   6 C     3034   1 H                                       1.0933508
  3006   6 C     3035   1 H                                       1.0933551
  3006   6 C     3036   1 H                                       1.0926462
  3005   6 C     3037   1 H                                       1.0925563
  3005   6 C     3038   1 H                                       1.0936223
  3004   6 C     3039   1 H                                       1.0930579
  3004   6 C     3040   1 H                                       1.0924787
  3003   6 C     3041   1 H                                       1.0928079
  3003   6 C     3042   1 H                                       1.0931975
  3002   6 C     3043   1 H                                       1.0929217
  3002   6 C     3044   1 H                                       1.0924715
  3001   6 C     3045   1 H                                       1.0930225
  3001   6 C     3046   1 H                                       1.0928202
  3000   6 C     3047   1 H                                       1.0927135
  3000   6 C     3048   1 H                                       1.0920140
  2999   6 C     3049   1 H                                       1.0931488
  2999   6 C     3050   1 H                                       1.0924231
  2998   6 C     3051   1 H                                       1.0928048
  2998   6 C     3052   1 H                                       1.0918970
  2997   6 C     3053   1 H                                       1.0913868
  2997   6 C     3054   1 H                                       1.0922845
  2996   6 C     3055   1 H                                       1.0932935
  2996   6 C     3056   1 H                                       1.0918517
  2995   6 C     3057   1 H                                       1.0932000
  2995   6 C     3058   1 H                                       1.0932052
  2994   6 C     3059   1 H                                       1.0924046
  2994   6 C     3060   1 H                                       1.0914148
  2993   6 C     3061   1 H                                       1.0932855
  2993   6 C     3062   1 H                                       1.0927187
  2992   6 C     3063   1 H                                       1.0908155
  2992   6 C     3064   1 H                                       1.0929588
  2991   6 C     3065   1 H                                       1.0934122
  2991   6 C     3066   1 H                                       1.0926667
  2990   6 C     3067   1 H                                       1.0928165
  2990   6 C     3068   1 H                                       1.0932713
  2989   6 C     3069   1 H                                       1.0929673
  2989   6 C     3070   1 H                                       1.0912070
  2988   6 C     3071   1 H                                       1.0920065
  2988   6 C     3072   1 H                                       1.0929545
  2987   6 C     3073   1 H                                       1.0928451
  2987   6 C     3074   1 H                                       1.0912124
  2986   6 C     3075   1 H                                       1.0917979
  2986   6 C     3076   1 H                                       1.0934733
  2985   6 C     3077   1 H                                       1.0929555
  2985   6 C     3078   1 H                                       1.0934871
  2984   6 C     3079   1 H                                       1.0936769
  2984   6 C     3080   1 H                                       1.0921383
  2983   6 C     3081   1 H                                       1.0911756
  2983   6 C     3082   1 H                                       1.0928861
  2982   6 C     3083   1 H                                       1.0928176
  2982   6 C     3084   1 H                                       1.0936946
  2981   6 C     3085   1 H                                       1.0934327
  2981   6 C     3086   1 H                                       1.0932040
  2980   6 C     3087   1 H                                       1.0918246
  2980   6 C     3088   1 H                                       1.0909997
  2979   6 C     3089   1 H                                       1.0929782
  2979   6 C     3090   1 H                                       1.0909008
  2978   6 C     3091   1 H                                       1.0931366
  2978   6 C     3092   1 H                                       1.0944949
  2977   6 C     3093   1 H                                       1.0926541
  2977   6 C     3094   1 H                                       1.0930586
  2976   6 C     3095   1 H                                       1.0900705
  2976   6 C     3096   1 H                                       1.0934807
  2975   6 C     3097   1 H                                       1.0927049
  2975   6 C     3098   1 H                                       1.0921014
  2974   6 C     3099   1 H                                       1.0911191
  2974   6 C     3100   1 H                                       1.0914137
  2973   6 C     3101   1 H                                       1.0924661
  2973   6 C     3102   1 H                                       1.0921860
  2972   6 C     3103   1 H                                       1.0928978
  2972   6 C     3104   1 H                                       1.0939642
  2971   6 C     3105   1 H                                       1.0922354
  2971   6 C     3106   1 H                                       1.0928337
  2970   6 C     3107   1 H                                       1.0940810
  2970   6 C     3108   1 H                                       1.0934557
  2969   6 C     3109   1 H                                       1.0920085
  2969   6 C     3110   1 H                                       1.0931841
  2968   6 C     3111   1 H                                       1.0924261
  2968   6 C     3112   1 H                                       1.0914790
  2967   6 C     3113   1 H                                       1.0927854
  2967   6 C     3114   1 H                                       1.0902178
  2966   6 C     3115   1 H                                       1.0917625
  2966   6 C     3116   1 H                                       1.0939865
  2965   6 C     3117   1 H                                       1.0934237
  2965   6 C     3118   1 H                                       1.0903992
  2964   6 C     3119   1 H                                       1.0932009
  2964   6 C     3120   1 H                                       1.0931978
  2963   6 C     3121   1 H                                       1.0932951
  2963   6 C     3122   1 H                                       1.0930154
  2962   6 C     3123   1 H                                       1.0916177
  2962   6 C     3124   1 H                                       1.0936141
  2961   6 C     3125   1 H                                       1.0932336
  2961   6 C     3126   1 H                                       1.0926061
  2960   6 C     3127   1 H                                       1.0930659
  2960   6 C     3128   1 H                                       1.0935747
  2959   6 C     3129   1 H                                       1.0930601
  2959   6 C     3130   1 H                                       1.0926922
  2958   6 C     3131   1 H                                       1.0911709
  2958   6 C     3132   1 H                                       1.0921571
  2957   6 C     3133   1 H                                       1.0934564
  2957   6 C     3134   1 H                                       1.0932947
  2956   6 C     3135   1 H                                       1.0927732
  2956   6 C     3136   1 H                                       1.0935837
  2955   6 C     3137   1 H                                       1.0915200
  2955   6 C     3138   1 H                                       1.0910800
  2954   6 C     3139   1 H                                       1.0936490
  2954   6 C     3140   1 H                                       1.0932610
  2953   6 C     3141   1 H                                       1.0931424
  2953   6 C     3142   1 H                                       1.0937450
  2952   6 C     3143   1 H                                       1.0933749
  2952   6 C     3144   1 H                                       1.0900012
  2951   6 C     3145   1 H                                       1.0913471
  2951   6 C     3146   1 H                                       1.0939028
  2950   6 C     3147   1 H                                       1.0937482
  2950   6 C     3148   1 H                                       1.0937070
  2949   6 C     3149   1 H                                       1.0939855
  2949   6 C     3150   1 H                                       1.0913887
  2948   6 C     3151   1 H                                       1.0919217
  2948   6 C     3152   1 H                                       1.0930465
  2947   6 C     3153   1 H                                       1.0933424
  2947   6 C     3154   1 H                                       1.0924365
  2946   6 C     3155   1 H                                       1.0920838
  2946   6 C     3156   1 H                                       1.0925917
  2945   6 C     3157   1 H                                       1.0929211
  2945   6 C     3158   1 H                                       1.0925870
  2944   6 C     3159   1 H                                       1.0919512
  2944   6 C     3160   1 H                                       1.0923887
  2943   6 C     3161   1 H                                       1.0925042
  2943   6 C     3162   1 H                                       1.0923197
  2942   6 C     3163   1 H                                       1.0922737
  2942   6 C     3164   1 H                                       1.0933508
  2941   6 C     3165   1 H                                       1.0939072
  2941   6 C     3166   1 H                                       1.0930305
  2940   6 C     3167   1 H                                       1.0915959
  2940   6 C     3168   1 H                                       1.0935003
  2939   6 C     3169   1 H                                       1.0942464
  2939   6 C     3170   1 H                                       1.0923720
  2938   6 C     3171   1 H                                       1.0928974
  2938   6 C     3172   1 H                                       1.0932274
  2937   6 C     3173   1 H                                       1.0923949
  2937   6 C     3174   1 H                                       1.0906218
  2936   6 C     3175   1 H                                       1.0935799
  2936   6 C     3176   1 H                                       1.0932340
  2935   6 C     3177   1 H                                       1.0911917
  2935   6 C     3178   1 H                                       1.0921383
  2934   6 C     3179   1 H                                       1.0932844
  2934   6 C     3180   1 H                                       1.0935855
  2933   6 C     3181   1 H                                       1.0926594
  2933   6 C     3182   1 H                                       1.0933895
  2932   6 C     3183   1 H                                       1.0920898
  2932   6 C     3184   1 H                                       1.0928504
  2931   6 C     3185   1 H                                       1.0927920
  2931   6 C     3186   1 H                                       1.0926957
  2930   6 C     3187   1 H                                       1.0926515
  2930   6 C     3188   1 H                                       1.0923221
  2929   6 C     3189   1 H                                       1.0938999
  2929   6 C     3190   1 H                                       1.0928403
  2928   6 C     3191   1 H                                       1.0935062
  2928   6 C     3192   1 H                                       1.0929245
  2927   6 C     3193   1 H                                       1.0936594
  2927   6 C     3194   1 H                                       1.0905107
  2926   6 C     3195   1 H                                       1.0915565
  2926   6 C     3196   1 H                                       1.0930353
  2925   6 C     3197   1 H                                       1.0933994
  2925   6 C     3198   1 H                                       1.0925868
  2924   6 C     3199   1 H                                       1.0929423
  2924   6 C     3200   1 H                                       1.0935760
  2923   6 C     3201   1 H                                       1.0933353
  2923   6 C     3202   1 H                                       1.0907396
  2922   6 C     3203   1 H                                       1.0883356
  2922   6 C     3204   1 H                                       1.0929858
  2921   6 C     3205   1 H                                       1.0922089
  2921   6 C     3206   1 H                                       1.0943024
  2920   6 C     3207   1 H                                       1.0940404
  2920   6 C     3208   1 H                                       1.0911683
  2919   6 C     3209   1 H                                       1.0918325
  2919   6 C     3210   1 H                                       1.0942741
  2918   6 C     3211   1 H                                       1.0932081
  2918   6 C     3212   1 H                                       1.0926534
  2917   6 C     3213   1 H                                       1.0928750
  2917   6 C     3214   1 H                                       1.0939065
  2916   6 C     3215   1 H                                       1.0934592
  2916   6 C     3216   1 H                                       1.0926809
  2915   6 C     3217   1 H                                       1.0933421
  2915   6 C     3218   1 H                                       1.0909484
  2914   6 C     3219   1 H                                       1.0920615
  2914   6 C     3220   1 H                                       1.0920540
  2913   6 C     3221   1 H                                       1.0933396
  2913   6 C     3222   1 H                                       1.0932824
  2912   6 C     3223   1 H                                       1.0918578
  2912   6 C     3224   1 H                                       1.0934169
  2911   6 C     3225   1 H                                       1.0928877
  2911   6 C     3226   1 H                                       1.0918892
  2910   6 C     3227   1 H                                       1.0934773
  2910   6 C     3228   1 H                                       1.0924387
  2909   6 C     3229   1 H                                       1.0941329
  2909   6 C     3230   1 H                                       1.0926489
  2908   6 C     3231   1 H                                       1.0900469
  2908   6 C     3232   1 H                                       1.0926879
  2907   6 C     3233   1 H                                       1.0940076
  2907   6 C     3234   1 H                                       1.0935559
  2906   6 C     3235   1 H                                       1.0919277
  2906   6 C     3236   1 H                                       1.0939222
  2905   6 C     3237   1 H                                       1.0936120
  2905   6 C     3238   1 H                                       1.0900745
  2904   6 C     3239   1 H                                       1.0913991
  2904   6 C     3240   1 H                                       1.0937293
  2903   6 C     3241   1 H                                       1.0933825
  2903   6 C     3242   1 H                                       1.0933810
  2902   6 C     3243   1 H                                       1.0934835
  2902   6 C     3244   1 H                                       1.0904462
  2901   6 C     3245   1 H                                       1.0917036
  2901   6 C     3246   1 H                                       1.0934272
  2900   6 C     3247   1 H                                       1.0935722
  2900   6 C     3248   1 H                                       1.0920831
  2899   6 C     3249   1 H                                       1.0925145
  2899   6 C     3250   1 H                                       1.0932174
  2898   6 C     3251   1 H                                       1.0933580
  2898   6 C     3252   1 H                                       1.0920122
  2897   6 C     3253   1 H                                       1.0881358
  2897   6 C     3254   1 H                                       1.0880312
  2897   6 C     3255   1 H                                       1.0877969
  3016   6 C     3256   1 H                                       1.0882837
  3016   6 C     3257   1 H                                       1.0879991
  3016   6 C     3258   1 H                                       1.0880769

 * 2 distinct bonds (by element types)

   Z      Z             #   av. dist./Å        max./Å        min./Å
   1 H    6 C        2178     1.0925492     1.0947777     1.0861234
   6 C    6 C        1071     1.5273751     1.5351633     1.5228735


optimized geometry written to: xtbopt.xyz


           -------------------------------------------------
          | TOTAL ENERGY            -3427.509176025535 Eh   |
          | GRADIENT NORM               0.000668591990 Eh/α |
          | HOMO-LUMO GAP              11.298343563759 eV   |
           -------------------------------------------------

------------------------------------------------------------------------
 * finished run on 2024/06/21 at 07:57:48.322     
------------------------------------------------------------------------
 total:
 * wall-time:     3 d, 16 h, 40 min, 10.981 sec
 *  cpu-time:    19 d,  3 h, 41 min,  4.700 sec
 * ratio c/w:     5.184 speedup
 SCF:
 * wall-time:     0 d,  0 h,  7 min, 21.069 sec
 *  cpu-time:     0 d,  0 h, 37 min, 36.644 sec
 * ratio c/w:     5.116 speedup
 ANC optimizer:
 * wall-time:     3 d, 16 h, 32 min,  8.219 sec
 *  cpu-time:    19 d,  3 h,  2 min, 30.832 sec
 * ratio c/w:     5.185 speedup

