3258
 energy: -3427.628985412027 gnorm: 0.000807176186 xtb: 6.6.1 (8d0f1dd)
C           92.16223574492824      106.21463512588596      104.78174445804085
C           92.93820280115585      106.53937028355425      103.51126911662847
C           94.34851687327162      107.03108116076756      103.82403706792783
C           95.09634243479742      107.51452630843875      102.58356955763152
C           96.43559948402255      108.14574840870316      102.95335016029296
C           97.16516612061930      108.77622680729880      101.76966198834599
C           98.50515874173132      109.36074617207046      102.20657052293629
C           99.29249988688555      110.01956336391098      101.07763264439538
C          100.65650878001314      110.49287221161889      101.57312298560488
C          101.50672498564569      111.15694164098238      100.49358630559132
C          102.90735789686788      111.46800265372440      101.01483773013432
C          103.79349623777689      112.17933783811326       99.99594493637500
C          105.21595046286910      112.34424288152948      100.52460304721866
C          106.13162574136074      113.10864163882661       99.57276806062187
C          107.55848398828358      113.17321360382361      100.11148603932324
C          108.49482595223112      113.99820640012692       99.23370790273655
C          109.91580526161148      114.01533389474422       99.79231575538634
C          110.84322640627050      114.94457561015787       99.01540975445032
C          112.25672509374890      114.95994786478578       99.59403709205731
C          113.13264487559020      116.02210726739305       98.93645648539697
C          114.54837362911398      116.05680408069915       99.50727100592016
C          115.35385035193386      117.22193076315249       98.93756870560136
C          116.77933870357970      117.26849022546820       99.47924243350380
C          117.61130902111771      118.40838936441094       98.88762148362717
C          117.28064669377115      119.76779622249428       99.49718783021615
C          118.06591478665621      120.90170701888783       98.83969456477507
C          117.95046378611367      122.22694018240362       99.59596206891824
C          116.54248739487002      122.81920962225011       99.57316244057088
C          116.42421761762256      124.04275843110834      100.47988968986003
C          115.02443774733946      124.66129623252502      100.48876632120751
C          113.95283842983862      123.69581421164028      100.99133251349053
C          112.61567141013049      124.37889097373871      101.27052525623651
C          111.54639495206317      123.35168275116543      101.63560333643308
C          110.22483125240716      123.98172296796915      102.06576888850014
C          109.17325470658635      122.91910172376286      102.37825145500396
C          107.83507016478553      123.52289509205346      102.79607586776822
C          106.76974103605573      122.45175949532491      103.01884910196847
C          105.41911307461591      123.04982544751930      103.40710474214774
C          104.33890906770122      121.97708403369538      103.52390336701905
C          102.95089402805820      122.53399551548175      103.84259005537683
C          102.80520443998374      123.03948212408230      105.27712423680337
C          101.38349395484919      123.52657665355585      105.55273344297238
C          101.14968909401442      123.98778094161412      106.99355771406329
C          101.20283988124331      122.83330191248272      107.99137634550407
C          100.79819091847453      123.21146614515976      109.41697748642753
C           99.35461107437861      123.69707260454177      109.58852009019537
C           98.28966499711579      122.80514647107913      108.94748777711430
C           98.25429893484380      121.38957640665036      109.51735852727825
C           97.23438453541438      120.48591620621340      108.82085163649815
C           97.53936279094934      120.17014797907899      107.35403101315116
C           98.80311557046365      119.33644484027008      107.14931294800991
C           99.13110333655844      119.17223879108199      105.66696426932185
C          100.39799876901010      118.35748287779909      105.40066985053217
C          101.65465316063255      118.97238640493856      106.01800339060564
C          102.93740040906897      118.43219005916248      105.38853480542625
C          104.17701512483720      118.93050647171960      106.12679964848577
C          105.48056219022179      118.58289284585553      105.41309270723765
C          106.68946750146398      119.17022909166761      106.13690093432908
C          108.00623503613778      118.88811723593128      105.42037789817795
C          109.18826677979877      119.57978701591300      106.09644981853812
C          110.50748453578588      119.24886071869682      105.40379950658532
C          111.70500641017965      120.03149710688064      105.94287745622239
C          111.69326653917989      121.50169716239611      105.52859332093553
C          112.97545403860090      122.22903114124028      105.92539749431862
C          112.96697477097834      123.68677338945446      105.46873208450583
C          114.15742863534193      124.49732794687235      105.98308512188105
C          115.49549137649174      124.01158100579289      105.43193364108602
C          116.66064937363919      124.95254776270143      105.74259402953693
C          116.91987644963737      125.18997568231401      107.23182527458275
C          117.17104867778551      123.91224970327823      108.03007968977853
C          117.59898439756748      124.22078662337751      109.46464565846985
C          117.63245787632964      122.96026354064917      110.32456983822939
C          118.12781218660938      123.18464212518845      111.75319575405679
C          117.33896714443242      124.21511860018147      112.56580348369684
C          115.83050646883513      123.97429503027303      112.64949973147330
C          115.44994444900972      122.63330107290660      113.27271409363372
C          113.94605846408493      122.54020086970884      113.52467219320722
C          113.51750942166890      121.15528997923566      114.00252626478715
C          112.00921475470163      121.04064657602646      114.21254420377471
C          111.59787867290839      119.63451547342765      114.64258344606932
C          110.08507250690897      119.47602120632928      114.76779646734293
C          109.69085050883251      118.06882169119268      115.21298046756148
C          108.18509114207760      117.92389592542170      115.42053783343739
C          107.77518740469800      116.49294579504577      115.76038269979639
C          106.27443088547851      116.36867081636289      116.01594004751915
C          105.83676989738845      114.92088337267393      116.22425583985778
C          104.33676574523631      114.80061020890558      116.48328385150612
C          103.88513482810205      113.34774425709871      116.61184557360779
C          102.39089732003490      113.22977844179883      116.90278763830921
C          101.92803930213032      111.77690955441983      116.98080088817076
C          100.44663212151258      111.66030442228360      117.33138533153998
C           99.97540679079066      110.20862422584995      117.38219882908133
C           98.51692241400012      110.09379647599063      117.82048880176302
C           98.04460444042306      108.64730787133034      117.97223394828224
C           97.72267531790543      107.95298390174815      116.65023682060523
C           97.54484168264143      106.44995893610515      116.84765663988237
C           96.88457389662562      105.74220295489029      115.66600076959190
C           97.71144955308034      105.78326100548679      114.38245851122960
C           97.17269004752444      104.80705969022286      113.33871893691069
C           98.02637002497718      104.76026308467553      112.07378379008604
C           97.52941681817373      103.68981730510664      111.10382572124927
C           98.35263571255359      103.58838652106299      109.81871692821747
C           99.75117464077422      103.02091190843058      110.04367024959589
C          100.57814877143505      102.97199908409773      108.76163225701814
C          102.04977670978415      102.68557569403239      109.04836720575594
C          102.90496319411477      102.73064024832836      107.78592660750451
C          104.39432458691412      102.59890799398376      108.08947265861555
C          105.25211575596275      102.71773028022405      106.83387039828088
C          106.74427763830914      102.63099171191807      107.13870687747838
C          107.59704278547325      102.82349772518799      105.88911829195492
C          109.09084507100775      102.73746596706239      106.18403868174030
C          109.93241904576617      102.96555281104700      104.93244405287564
C          111.42487527860946      102.82204509522737      105.20717881718018
C          112.26562485598701      103.01931208481268      103.94983052085172
C          113.73938508132325      102.71935065706609      104.19970954055464
C          114.57671926745194      102.80590542568422      102.92786214597393
C          115.99488754267998      102.28566941985417      103.14279994092905
C          116.79265224922855      102.22784084929289      101.84384790456832
C          118.11823506048746      101.49229990821867      102.01428432610081
C          118.86822310628544      101.36117120169907      100.69543053548516
H          118.74019003608329      102.02093208363439      102.73956004129299
H          117.92235954222640      100.49490173858885      102.41719362953974
H          116.19952118202434      101.71145458665603      101.08530114978099
H          116.98066442431995      103.24293941610514      101.48472499181132
H          116.51484212105387      102.91718629223004      103.86777013139729
H          115.93938221810139      101.27889440853156      103.56695134494318
H          114.09827854783386      102.20670974445146      102.14843838717142
H          114.61144091858667      103.84035600384472      102.57693747859265
H          114.13332026359271      103.41059621276089      104.94799485650206
H          113.82661757531446      101.70994828120519      104.61124907985595
H          111.89673596057330      102.35244482675942      103.16530154771405
H          112.15547353683966      104.04531238835533      103.59038223518149
H          111.72638293724424      103.54921598399380      105.96503590044186
H          111.61891185759295      101.82627962180892      105.61367735603253
H          109.63926151654806      102.24234837422658      104.16587824239303
H          109.73214462928662      103.96446820113565      104.53715977373362
H          109.35422702799632      103.48286123582845      106.93844569827499
H          109.32278312647597      101.75395620906046      106.59992137029491
H          107.33271085159177      102.06076792367675      105.15082529299225
H          107.37477506132247      103.79865993574367      105.44864067455465
H          107.00712951709754      103.39555478471975      107.87387216434095
H          106.96707786188934      101.65736578660761      107.58148417757411
H          104.98106115149989      101.92331517470988      106.13262258426263
H          105.04070734620292      103.67223335360661      106.34585671241602
H          104.68497308275099      103.38424570444371      108.79146128817796
H          104.58293427261754      101.63573787313021      108.57114890067547
H          102.59713407398696      101.92891224781427      107.10892859650598
H          102.72843589364372      103.67761875495748      107.27083652826359
H          102.42207786791145      103.43272768620417      109.75492351192158
H          102.14849987725556      101.70722730409886      109.52627650654391
H          100.17567074009074      102.20918078164770      108.09004785750120
H          100.49981196166540      103.93171174642407      108.24592797674048
H          100.27783339148745      103.63300597841722      110.77827568014570
H           99.67018765476924      102.01594173092668      110.45863796443429
H           97.82302438011571      102.94739559953328      109.10887548079685
H           98.43414316298934      104.58098026119627      109.36826773203701
H           97.53428106829473      102.72027098346530      111.61027984712331
H           96.49222842939979      103.91635036581965      110.84076458961678
H           98.01219442296708      105.73588719237171      111.58227886800523
H           99.05902496750920      104.55026773067029      112.35810326058765
H           97.13850145114532      103.80500526222846      113.77631314568717
H           96.14670184927628      105.08384637428604      113.07848348496749
H           97.71144564183253      106.79478171448710      113.97196087749198
H           98.74561878776908      105.52012376346110      114.61797128628382
H           96.72507595040668      104.69472310034109      115.94025536384835
H           95.90141305409428      106.18365636738061      115.48173101976839
H           98.52184683516390      105.99717769809025      117.03438165353259
H           96.93121474766795      106.28657154630916      117.73785687935376
H           96.80185222784938      108.37234949324582      116.23779131763953
H           98.52426643914130      108.13131574748367      115.93281750240820
H           98.81959112367795      108.07814429393109      118.48863993666731
H           97.15188781649071      108.62473054929823      118.60367116774034
H           98.40285205155313      110.60133381219852      118.78175677979604
H           97.87791648892717      110.61323287944708      117.10459163020860
H          100.10343432752616      109.75197504551336      116.39785156344989
H          100.60357371272625      109.65402936559363      118.08396313632538
H          100.27051111515723      112.12827847999264      118.30397817940758
H           99.85567908403385      112.20975052312617      116.59493070052631
H          102.11121282291522      111.28607112463963      116.02081022940874
H          102.51942533965618      111.24740352346838      117.73195489024751
H          102.16696786562450      113.72997154811816      117.84920629964091
H          101.82956921812080      113.74464470600395      116.11955764240533
H          104.11411685421362      112.81575798224007      115.68424287542376
H          104.44988064502155      112.86074211352131      117.41099070005568
H          104.08254669667805      115.34110837268395      117.39967827380400
H          103.79256798076781      115.27282207763430      115.66200559129125
H          106.09480591924012      114.33620142553075      115.33690734518090
H          106.38760948831317      114.49187991664574      117.06500793763612
H          106.00669801961769      116.95837424238833      116.89767903758754
H          105.73121437031377      116.78551652817782      115.16470644308055
H          108.05428059849947      115.83418329681433      114.93338161709464
H          108.32531801657650      116.15754972108313      116.64316427515077
H          107.86650073054463      118.58885759036018      116.22834193849346
H          107.66661236111274      118.23996934528712      114.51294500465805
H          110.02006133504743      117.34978630140839      114.45768173955959
H          110.21175918721836      117.82434503587869      116.14252763467191
H          109.70672671126950      120.20508394868128      115.48771135632983
H          109.61902200916013      119.69338510996535      113.80467422604887
H          111.97270499277536      118.91558381404245      113.90915325426599
H          112.06589594635020      119.40230108036548      115.60231737748062
H          111.69033800283276      121.76040413806209      114.97079736941453
H          111.49799693802353      121.29583771108030      113.28105544307301
H          113.82707432788000      120.41931652088709      113.25740103797355
H          114.03102707826302      120.91980702762098      114.93868065012937
H          113.66221432171362      123.28832491589503      114.26959055145495
H          113.41639431873973      122.77935597309661      112.59842428279312
H          115.75032899753441      121.82402966819089      112.60673482568637
H          115.98557600838406      122.50524995465393      114.21698293049293
H          115.39561574519003      124.77884209789016      113.24998019414195
H          115.38932899839097      124.04304765299599      111.65336475595893
H          117.74803941404049      124.22589350581599      113.58018763665007
H          117.50713118246097      125.20832841203436      112.14260589901198
H          118.10582899571499      122.22587604561160      112.27595278498238
H          119.17083505148604      123.51244701730758      111.71946412475324
H          116.63158242791617      122.52701552559311      110.35546624597502
H          118.29125756317423      122.22818169119026      109.84821434559700
H          118.58638820152278      124.69020960058522      109.46044016755221
H          116.89626247175750      124.93817398845964      109.89332076574911
H          116.25903987629023      123.31302343474978      108.05736127107410
H          117.94406496577574      123.31621642086806      107.53843351118255
H          117.79400868651153      125.84126719321583      107.32396647880645
H          116.07356718678409      125.72452909897900      107.66879935282401
H          117.56725769627786      124.54207736374030      105.28914609825217
H          116.47083152086067      125.91947971843494      105.26824795388829
H          115.71755473215838      123.02183489532784      105.83265659031949
H          115.41674829955689      123.92100185785355      104.34455156586721
H          114.01780693905413      125.54344385548750      105.69589602431306
H          114.17165813960607      124.45327172794997      107.07307462894492
H          112.95279503349363      123.72360114491337      104.37700059383843
H          112.04660258305522      124.15874371142931      105.82403032309371
H          113.09017989996961      122.19267045183534      107.01201249299724
H          113.82825550611126      121.70843397656277      105.48448702204604
H          111.57373059564763      121.56254849526626      104.44358133813829
H          110.84026509775879      122.01329373401829      105.98013049215299
H          111.73093009698256      119.95557975038125      107.03233765566287
H          112.62144226310477      119.57474354759009      105.55988141795845
H          110.70225339472236      118.17957845985002      105.52238473025743
H          110.40792194717284      119.44748430270282      104.33543354286270
H          109.02117934166642      120.65927936733198      106.07850568951200
H          109.24239793055385      119.26949723007851      107.14372128230440
H          108.18197148283895      117.80981331251908      105.39788671044553
H          107.93546694543605      119.22993921648114      104.38473923977568
H          106.55620682850439      120.25218180441007      106.22761273332276
H          106.73859495788382      118.75837161950446      107.14830868949190
H          105.58387951400950      117.49697310148711      105.34954960371793
H          105.44956449318052      118.96721655092506      104.39037118114386
H          104.11143923099773      120.01654302668508      106.23661675599662
H          104.19200684311127      118.50443991762073      107.13226722162375
H          102.91875777489366      117.33925347705359      105.40172279476489
H          102.98508286199764      118.74604416099970      104.34279225290740
H          101.62844779908336      120.05658994936289      105.88240347722298
H          101.67444286253675      118.77238927178119      107.09118007677202
H          100.26544017959266      117.34139263158828      105.78089356992686
H          100.53426925763968      118.28758402526547      104.31841653100118
H           98.28716600106031      118.69073976294294      105.16468436016915
H           99.25033727016088      120.16374635173295      105.21942405016874
H           99.64325764017261      119.82348127013393      107.64334579447818
H           98.67119938087194      118.35352262345442      107.60692466868065
H           96.68772512264690      119.62650947952768      106.93507058026310
H           97.62868779691402      121.10137076664567      106.79015816188058
H           97.17308320644052      119.54575927924294      109.37314663767219
H           96.25053744211461      120.96038643306092      108.87483499063846
H           99.24334387810416      120.93993339527584      109.44694269903950
H           98.00110110308597      121.44264008161720      110.57990940296607
H           97.31147154137349      123.27161028996527      109.09906728967080
H           98.46283988918502      122.76673856180707      107.87222370449145
H           99.15312739334712      123.78007583615697      110.66017583961067
H           99.25980582888293      124.70054556198629      109.16594846186355
H          100.95827382722263      122.34048988653744      110.05587094147828
H          101.46510706082520      123.99916721633156      109.77763316087012
H          100.56314461059472      122.02586464201127      107.63236263279423
H          102.22369163932670      122.44898242710458      108.03095106496343
H          101.89442442170548      124.74076593461875      107.26337569586586
H          100.16818537908460      124.46353049420379      107.04264713367984
H          101.16236582924228      124.35600786040824      104.87516397779983
H          100.67896803418797      122.72235070450431      105.32131742943481
H          103.05594388014566      122.22757565267294      105.96206951106011
H          103.50393273619891      123.85821389259004      105.45918544056478
H          102.71750351715470      123.34397445199070      103.14635728195931
H          102.21383294359384      121.74251486665212      103.68119215103806
H          104.28696170052457      121.43619616940883      102.57457298397776
H          104.62493249055990      121.26122940390211      104.29566426825888
H          105.52207136035587      123.58032216548615      104.35572544329568
H          105.11911480686162      123.78091148594035      102.65138416710072
H          106.65362299400078      121.87060701273047      102.09985397501171
H          107.10136538469909      121.76704455830763      103.80309946233409
H          107.96793973146137      124.10265226529143      103.71302167243032
H          107.49319651421590      124.21244024184402      102.01957338745611
H          109.02405405341037      122.29553257497872      101.49296426818610
H          109.53997157219617      122.27373924419155      103.18000577433597
H          110.38904114456265      124.60303758676422      102.94979902901187
H          109.85615983587537      124.63331830387071      101.26927805237540
H          111.37123155088000      122.69789542092184      100.77785689272943
H          111.92206852584280      122.72678536909257      102.44858187198180
H          112.73352601331402      125.09381438312899      102.08912594437689
H          112.29793656139188      124.94032947382810      100.38831741087908
H          113.79048721555134      122.91235073365888      100.24903971212277
H          114.30549530736326      123.21729364936574      101.90790039138993
H          115.04008058918635      125.54276379453182      101.13544432773338
H          114.76720620347980      124.99825658829069       99.48142264274001
H          116.68924565713429      123.75517495678798      101.50093569739234
H          117.14392154967723      124.79949076994706      100.15604840994064
H          116.27993191111408      123.09723986155804       98.54908488105758
H          115.83354221049761      122.06272808968539       99.90713186446881
H          118.25288811987012      122.06568117802369      100.63411965013849
H          118.64796191977125      122.94883974473947       99.16235756802473
H          119.12191612605025      120.61983836561171       98.79910778676246
H          117.72404587230903      121.03629679853533       97.81015588920430
H          116.21188078484050      119.95653353813950       99.39797346478771
H          117.52072720688868      119.74361470445189      100.56198970439706
H          118.67063204147065      118.20278450362331       99.05821610388240
H          117.45472511654955      118.44908736974828       97.80561653140114
H          116.75331069399063      117.36873804803346      100.56703703308031
H          117.26538299671581      116.31929982648947       99.25272365697262
H          115.39135411261697      117.12991076193973       97.84778842156422
H          114.83958012562938      118.15681626704698       99.16909815138807
H          114.49893578890810      116.14816724052082      100.59544186274827
H          115.05629461878411      115.11676690977197       99.28036088525559
H          113.18189010561775      115.83622871145050       97.85919419476411
H          112.66813128410156      117.00223830914801       99.07407293446646
H          112.20242251385156      115.15727029317064      100.66796132390125
H          112.71501259048803      113.97717905100559       99.46167245716710
H          110.88076610346128      114.63418774041361       97.96694712197197
H          110.43377770526091      115.95821290672106       99.03702638578864
H          109.88414586298508      114.33916136986893      100.83610937620224
H          110.32199067775402      113.00154100788954       99.77211233032749
H          108.50559968177869      113.58516338264137       98.22072629392163
H          108.11805167079140      115.02238147314303       99.16422245487493
H          107.54095211308218      113.60631657701434      101.11514010283146
H          107.95230595064812      112.15765509156043      100.19564190876120
H          106.13384234569399      112.61741208728604       98.59541218504069
H          105.74663635490346      114.12181853575440       99.42909222771129
H          105.18220325083240      112.86988319555770      101.48243796100951
H          105.64108401499034      111.35387421965112      100.70477238044364
H          103.81760503963648      111.60064097991716       99.06821447364054
H          103.37022175299020      113.15942370522609       99.76122590661184
H          102.82600270574348      112.09022233298523      101.90988942001346
H          103.38772321905024      110.53052151483281      101.30547051854211
H          101.58424186013075      110.48872582457615       99.63149187387975
H          101.02287426374495      112.07704104562988      100.15682801374480
H          100.51301716817697      111.19798181074502      102.39612384933227
H          101.20065253489341      109.63140478439024      101.96712989112928
H           99.43352923406192      109.29932652559333      100.26735090566360
H           98.72799316660098      110.86554783641049      100.67829494034353
H           98.32951094962512      110.09805766527202      102.99437263916673
H           99.11232728794577      108.56080518225558      102.63568742080399
H           97.33135967146005      108.01906131812930      100.99938423038482
H           96.54552271389188      109.56557198870243      101.33605523433181
H           96.26556310468197      108.91309913997236      103.71400440187278
H           97.07700765367855      107.38292175309499      103.40131482116023
H           95.25759286713236      106.67776230368942      101.90049365601529
H           94.47912205394167      108.25014556759987      102.06117129056291
H           94.28322510831470      107.85342458445233      104.54160556544468
H           94.91478803901796      106.22828935165622      104.30375819680792
H           92.99049693691381      105.65244584646760      102.87538233746108
H           92.40451380342409      107.31323309057409      102.95336245607427
H           92.08210040158524      107.09709593840758      105.41325421003438
H           91.15827613745732      105.86911384612645      104.54537090689533
H           92.66420688086737      105.43555061502001      105.35113215068799
H          119.78004104067666      100.78071531599677      100.82534953847113
H          118.24872539084971      100.86111228108501       99.95556386968197
H          119.13775129494846      102.33965721251614      100.30375277798029
C          114.15334758405308      115.64179879262666      124.16725603665145
C          113.72224238773364      114.18904239464521      124.32776457495908
C          112.94300471837717      113.69409076298274      123.11189645453004
C          112.42070645022484      112.26579647193697      123.26495708722150
C          113.53768854952658      111.22411625561034      123.32828055022260
C          113.03308709746334      109.79048054753639      123.16515691310167
C          112.19594664789697      109.29029416162098      124.33993172108327
C          111.65825310285987      107.88679180109318      124.07267247580147
C          110.72782527203182      107.38366993267724      125.17460387596675
C          109.94799182265389      106.14697793881885      124.73012005514028
C          109.15391266994465      105.51930432222007      125.87503609789303
C          108.07194561445863      104.54880398938555      125.39959077192707
C          108.61070708456697      103.37215465289027      124.58876286177757
C          107.49700512156902      102.40232041223119      124.19980093762146
C          107.99806888066823      101.27100796020535      123.30540217546589
C          106.87871037860296      100.30702212464080      122.92093827930654
C          107.33988471829301       99.24369234772708      121.92678403297209
C          106.20219628693269       98.29930447544514      121.54490780499034
C          106.60039132630183       97.23246012935508      120.52453050414378
C          106.95001618778980       97.80317610897932      119.15088675559353
C          107.10912311671615       96.70418508370128      118.10170731045190