      -----------------------------------------------------------      
     |                   =====================                   |     
     |                           x T B                           |     
     |                   =====================                   |     
     |                         S. Grimme                         |     
     |          Mulliken Center for Theoretical Chemistry        |     
     |                    University of Bonn                     |     
      -----------------------------------------------------------      

   * xtb version 6.6.1 (8d0f1dd) compiled by 'stahn@M-Bot' on 2023-08-01

   xtb is free software: you can redistribute it and/or modify it under
   the terms of the GNU Lesser General Public License as published by
   the Free Software Foundation, either version 3 of the License, or
   (at your option) any later version.
   
   xtb is distributed in the hope that it will be useful,
   but WITHOUT ANY WARRANTY; without even the implied warranty of
   MERCHANTABILITY or FITNESS FOR A PARTICULAR PURPOSE.  See the
   GNU Lesser General Public License for more details.
   
   Cite this work as:
   * C. Bannwarth, E. Caldeweyher, S. Ehlert, A. Hansen, P. Pracht,
     J. Seibert, S. Spicher, S. Grimme, WIREs Comput. Mol. Sci., 2020, 11,
     e01493. DOI: 10.1002/wcms.1493
   
   for GFN2-xTB:
   * C. Bannwarth, S. Ehlert and S. Grimme., J. Chem. Theory Comput., 2019,
     15, 1652-1671. DOI: 10.1021/acs.jctc.8b01176
   for GFN1-xTB:
   * S. Grimme, C. Bannwarth, P. Shushkov, J. Chem. Theory Comput., 2017,
     13, 1989-2009. DOI: 10.1021/acs.jctc.7b00118
   for GFN0-xTB:
   * P. Pracht, E. Caldeweyher, S. Ehlert, S. Grimme, ChemRxiv, 2019, preprint.
     DOI: 10.26434/chemrxiv.8326202.v1
   for GFN-FF:
   * S. Spicher and S. Grimme, Angew. Chem. Int. Ed., 2020, 59, 15665-15673.
     DOI: 10.1002/anie.202004239
   
   for ALPB and GBSA implicit solvation:
   * S. Ehlert, M. Stahn, S. Spicher, S. Grimme, J. Chem. Theory Comput.,
     2021, 17, 4250-4261. DOI: 10.1021/acs.jctc.1c00471
   
   for DFT-D4:
   * E. Caldeweyher, C. Bannwarth and S. Grimme, J. Chem. Phys., 2017,
     147, 034112. DOI: 10.1063/1.4993215
   * E. Caldeweyher, S. Ehlert, A. Hansen, H. Neugebauer, S. Spicher,
     C. Bannwarth and S. Grimme, J. Chem. Phys., 2019, 150, 154122.
     DOI: 10.1063/1.5090222
   * E. Caldeweyher, J.-M. Mewes, S. Ehlert and S. Grimme, Phys. Chem. Chem. Phys.
     2020, 22, 8499-8512. DOI: 10.1039/D0CP00502A
   
   for sTDA-xTB:
   * S. Grimme and C. Bannwarth, J. Chem. Phys., 2016, 145, 054103.
     DOI: 10.1063/1.4959605
   
   in the mass-spec context:
   * V. Asgeirsson, C. Bauer and S. Grimme, Chem. Sci., 2017, 8, 4879.
     DOI: 10.1039/c7sc00601b
   * J. Koopman and S. Grimme, ACS Omega 2019, 4, 12, 15120-15133.
     DOI: 10.1021/acsomega.9b02011
   
   for metadynamics refer to:
   * S. Grimme, J. Chem. Theory Comput., 2019, 155, 2847-2862
     DOI: 10.1021/acs.jctc.9b00143
   
   for SPH calculations refer to:
   * S. Spicher and S. Grimme, J. Chem. Theory Comput., 2021, 17, 1701-1714
     DOI: 10.1021/acs.jctc.0c01306
   
   with help from (in alphabetical order)
   P. Atkinson, C. Bannwarth, F. Bohle, G. Brandenburg, E. Caldeweyher
   M. Checinski, S. Dohm, S. Ehlert, S. Ehrlich, I. Gerasimov, C. Hölzer
   A. Katbashev, J. Koopman, C. Lavigne, S. Lehtola, F. März, M. Müller,
   F. Musil, H. Neugebauer, J. Pisarek, C. Plett, P. Pracht, F. Pultar,
   J. Seibert, P. Shushkov, S. Spicher, M. Stahn, M. Steiner, T. Strunk,
   J. Stückrath, T. Rose, and J. Unsleber
   
 * started run on 2024/10/03 at 19:51:04.811     

           -------------------------------------------------
          |                Calculation Setup                |
           -------------------------------------------------

          program call               : /home/abt-grimme/AK-bin/xtb input.xyz --input input.inp --opt
          hostname                   : boar076.thch.uni-bonn.de
          coordinate file            : input.xyz
          omp threads                :                     8

   ID    Z sym.   atoms
    1    6 C      1-120, 363-482, 725-844, 1087-1206, 1449-1568, 1811-1930,
                  2173-2292, 2535-2654, 2897-3016
    2    1 H      121-362, 483-724, 845-1086, 1207-1448, 1569-1810,
                  1931-2172, 2293-2534, 2655-2896, 3017-3258

molecular fragmentation (1/2 indicates fragments):
111111111111111111111111111111111111111111111111111111111111111111111111
111111111111111111111111111111111111111111111111111111111111111111111111
111111111111111111111111111111111111111111111111111111111111111111111111
111111111111111111111111111111111111111111111111111111111111111111111111
111111111111111111111111111111111111111111111111111111111111111111111111
112222222222222222222222222222222222222222222222222222222222222222222222
222222222222222222222222222222222222222222222222222222222222222222222222
222222222222222222222222222222222222222222222222222222222222222222222222
222222222222222222222222222222222222222222222222222222222222222222222222
222222222222222222222222222222222222222222222222222222222222222222222222
222222222222222222222222222222222222222222222222222222222222222222222222
222222222222222222222222222222222222222222222222222222222222222222222222
222222222222222222222222222222222222222222222222222222222222222222222222
222222222222222222222222222222222222222222222222222222222222222222222222
222222222222222222222222222222222222222222222222222222222222222222222222
222222222222222222222222222222222222222222222222222222222222222222222222
222222222222222222222222222222222222222222222222222222222222222222222222
222222222222222222222222222222222222222222222222222222222222222222222222
222222222222222222222222222222222222222222222222222222222222222222222222
222222222222222222222222222222222222222222222222222222222222222222222222
222222222222222222222222222222222222222222222222222222222222222222222222
222222222222222222222222222222222222222222222222222222222222222222222222
222222222222222222222222222222222222222222222222222222222222222222222222
222222222222222222222222222222222222222222222222222222222222222222222222
222222222222222222222222222222222222222222222222222222222222222222222222
222222222222222222222222222222222222222222222222222222222222222222222222
222222222222222222222222222222222222222222222222222222222222222222222222
222222222222222222222222222222222222222222222222222222222222222222222222
222222222222222222222222222222222222222222222222222222222222222222222222
222222222222222222222222222222222222222222222222222222222222222222222222
222222222222222222222222222222222222222222222222222222222222222222222222
222222222222222222222222222222222222222222222222222222222222222222222222
222222222222222222222222222222222222222222222222222222222222222222222222
222222222222222222222222222222222222222222222222222222222222222222222222
222222222222222222222222222222222222222222222222222222222222222222222222
222222222222222222222222222222222222222222222222222222222222222222222222
222222222222222222222222222222222222222222222222222222222222222222222222
222222222222222222222222222222222222222222222222222222222222222222222222
222222222222222222222222222222222222222222222222222222222222222222222222
222222222222222222222222222222222222222222222222222222222222222222222222
222222222222222222222222222222222222222222222222222222222222222222222222
222222222222222222222222222222222222222222222222222222222222222222222222
222222222222222222222222222222222222222222222222222222222222222222222222
222222222222222222222222222222222222222222222222222222222222222222222222
222222222222222222222222222222222222222222222222222222222222222222222222
222222222222222222
# atoms in fragment 1/2:   362  2896
 fragment masses (1/2) :     1685.21    13481.68
CMA distance (Bohr)    :  12.935
constraining FC (au)   :  0.0500

           -------------------------------------------------
          |                 G F N 2 - x T B                 |
           -------------------------------------------------

        Reference                      10.1021/acs.jctc.8b01176
      * Hamiltonian:
        H0-scaling (s, p, d)           1.850000    2.230000    2.230000
        zeta-weighting                 0.500000
      * Dispersion:
        s8                             2.700000
        a1                             0.520000
        a2                             5.000000
        s9                             5.000000
      * Repulsion:
        kExp                           1.500000    1.000000
        rExp                           1.000000
      * Coulomb:
        alpha                          2.000000
        third order                    shell-resolved
        anisotropic                    true
        a3                             3.000000
        a5                             4.000000
        cn-shift                       1.200000
        cn-exp                         4.000000
        max-rad                        5.000000


          ...................................................
          :                      SETUP                      :
          :.................................................:
          :  # basis functions                6498          :
          :  # atomic orbitals                6498          :
          :  # shells                         4338          :
          :  # electrons                      6498          :
          :  max. iterations                   250          :
          :  Hamiltonian                  GFN2-xTB          :
          :  restarted?                      false          :
          :  GBSA solvation                  false          :
          :  PC potential                    false          :
          :  electronic temp.          300.0000000     K    :
          :  accuracy                    1.0000000          :
          :  -> integral cutoff          0.2500000E+02      :
          :  -> integral neglect         0.1000000E-07      :
          :  -> SCF convergence          0.1000000E-05 Eh   :
          :  -> wf. convergence          0.1000000E-03 e    :
          :  Broyden damping             0.4000000          :
          ...................................................

 iter      E             dE          RMSdq      gap      omega  full diag
   1  -3473.6508638 -0.347365E+04  0.245E+00   11.28       0.0  T
   2  -3478.6820917 -0.503123E+01  0.136E+00   11.41       1.0  T
   3  -3478.8902206 -0.208129E+00  0.597E-01   11.41       1.0  T
   4  -3478.9106869 -0.204663E-01  0.756E-02   11.43       1.0  T
   5  -3478.9118247 -0.113775E-02  0.398E-02   11.43       1.0  T
   6  -3478.9120333 -0.208611E-03  0.676E-03   11.43       1.0  T
   7  -3478.9120501 -0.167682E-04  0.124E-03   11.43       1.4  T
   8  -3478.9120512 -0.111039E-05  0.397E-04   11.43       4.4  T
   9  -3478.9120513 -0.710070E-07  0.141E-04   11.43      12.4  T
  10  -3478.9120513 -0.393402E-08  0.431E-05   11.43      40.7  T

   *** convergence criteria satisfied after 10 iterations ***

         #    Occupation            Energy/Eh            Energy/eV
      -------------------------------------------------------------
         1        2.0000           -0.6252910             -17.0150
       ...           ...                  ...                  ...
      3243        2.0000           -0.4019081             -10.9365
      3244        2.0000           -0.4017779             -10.9329
      3245        2.0000           -0.4016280             -10.9289
      3246        2.0000           -0.4015584             -10.9270
      3247        2.0000           -0.4015094             -10.9256
      3248        2.0000           -0.4009949             -10.9116
      3249        2.0000           -0.3999183             -10.8823 (HOMO)
      3250                          0.0200880               0.5466 (LUMO)
      3251                          0.0207614               0.5649
      3252                          0.0209732               0.5707
      3253                          0.0220167               0.5991
      3254                          0.0223029               0.6069
       ...                                ...                  ...
      6498                          0.3932893              10.7019
      -------------------------------------------------------------
                  HL-Gap            0.4200064 Eh           11.4290 eV
             Fermi-level           -0.1899151 Eh           -5.1679 eV

 SCC (total)                   0 d,  0 h, 14 min,  0.138 sec
 SCC setup                      ...        0 min,  0.434 sec (  0.052%)
 Dispersion                     ...        0 min,  3.670 sec (  0.437%)
 classical contributions        ...        0 min,  0.162 sec (  0.019%)
 integral evaluation            ...        0 min,  5.875 sec (  0.699%)
 iterations                     ...        9 min, 31.890 sec ( 68.071%)
 molecular gradient             ...        4 min, 10.258 sec ( 29.788%)
 printout                       ...        0 min,  7.850 sec (  0.934%)

         :::::::::::::::::::::::::::::::::::::::::::::::::::::
         ::                     SUMMARY                     ::
         :::::::::::::::::::::::::::::::::::::::::::::::::::::
         :: total energy           -3427.628194422429 Eh    ::
         :: gradient norm              0.019781674133 Eh/a0 ::
         :: HOMO-LUMO gap             11.428954677419 eV    ::
         ::.................................................::
         :: SCC energy             -3478.912051257783 Eh    ::
         :: -> isotropic ES            0.415340830464 Eh    ::
         :: -> anisotropic ES          1.118469085176 Eh    ::
         :: -> anisotropic XC          1.948836194888 Eh    ::
         :: -> dispersion             -4.101500141787 Eh    ::
         :: repulsion energy          50.615323078168 Eh    ::
         :: add. restraining           0.000000000000 Eh    ::
         :: total charge              -0.000000000009 e     ::
         :::::::::::::::::::::::::::::::::::::::::::::::::::::

      ----------------------------------------------------------- 
     |              Fast Inertial Relaxation Engine              |
      ----------------------------------------------------------- 

          ...................................................
          :                      SETUP                      :
          :.................................................:
          :   energy convergence        0.5000000E-05 Eh    :
          :   grad. convergence         0.1000000E-02 Eh/a0 :
          :   optimization log               true           :
          :   writing optlog all                1     steps :
          :   Hessian reset                    20     steps :
          :   time step scaling                 5     steps :
          :   maximium step len.        1.0000000     a0    :
          :   initial time step         0.2500000     fs    :
          :   maximum time step         1.2500000     fs    :
          :   power reset thr           0.0000000     au    :
          :   alpha parameter           0.1000000           :
          :   BFGS update                   false           :
          :   preconditioning               false           :
          ...................................................

........................................................................
.............................. CYCLE    1 ..............................
........................................................................

 iter      E             dE          RMSdq      gap      omega  full diag
   1  -3478.9157462 -0.347892E+04  0.290E-04   11.43       0.0  T
   2  -3478.9157462 -0.315567E-07  0.165E-04   11.43      10.6  T
   3  -3478.9157463 -0.785803E-09  0.516E-05   11.43      33.9  T
     SCC iter.                  ...        2 min, 49.174 sec
     gradient                   ...        4 min, 11.045 sec
 * total energy  : -3427.6282384 Eh     change    :  -0.4400762E-04 Eh
   gradient norm :     0.0181990 Eh/a0  converged?    E=F G=F D=F
   time step     :     0.2500000 fs     power     :   0.2238903E-08
   step length   :     0.0023184 a0     speed     :   0.2243148E-03

........................................................................
.............................. CYCLE    2 ..............................
........................................................................

 iter      E             dE          RMSdq      gap      omega  full diag
   1  -3478.9211227 -0.347892E+04  0.419E-04   11.43       0.0  T
   2  -3478.9211227 -0.664099E-07  0.239E-04   11.43       7.3  T
   3  -3478.9211227 -0.156160E-08  0.747E-05   11.43      23.5  T
     SCC iter.                  ...        2 min, 46.646 sec
     gradient                   ...        4 min, 10.265 sec
 * total energy  : -3427.6282962 Eh     change    :  -0.5772329E-04 Eh
   gradient norm :     0.0159220 Eh/a0  converged?    E=F G=F D=F
   time step     :     0.2500000 fs     power     :   0.2856258E-08
   step length   :     0.0033846 a0     speed     :   0.3274791E-03

........................................................................
.............................. CYCLE    3 ..............................
........................................................................

 iter      E             dE          RMSdq      gap      omega  full diag
   1  -3478.9279423 -0.347893E+04  0.533E-04   11.43       0.0  T
   2  -3478.9279424 -0.106615E-06  0.304E-04   11.43       5.8  T
   3  -3478.9279424 -0.247564E-08  0.945E-05   11.43      18.5  T
     SCC iter.                  ...        2 min, 48.785 sec
     gradient                   ...        4 min, 10.527 sec
 * total energy  : -3427.6283586 Eh     change    :  -0.6244519E-04 Eh
   gradient norm :     0.0130794 Eh/a0  converged?    E=F G=F D=F
   time step     :     0.2500000 fs     power     :   0.2979607E-08
   step length   :     0.0043163 a0     speed     :   0.4176285E-03

........................................................................
.............................. CYCLE    4 ..............................
........................................................................

 iter      E             dE          RMSdq      gap      omega  full diag
   1  -3478.9358969 -0.347894E+04  0.625E-04   11.43       0.0  T
   2  -3478.9358971 -0.144526E-06  0.356E-04   11.43       4.9  T
   3  -3478.9358971 -0.344062E-08  0.110E-04   11.43      16.0  T
     SCC iter.                  ...        2 min, 45.667 sec
     gradient                   ...        4 min, 10.196 sec
 * total energy  : -3427.6284163 Eh     change    :  -0.5767503E-04 Eh
   gradient norm :     0.0098763 Eh/a0  converged?    E=F G=F D=F
   time step     :     0.2500000 fs     power     :   0.2605073E-08
   step length   :     0.0050776 a0     speed     :   0.4912851E-03

........................................................................
.............................. CYCLE    5 ..............................
........................................................................

 iter      E             dE          RMSdq      gap      omega  full diag
   1  -3478.9446059 -0.347894E+04  0.691E-04   11.43       0.0  T
   2  -3478.9446061 -0.172034E-06  0.394E-04   11.43       4.4  T
   3  -3478.9446061 -0.410682E-08  0.119E-04   11.43      14.7  T
     SCC iter.                  ...        2 min, 49.375 sec
     gradient                   ...        4 min, 11.024 sec
 * total energy  : -3427.6284609 Eh     change    :  -0.4464050E-04 Eh
   gradient norm :     0.0066900 Eh/a0  converged?    E=F G=F D=F
   time step     :     0.2500000 fs     power     :   0.1820467E-08
   step length   :     0.0056376 a0     speed     :   0.5454698E-03

........................................................................
.............................. CYCLE    6 ..............................
........................................................................

 iter      E             dE          RMSdq      gap      omega  full diag
   1  -3478.9545150 -0.347895E+04  0.801E-04   11.43       0.0  T
   2  -3478.9545152 -0.219839E-06  0.457E-04   11.43       3.8  T
   3  -3478.9545152 -0.539194E-08  0.133E-04   11.43      13.1  T
     SCC iter.                  ...        2 min, 49.946 sec
     gradient                   ...        4 min,  8.768 sec
 * total energy  : -3427.6284888 Eh     change    :  -0.2789367E-04 Eh
   gradient norm :     0.0043917 Eh/a0  converged?    E=F G=F D=F
   time step     :     0.2750000 fs     power     :   0.6932396E-09
   step length   :     0.0065923 a0     speed     :   0.5798541E-03

........................................................................
.............................. CYCLE    7 ..............................
........................................................................

 iter      E             dE          RMSdq      gap      omega  full diag
   1  -3478.9645647 -0.347896E+04  0.854E-04   11.43       0.0  T
   2  -3478.9645650 -0.219502E-06  0.490E-04   11.43       3.6  T
   3  -3478.9645650 -0.564842E-08  0.130E-04   11.42      13.5  T
     SCC iter.                  ...        2 min, 44.436 sec
     gradient                   ...        4 min, 11.368 sec
 * total energy  : -3427.6284937 Eh     change    :  -0.4895845E-05 Eh
   gradient norm :     0.0054191 Eh/a0  converged?    E=T G=F D=F
   time step     :     0.3025000 fs     power     :  -0.4088515E-09
   step length   :     0.0071404 a0     speed     :   0.5709669E-03

........................................................................
.............................. CYCLE    8 ..............................
........................................................................
 * reset velocities

 iter      E             dE          RMSdq      gap      omega  full diag
   1  -3478.9644398 -0.347896E+04  0.146E-05   11.43       0.0  T
   2  -3478.9644398 -0.131877E-09  0.788E-06   11.43     222.3  T
   3  -3478.9644398  0.727596E-11  0.345E-06   11.43     507.2  T
     SCC iter.                  ...        2 min, 53.094 sec
     gradient                   ...        4 min,  9.322 sec
 * total energy  : -3427.6284943 Eh     change    :  -0.6234441E-06 Eh
   gradient norm :     0.0053540 Eh/a0  converged?    E=T G=F D=T
   time step     :     0.1512500 fs     power     :   0.5459497E-10
   step length   :     0.0001162 a0     speed     :   0.1858859E-04

........................................................................
.............................. CYCLE    9 ..............................
........................................................................

 iter      E             dE          RMSdq      gap      omega  full diag
   1  -3478.9641917 -0.347896E+04  0.297E-05   11.43       0.0  T
   2  -3478.9641917 -0.179625E-09  0.173E-05   11.43     101.2  T
   3  -3478.9641917 -0.545697E-11  0.416E-06   11.43     420.9  T
     SCC iter.                  ...        2 min, 50.284 sec
     gradient                   ...        4 min,  9.121 sec
 * total energy  : -3427.6284955 Eh     change    :  -0.1222825E-05 Eh
   gradient norm :     0.0052323 Eh/a0  converged?    E=T G=F D=T
   time step     :     0.1512500 fs     power     :   0.1060529E-09
   step length   :     0.0002311 a0     speed     :   0.3695368E-04

........................................................................
.............................. CYCLE   10 ..............................
........................................................................

 iter      E             dE          RMSdq      gap      omega  full diag
   1  -3478.9638262 -0.347896E+04  0.437E-05   11.43       0.0  T
   2  -3478.9638262 -0.427917E-09  0.254E-05   11.43      69.0  T
   3  -3478.9638262 -0.104592E-10  0.616E-06   11.43     284.6  T
     SCC iter.                  ...        2 min, 51.420 sec
     gradient                   ...        4 min, 11.130 sec
 * total energy  : -3427.6284973 Eh     change    :  -0.1766980E-05 Eh
   gradient norm :     0.0050550 Eh/a0  converged?    E=T G=F D=T
   time step     :     0.1512500 fs     power     :   0.1521563E-09
   step length   :     0.0003433 a0     speed     :   0.5489952E-04

........................................................................
.............................. CYCLE   11 ..............................
........................................................................

 iter      E             dE          RMSdq      gap      omega  full diag
   1  -3478.9633515 -0.347896E+04  0.573E-05   11.43       0.0  T
   2  -3478.9633515 -0.821274E-09  0.333E-05   11.43      52.6  T
   3  -3478.9633515  0.636646E-11  0.802E-06   11.43     218.3  T
     SCC iter.                  ...        2 min, 45.961 sec
     gradient                   ...        4 min,  9.245 sec
 * total energy  : -3427.6284995 Eh     change    :  -0.2226935E-05 Eh
   gradient norm :     0.0048275 Eh/a0  converged?    E=T G=F D=T
   time step     :     0.1512500 fs     power     :   0.1910026E-09
   step length   :     0.0004516 a0     speed     :   0.7223059E-04

........................................................................
.............................. CYCLE   12 ..............................
........................................................................

 iter      E             dE          RMSdq      gap      omega  full diag
   1  -3478.9627792 -0.347896E+04  0.702E-05   11.43       0.0  T
   2  -3478.9627792 -0.112823E-08  0.408E-05   11.43      42.9  T
   3  -3478.9627792 -0.218279E-10  0.972E-06   11.43     180.3  T
     SCC iter.                  ...        2 min, 43.229 sec
     gradient                   ...        4 min,  9.302 sec
 * total energy  : -3427.6285021 Eh     change    :  -0.2601420E-05 Eh
   gradient norm :     0.0045576 Eh/a0  converged?    E=T G=F D=T
   time step     :     0.1512500 fs     power     :   0.2211813E-09
   step length   :     0.0005550 a0     speed     :   0.8876411E-04

........................................................................
.............................. CYCLE   13 ..............................
........................................................................

 iter      E             dE          RMSdq      gap      omega  full diag
   1  -3478.9621237 -0.347896E+04  0.821E-05   11.43       0.0  T
   2  -3478.9621237 -0.156888E-08  0.478E-05   11.43      36.6  T
   3  -3478.9621237 -0.363798E-11  0.112E-05   11.43     156.4  T
     SCC iter.                  ...        2 min, 47.619 sec
     gradient                   ...        4 min,  9.929 sec
 * total energy  : -3427.6285050 Eh     change    :  -0.2871071E-05 Eh
   gradient norm :     0.0042558 Eh/a0  converged?    E=T G=F D=T
   time step     :     0.1512500 fs     power     :   0.2418884E-09
   step length   :     0.0006524 a0     speed     :   0.1043344E-03

........................................................................
.............................. CYCLE   14 ..............................
........................................................................

 iter      E             dE          RMSdq      gap      omega  full diag
   1  -3478.9613225 -0.347896E+04  0.103E-04   11.43       0.0  T
   2  -3478.9613225 -0.233922E-08  0.602E-05   11.43      29.1  T
   3  -3478.9613225 -0.850378E-10  0.139E-05   11.43     126.4  T
     SCC iter.                  ...        2 min, 41.652 sec
     gradient                   ...        4 min,  9.299 sec
 * total energy  : -3427.6285084 Eh     change    :  -0.3337943E-05 Eh
   gradient norm :     0.0039003 Eh/a0  converged?    E=T G=F D=T
   time step     :     0.1663750 fs     power     :   0.2535113E-09
   step length   :     0.0008271 a0     speed     :   0.1202486E-03

........................................................................
.............................. CYCLE   15 ..............................
........................................................................

 iter      E             dE          RMSdq      gap      omega  full diag
   1  -3478.9603765 -0.347896E+04  0.127E-04   11.43       0.0  T
   2  -3478.9603766 -0.347973E-08  0.744E-05   11.43      23.6  T
   3  -3478.9603766 -0.372893E-10  0.166E-05   11.43     105.5  T
     SCC iter.                  ...        2 min, 42.904 sec
     gradient                   ...        4 min,  9.520 sec
 * total energy  : -3427.6285121 Eh     change    :  -0.3739196E-05 Eh
   gradient norm :     0.0035070 Eh/a0  converged?    E=T G=F D=F
   time step     :     0.1830125 fs     power     :   0.2536291E-09
   step length   :     0.0010298 a0     speed     :   0.1361093E-03

........................................................................
.............................. CYCLE   16 ..............................
........................................................................

 iter      E             dE          RMSdq      gap      omega  full diag
   1  -3478.9593078 -0.347896E+04  0.154E-04   11.43       0.0  T
   2  -3478.9593078 -0.464570E-08  0.899E-05   11.43      19.5  T
   3  -3478.9593078 -0.145519E-09  0.192E-05   11.43      91.2  T
     SCC iter.                  ...        2 min, 46.926 sec
     gradient                   ...        4 min,  9.968 sec
 * total energy  : -3427.6285161 Eh     change    :  -0.3997521E-05 Eh
   gradient norm :     0.0031137 Eh/a0  converged?    E=T G=F D=F
   time step     :     0.2013138 fs     power     :   0.2411183E-09
   step length   :     0.0012598 a0     speed     :   0.1513748E-03

........................................................................
.............................. CYCLE   17 ..............................
........................................................................

 iter      E             dE          RMSdq      gap      omega  full diag
   1  -3478.9581741 -0.347896E+04  0.181E-04   11.43       0.0  T
   2  -3478.9581742 -0.585533E-08  0.106E-04   11.43      16.5  T
   3  -3478.9581742 -0.131422E-09  0.212E-05   11.43      82.6  T
     SCC iter.                  ...        2 min, 42.772 sec
     gradient                   ...        4 min,  8.367 sec
 * total energy  : -3427.6285202 Eh     change    :  -0.4064691E-05 Eh
   gradient norm :     0.0027885 Eh/a0  converged?    E=T G=F D=F
   time step     :     0.2214451 fs     power     :   0.2176136E-09
   step length   :     0.0015136 a0     speed     :   0.1653291E-03

........................................................................
.............................. CYCLE   18 ..............................
........................................................................

 iter      E             dE          RMSdq      gap      omega  full diag
   1  -3478.9570875 -0.347896E+04  0.207E-04   11.43       0.0  T
   2  -3478.9570875 -0.660202E-08  0.122E-04   11.43      14.4  T
   3  -3478.9570875 -0.124146E-09  0.220E-05   11.43      79.8  T
     SCC iter.                  ...        2 min, 50.320 sec
     gradient                   ...        4 min,  9.352 sec
 * total energy  : -3427.6285241 Eh     change    :  -0.3977305E-05 Eh
   gradient norm :     0.0026138 Eh/a0  converged?    E=T G=F D=F
   time step     :     0.2435896 fs     power     :   0.1889530E-09
   step length   :     0.0017833 a0     speed     :   0.1770869E-03

........................................................................
.............................. CYCLE   19 ..............................
........................................................................

 iter      E             dE          RMSdq      gap      omega  full diag
   1  -3478.9562211 -0.347896E+04  0.230E-04   11.43       0.0  T
   2  -3478.9562211 -0.620457E-08  0.136E-04   11.43      12.9  T
   3  -3478.9562211 -0.964064E-10  0.210E-05   11.43      83.6  T
     SCC iter.                  ...        2 min, 49.287 sec
     gradient                   ...        4 min,  9.333 sec
 * total energy  : -3427.6285280 Eh     change    :  -0.3858988E-05 Eh
   gradient norm :     0.0026181 Eh/a0  converged?    E=T G=F D=F
   time step     :     0.2679486 fs     power     :   0.1648314E-09
   step length   :     0.0020591 a0     speed     :   0.1858876E-03

........................................................................
.............................. CYCLE   20 ..............................
........................................................................

 iter      E             dE          RMSdq      gap      omega  full diag
   1  -3478.9557874 -0.347896E+04  0.250E-04   11.43       0.0  T
   2  -3478.9557874 -0.483169E-08  0.147E-04   11.43      11.9  T
   3  -3478.9557874 -0.150521E-09  0.188E-05   11.43      93.3  T
     SCC iter.                  ...        2 min, 42.574 sec
     gradient                   ...        4 min, 10.085 sec
 * total energy  : -3427.6285319 Eh     change    :  -0.3907140E-05 Eh
   gradient norm :     0.0027143 Eh/a0  converged?    E=T G=F D=F
   time step     :     0.2947435 fs     power     :   0.1542355E-09
   step length   :     0.0023393 a0     speed     :   0.1919812E-03
 * RMSD in coord.:     0.0006005 a0     energy gain  -0.3374766E-03 Eh

........................................................................
.............................. CYCLE   21 ..............................
........................................................................

 iter      E             dE          RMSdq      gap      omega  full diag
   1  -3478.9559104 -0.347896E+04  0.205E-04   11.43       0.0  T
   2  -3478.9559104 -0.204955E-08  0.121E-04   11.43      14.5  T
   3  -3478.9559104 -0.541149E-10  0.132E-05   11.43     133.2  T
     SCC iter.                  ...        2 min, 43.172 sec
     gradient                   ...        4 min,  9.858 sec
 * total energy  : -3427.6285352 Eh     change    :  -0.3304235E-05 Eh
   gradient norm :     0.0027417 Eh/a0  converged?    E=T G=F D=F
   time step     :     0.2500000 fs     power     :   0.1617069E-09
   step length   :     0.0020014 a0     speed     :   0.1936469E-03

........................................................................
.............................. CYCLE   22 ..............................
........................................................................

 iter      E             dE          RMSdq      gap      omega  full diag
   1  -3478.9565142 -0.347896E+04  0.200E-04   11.43       0.0  T
   2  -3478.9565142 -0.180853E-08  0.118E-04   11.43      14.9  T
   3  -3478.9565142  0.172804E-10  0.132E-05   11.43     132.7  T
     SCC iter.                  ...        2 min, 47.040 sec
     gradient                   ...        4 min,  9.813 sec
 * total energy  : -3427.6285387 Eh     change    :  -0.3497174E-05 Eh
   gradient norm :     0.0026439 Eh/a0  converged?    E=T G=F D=F
   time step     :     0.2500000 fs     power     :   0.1737143E-09
   step length   :     0.0020240 a0     speed     :   0.1958288E-03

........................................................................
.............................. CYCLE   23 ..............................
........................................................................

 iter      E             dE          RMSdq      gap      omega  full diag
   1  -3478.9575530 -0.347896E+04  0.201E-04   11.43       0.0  T
   2  -3478.9575530 -0.228056E-08  0.117E-04   11.43      15.0  T
   3  -3478.9575530 -0.304681E-10  0.144E-05   11.43     122.0  T
     SCC iter.                  ...        2 min, 45.774 sec
     gradient                   ...        4 min,  9.541 sec
 * total energy  : -3427.6285423 Eh     change    :  -0.3635279E-05 Eh
   gradient norm :     0.0024060 Eh/a0  converged?    E=T G=F D=F
   time step     :     0.2500000 fs     power     :   0.1806667E-09
   step length   :     0.0020596 a0     speed     :   0.1992774E-03

........................................................................
.............................. CYCLE   24 ..............................
........................................................................

 iter      E             dE          RMSdq      gap      omega  full diag
   1  -3478.9589534 -0.347896E+04  0.204E-04   11.43       0.0  T
   2  -3478.9589534 -0.326099E-08  0.118E-04   11.43      14.8  T
   3  -3478.9589534 -0.741238E-10  0.162E-05   11.43     108.1  T
     SCC iter.                  ...        2 min, 42.696 sec
     gradient                   ...        4 min,  9.107 sec
 * total energy  : -3427.6285459 Eh     change    :  -0.3606347E-05 Eh
   gradient norm :     0.0020516 Eh/a0  converged?    E=T G=F D=F
   time step     :     0.2500000 fs     power     :   0.1754184E-09
   step length   :     0.0021071 a0     speed     :   0.2038727E-03

........................................................................
.............................. CYCLE   25 ..............................
........................................................................

 iter      E             dE          RMSdq      gap      omega  full diag
   1  -3478.9606145 -0.347896E+04  0.208E-04   11.43       0.0  T
   2  -3478.9606145 -0.446016E-08  0.120E-04   11.43      14.6  T
   3  -3478.9606145 -0.130512E-09  0.182E-05   11.43      96.3  T
     SCC iter.                  ...        2 min, 42.111 sec
     gradient                   ...        4 min,  9.105 sec
 * total energy  : -3427.6285492 Eh     change    :  -0.3285922E-05 Eh
   gradient norm :     0.0016460 Eh/a0  converged?    E=T G=F D=F
   time step     :     0.2500000 fs     power     :   0.1553065E-09
   step length   :     0.0021599 a0     speed     :   0.2089863E-03

........................................................................
.............................. CYCLE   26 ..............................
........................................................................

 iter      E             dE          RMSdq      gap      omega  full diag
   1  -3478.9625838 -0.347896E+04  0.232E-04   11.43       0.0  T
   2  -3478.9625838 -0.647060E-08  0.133E-04   11.43      13.2  T
   3  -3478.9625838 -0.206001E-09  0.217E-05   11.43      80.8  T
     SCC iter.                  ...        2 min, 44.915 sec
     gradient                   ...        4 min, 10.166 sec
 * total energy  : -3427.6285522 Eh     change    :  -0.2973753E-05 Eh
   gradient norm :     0.0012988 Eh/a0  converged?    E=T G=F D=F
   time step     :     0.2750000 fs     power     :   0.1195617E-09
   step length   :     0.0024383 a0     speed     :   0.2144675E-03

........................................................................
.............................. CYCLE   27 ..............................
........................................................................

 iter      E             dE          RMSdq      gap      omega  full diag
   1  -3478.9646200 -0.347896E+04  0.247E-04   11.43       0.0  T
   2  -3478.9646200 -0.723549E-08  0.142E-04   11.43      12.4  T
   3  -3478.9646200 -0.154614E-09  0.226E-05   11.43      77.6  T
     SCC iter.                  ...        2 min, 43.445 sec
     gradient                   ...        4 min, 10.775 sec
 * total energy  : -3427.6285546 Eh     change    :  -0.2371230E-05 Eh
   gradient norm :     0.0012793 Eh/a0  converged?    E=T G=F D=F
   time step     :     0.3025000 fs     power     :   0.7872919E-10
   step length   :     0.0027216 a0     speed     :   0.2176312E-03

........................................................................
.............................. CYCLE   28 ..............................
........................................................................

 iter      E             dE          RMSdq      gap      omega  full diag
   1  -3478.9663090 -0.347897E+04  0.245E-04   11.43       0.0  T
   2  -3478.9663090 -0.525779E-08  0.141E-04   11.43      12.4  T
   3  -3478.9663090 -0.257387E-09  0.190E-05   11.43      92.4  T
     SCC iter.                  ...        2 min, 47.678 sec
     gradient                   ...        4 min, 10.045 sec
 * total energy  : -3427.6285564 Eh     change    :  -0.1835376E-05 Eh
   gradient norm :     0.0015493 Eh/a0  converged?    E=T G=F D=F
   time step     :     0.3327500 fs     power     :   0.5333706E-10
   step length   :     0.0029428 a0     speed     :   0.2139265E-03

........................................................................
.............................. CYCLE   29 ..............................
........................................................................

 iter      E             dE          RMSdq      gap      omega  full diag
   1  -3478.9673197 -0.347897E+04  0.231E-04   11.43       0.0  T
   2  -3478.9673197 -0.254840E-08  0.134E-04   11.43      13.1  T
   3  -3478.9673197 -0.229647E-09  0.134E-05   11.43     130.4  T
     SCC iter.                  ...        2 min, 41.014 sec
     gradient                   ...        4 min, 10.365 sec
 * total energy  : -3427.6285582 Eh     change    :  -0.1769909E-05 Eh
   gradient norm :     0.0020545 Eh/a0  converged?    E=T G=F D=F
   time step     :     0.3660250 fs     power     :   0.5030346E-10
   step length   :     0.0031105 a0     speed     :   0.2055591E-03

........................................................................
.............................. CYCLE   30 ..............................
........................................................................

 iter      E             dE          RMSdq      gap      omega  full diag
   1  -3478.9675145 -0.347897E+04  0.221E-04   11.43       0.0  T
   2  -3478.9675145 -0.161162E-08  0.129E-04   11.43      13.6  T
   3  -3478.9675145 -0.136424E-09  0.115E-05   11.43     152.4  T
     SCC iter.                  ...        2 min, 42.962 sec
     gradient                   ...        4 min, 10.213 sec
 * total energy  : -3427.6285603 Eh     change    :  -0.2133967E-05 Eh
   gradient norm :     0.0017857 Eh/a0  converged?    E=T G=F D=F
   time step     :     0.4026275 fs     power     :   0.6034198E-10
   step length   :     0.0032921 a0     speed     :   0.1977784E-03

........................................................................
.............................. CYCLE   31 ..............................
........................................................................

 iter      E             dE          RMSdq      gap      omega  full diag
   1  -3478.9667688 -0.347897E+04  0.218E-04   11.43       0.0  T
   2  -3478.9667688 -0.318323E-08  0.128E-04   11.43      13.7  T
   3  -3478.9667688 -0.252840E-09  0.137E-05   11.43     127.6  T
     SCC iter.                  ...        2 min, 42.847 sec
     gradient                   ...        4 min,  9.469 sec
 * total energy  : -3427.6285630 Eh     change    :  -0.2659624E-05 Eh
   gradient norm :     0.0015606 Eh/a0  converged?    E=T G=F D=F
   time step     :     0.4428903 fs     power     :   0.6868570E-10
   step length   :     0.0035446 a0     speed     :   0.1935891E-03

........................................................................
.............................. CYCLE   32 ..............................
........................................................................

 iter      E             dE          RMSdq      gap      omega  full diag
   1  -3478.9652403 -0.347897E+04  0.222E-04   11.43       0.0  T
   2  -3478.9652403 -0.685077E-08  0.131E-04   11.43      13.4  T
   3  -3478.9652403 -0.210548E-09  0.202E-05   11.43      86.9  T
     SCC iter.                  ...        2 min, 44.984 sec
     gradient                   ...        4 min, 11.723 sec
 * total energy  : -3427.6285658 Eh     change    :  -0.2819215E-05 Eh
   gradient norm :     0.0013194 Eh/a0  converged?    E=T G=F D=F
   time step     :     0.4871793 fs     power     :   0.6165048E-10
   step length   :     0.0038828 a0     speed     :   0.1927841E-03

........................................................................
.............................. CYCLE   33 ..............................
........................................................................

 iter      E             dE          RMSdq      gap      omega  full diag
   1  -3478.9635101 -0.347896E+04  0.213E-04   11.43       0.0  T
   2  -3478.9635101 -0.804448E-08  0.125E-04   11.43      14.0  T
   3  -3478.9635101 -0.200998E-09  0.226E-05   11.43      77.4  T
     SCC iter.                  ...        2 min, 41.317 sec
     gradient                   ...        4 min,  9.827 sec
 * total energy  : -3427.6285684 Eh     change    :  -0.2615646E-05 Eh
   gradient norm :     0.0014312 Eh/a0  converged?    E=T G=F D=F
   time step     :     0.5358972 fs     power     :   0.4901541E-10
   step length   :     0.0042598 a0     speed     :   0.1922746E-03

........................................................................
.............................. CYCLE   34 ..............................
........................................................................

 iter      E             dE          RMSdq      gap      omega  full diag
   1  -3478.9624847 -0.347896E+04  0.185E-04   11.43       0.0  T
   2  -3478.9624847 -0.355112E-08  0.110E-04   11.43      16.0  T
   3  -3478.9624847 -0.188265E-09  0.130E-05   11.43     135.1  T
     SCC iter.                  ...        2 min, 51.329 sec
     gradient                   ...        4 min, 10.599 sec
 * total energy  : -3427.6285712 Eh     change    :  -0.2837598E-05 Eh
   gradient norm :     0.0016623 Eh/a0  converged?    E=T G=F D=F
   time step     :     0.5894869 fs     power     :   0.5473272E-10
   step length   :     0.0046240 a0     speed     :   0.1897390E-03

........................................................................
.............................. CYCLE   35 ..............................
........................................................................

 iter      E             dE          RMSdq      gap      omega  full diag
   1  -3478.9628288 -0.347896E+04  0.196E-04   11.43       0.0  T
   2  -3478.9628288 -0.104410E-08  0.115E-04   11.43      15.3  T
   3  -3478.9628288 -0.135060E-09  0.775E-06   11.43     226.1  T
     SCC iter.                  ...        2 min, 46.521 sec
     gradient                   ...        4 min,  8.463 sec
 * total energy  : -3427.6285752 Eh     change    :  -0.3992444E-05 Eh
   gradient norm :     0.0015650 Eh/a0  converged?    E=T G=F D=F
   time step     :     0.6484356 fs     power     :   0.7504226E-10
   step length   :     0.0050882 a0     speed     :   0.1898059E-03

........................................................................
.............................. CYCLE   36 ..............................
........................................................................

 iter      E             dE          RMSdq      gap      omega  full diag
   1  -3478.9646890 -0.347896E+04  0.265E-04   11.43       0.0  T
   2  -3478.9646890 -0.765795E-08  0.153E-04   11.43      11.4  T
   3  -3478.9646890 -0.179170E-09  0.228E-05   11.43      76.7  T
     SCC iter.                  ...        2 min, 47.838 sec
     gradient                   ...        4 min,  8.717 sec
 * total energy  : -3427.6285802 Eh     change    :  -0.4945231E-05 Eh
   gradient norm :     0.0011811 Eh/a0  converged?    E=T G=F D=F
   time step     :     0.7132792 fs     power     :   0.7910334E-10
   step length   :     0.0057757 a0     speed     :   0.1958679E-03

........................................................................
.............................. CYCLE   37 ..............................
........................................................................

 iter      E             dE          RMSdq      gap      omega  full diag
   1  -3478.9671976 -0.347897E+04  0.314E-04   11.43       0.0  T
   2  -3478.9671976 -0.139953E-07  0.182E-04   11.43       9.6  T
   3  -3478.9671976 -0.433829E-09  0.323E-05   11.43      54.2  T
     SCC iter.                  ...        2 min, 44.522 sec
     gradient                   ...        4 min,  9.960 sec
 * total energy  : -3427.6285849 Eh     change    :  -0.4721557E-05 Eh
   gradient norm :     0.0012330 Eh/a0  converged?    E=T G=F D=F
   time step     :     0.7846071 fs     power     :   0.6183517E-10
   step length   :     0.0066364 a0     speed     :   0.2045954E-03

........................................................................
.............................. CYCLE   38 ..............................
........................................................................

 iter      E             dE          RMSdq      gap      omega  full diag
   1  -3478.9683958 -0.347897E+04  0.293E-04   11.43       0.0  T
   2  -3478.9683958 -0.740329E-08  0.172E-04   11.43      10.2  T
   3  -3478.9683958 -0.296041E-09  0.251E-05   11.43      69.7  T
     SCC iter.                  ...        2 min, 45.634 sec
     gradient                   ...        4 min,  9.996 sec
 * total energy  : -3427.6285898 Eh     change    :  -0.4856753E-05 Eh
   gradient norm :     0.0013653 Eh/a0  converged?    E=T G=F D=F
   time step     :     0.8630678 fs     power     :   0.6384725E-10
   step length   :     0.0074501 a0     speed     :   0.2088001E-03

........................................................................
.............................. CYCLE   39 ..............................
........................................................................

 iter      E             dE          RMSdq      gap      omega  full diag
   1  -3478.9673799 -0.347897E+04  0.317E-04   11.43       0.0  T
   2  -3478.9673799 -0.103901E-07  0.185E-04   11.43       9.5  T
   3  -3478.9673799 -0.405180E-09  0.312E-05   11.43      56.2  T
     SCC iter.                  ...        2 min, 43.857 sec
     gradient                   ...        4 min,  9.975 sec
 * total energy  : -3427.6285955 Eh     change    :  -0.5757128E-05 Eh
   gradient norm :     0.0010653 Eh/a0  converged?    E=F G=F D=F
   time step     :     0.9493746 fs     power     :   0.6698887E-10
   step length   :     0.0084161 a0     speed     :   0.2144307E-03

........................................................................
.............................. CYCLE   40 ..............................
........................................................................

 iter      E             dE          RMSdq      gap      omega  full diag
   1  -3478.9656639 -0.347897E+04  0.338E-04   11.43       0.0  T
   2  -3478.9656639 -0.123068E-07  0.196E-04   11.43       9.0  T
   3  -3478.9656639 -0.469299E-09  0.300E-05   11.43      58.4  T
     SCC iter.                  ...        2 min, 43.450 sec
     gradient                   ...        4 min,  9.249 sec
 * total energy  : -3427.6286011 Eh     change    :  -0.5585804E-05 Eh
   gradient norm :     0.0013022 Eh/a0  converged?    E=F G=F D=F
   time step     :     1.0443120 fs     power     :   0.5465855E-10
   step length   :     0.0096000 a0     speed     :   0.2223592E-03

........................................................................
.............................. CYCLE   41 ..............................
........................................................................

 iter      E             dE          RMSdq      gap      omega  full diag
   1  -3478.9664362 -0.347897E+04  0.318E-04   11.43       0.0  T
   2  -3478.9664362 -0.393447E-08  0.186E-04   11.43       9.4  T
   3  -3478.9664362 -0.435193E-09  0.126E-05   11.43     139.6  T
     SCC iter.                  ...        2 min, 45.772 sec
     gradient                   ...        4 min, 10.510 sec
 * total energy  : -3427.6286080 Eh     change    :  -0.6927679E-05 Eh
   gradient norm :     0.0012236 Eh/a0  converged?    E=F G=F D=F
   time step     :     1.1487432 fs     power     :   0.7192764E-10
   step length   :     0.0107814 a0     speed     :   0.2270211E-03

........................................................................
.............................. CYCLE   42 ..............................
........................................................................

 iter      E             dE          RMSdq      gap      omega  full diag
   1  -3478.9690335 -0.347897E+04  0.400E-04   11.43       0.0  T
   2  -3478.9690335 -0.200639E-07  0.233E-04   11.43       7.5  T
   3  -3478.9690335 -0.538421E-09  0.348E-05   11.43      50.3  T
     SCC iter.                  ...        2 min, 50.753 sec
     gradient                   ...        4 min, 11.691 sec
 * total energy  : -3427.6286161 Eh     change    :  -0.8053134E-05 Eh
   gradient norm :     0.0012165 Eh/a0  converged?    E=F G=F D=F
   time step     :     1.2500000 fs     power     :   0.6861526E-10
   step length   :     0.0122991 a0     speed     :   0.2380009E-03
 * RMSD in coord.:     0.0015941 a0     energy gain  -0.8418500E-04 Eh

........................................................................
.............................. CYCLE   43 ..............................
........................................................................

 iter      E             dE          RMSdq      gap      omega  full diag
   1  -3478.9691442 -0.347897E+04  0.628E-05   11.43       0.0  T
   2  -3478.9691442 -0.149157E-09  0.369E-05   11.43      47.5  T
   3  -3478.9691442 -0.227374E-11  0.243E-06   11.43     722.4  T
     SCC iter.                  ...        2 min, 47.698 sec
     gradient                   ...        4 min, 10.683 sec
 * total energy  : -3427.6286176 Eh     change    :  -0.1541523E-05 Eh
   gradient norm :     0.0012430 Eh/a0  converged?    E=T G=F D=F
   time step     :     0.2500000 fs     power     :   0.7936296E-10
   step length   :     0.0023683 a0     speed     :   0.2291411E-03

........................................................................
.............................. CYCLE   44 ..............................
........................................................................

 iter      E             dE          RMSdq      gap      omega  full diag
   1  -3478.9688736 -0.347897E+04  0.616E-05   11.43       0.0  T
   2  -3478.9688736 -0.283308E-09  0.360E-05   11.43      48.7  T
   3  -3478.9688736  0.827640E-10  0.421E-06   11.43     416.2  T
     SCC iter.                  ...        2 min, 46.542 sec
     gradient                   ...        4 min,  9.870 sec
 * total energy  : -3427.6286193 Eh     change    :  -0.1706350E-05 Eh
   gradient norm :     0.0011665 Eh/a0  converged?    E=T G=F D=F
   time step     :     0.2500000 fs     power     :   0.8865877E-10
   step length   :     0.0023042 a0     speed     :   0.2229447E-03

........................................................................
.............................. CYCLE   45 ..............................
........................................................................

 iter      E             dE          RMSdq      gap      omega  full diag
   1  -3478.9682935 -0.347897E+04  0.722E-05   11.43       0.0  T
   2  -3478.9682935 -0.653927E-09  0.419E-05   11.43      41.8  T
   3  -3478.9682935 -0.363798E-10  0.717E-06   11.43     244.3  T
     SCC iter.                  ...        2 min, 45.569 sec
     gradient                   ...        4 min, 10.890 sec
 * total energy  : -3427.6286211 Eh     change    :  -0.1781536E-05 Eh
   gradient norm :     0.0010271 Eh/a0  converged?    E=T G=F D=F
   time step     :     0.2500000 fs     power     :   0.9219856E-10
   step length   :     0.0022715 a0     speed     :   0.2197846E-03

........................................................................
.............................. CYCLE   46 ..............................
........................................................................

 iter      E             dE          RMSdq      gap      omega  full diag
   1  -3478.9675191 -0.347897E+04  0.825E-05   11.43       0.0  T
   2  -3478.9675191 -0.123055E-08  0.479E-05   11.43      36.6  T
   3  -3478.9675191 -0.591172E-11  0.952E-06   11.43     184.1  T
     SCC iter.                  ...        2 min, 46.092 sec
     gradient                   ...        4 min, 11.191 sec
 * total energy  : -3427.6286229 Eh     change    :  -0.1773893E-05 Eh
   gradient norm :     0.0009064 Eh/a0  converged?    E=T G=T D=F
   time step     :     0.2500000 fs     power     :   0.8958236E-10
   step length   :     0.0022665 a0     speed     :   0.2192914E-03

   *** GEOMETRY OPTIMIZATION CONVERGED AFTER 46 CYCLES ***

------------------------------------------------------------------------
 total energy gain   :        -0.0004285 Eh       -0.2689 kcal/mol
 total RMSD          :         0.0019882 a0        0.0011 Å
 total power (kW/mol):        -0.0244551 (step)   -0.0001 (real)
------------------------------------------------------------------------

 FIRE (total)                  0 d,  5 h, 32 min, 42.804 sec
 setup                          ...        0 min,  0.121 sec (  0.001%)
 velocities                     ...        0 min,  0.003 sec (  0.000%)
 propagation                    ...        0 min,  0.005 sec (  0.000%)
 singlepoint calculation        ...      332 min, 41.926 sec ( 99.996%)
 log and printout               ...        0 min,  0.695 sec (  0.003%)
 preconditioner                 ...        0 min,  0.000 sec (  0.000%)
 model hessian                  ...        0 min,  0.000 sec (  0.000%)
 hessian update                 ...        0 min,  0.000 sec (  0.000%)

================
 final structure:
================
3258
 xtb: 6.6.1 (8d0f1dd)
C           92.16261762162907      106.21468722625214      104.78133188069917
C           92.93802889096271      106.53934849795272      103.51037733577046
C           94.34847379902070      107.03120392093726      103.82355175193111
C           95.09619665896923      107.51457605291819      102.58264904861976
C           96.43550308271389      108.14611745303162      102.95301642730423
C           97.16494152414244      108.77670893115416      101.76887975201902
C           98.50492680203577      109.36170926637487      102.20631433317111
C           99.29214199039411      110.02032818338398      101.07670809503789
C          100.65624688707094      110.49379338648781      101.57282912500236
C          101.50636279088035      111.15764318385604      100.49260445399476
C          102.90718042542576      111.46859498366774      101.01443693308633
C          103.79320234835225      112.17973662911790       99.99479522020258
C          105.21582789546027      112.34459184618667      100.52402902209617
C          106.13135194359425      113.10904585390128       99.57153303799230
C          107.55838746356621      113.17353480509298      100.11080867099905
C          108.49457135999684      113.99878490408477       99.23248155457193
C          109.91573788122909      114.01578100565278       99.79157460589775
C          110.84299043483408      114.94545832469953       99.01427133573192
C          112.25668786220727      114.96057440718575       99.59335114650102
C          113.13244803355380      116.02316059940851       98.93541994725867
C          114.54834540025051      116.05758309429265       99.50670050497482
C          115.35370775393828      117.22299436729664       98.93652839281953
C          116.77936611983786      117.26923426864619       99.47862547334151
C          117.61139658031573      118.40943884405917       98.88689331627023
C          117.28035808011305      119.76857238818847       99.49724648811244
C          118.06578275845884      120.90246988744309       98.83957224794666
C          117.94961552931137      122.22714869647523       99.59651598783489
C          116.54135823949646      122.81898030523845       99.57363740246988
C          116.42374576866688      124.04261684301147      100.48053015226948
C          115.02410586897493      124.66119087935341      100.48907258524864
C          113.95233738959784      123.69557489986839      100.99132400920540
C          112.61543296471980      124.37923046525576      101.27097403592069
C          111.54611564906995      123.35172074262356      101.63569734655427
C          110.22459616439289      123.98197717133939      102.06615697422916
C          109.17293563814513      122.91913089010848      102.37828673180304
C          107.83480115219513      123.52335865347740      102.79616564502550
C          106.76946956085635      122.45201597039038      103.01871552113323
C          105.41900484334150      123.05048722625425      103.40754425785778
C          104.33878236551244      121.97747432273378      103.52349113653129
C          102.95055843619885      122.53424306578169      103.84230527126506
C          102.80507242915562      123.03944905002456      105.27706224400107
C          101.38305067846741      123.52635371769988      105.55228463463290
C          101.14939127254664      123.98804983800726      106.99287246483073
C          101.20291927141966      122.83350673120638      107.99072552905952
C          100.79821330243112      123.21199921464819      109.41654101556138
C           99.35446209155022      123.69738923624219      109.58757105990242
C           98.28980158860230      122.80556096908921      108.94620383160022
C           98.25448843630338      121.39017525461338      109.51693190601729
C           97.23419489187398      120.48642312703275      108.82054932050929
C           97.53885368981589      120.17101571196561      107.35352419738082
C           98.80268515227397      119.33693863601847      107.14898189677625
C           99.13076045666848      119.17323771614470      105.66638308483553
C          100.39746464631978      118.35785449154994      105.40027601612317
C          101.65413018880395      118.97319701256373      106.01795748537717
C          102.93689125318153      118.43263780964188      105.38805502083693
C          104.17649627765478      118.93134959797040      106.12676371771434
C          105.48026742018813      118.58340242966332      105.41281101074725
C          106.68904699265458      119.17138540563631      106.13709913303886
C          108.00597823874085      118.88882561319534      105.42022296165295
C          109.18800318482823      119.58097041247835      106.09660632874773
C          110.50729481878328      119.24932585233304      105.40367857473692
C          111.70492431289003      120.03211806507127      105.94344770739272
C          111.69284181188428      121.50250776333483      105.52872537284119
C          112.97547433750158      122.22965655490593      105.92553590690333
C          112.96671965565591      123.68766059508123      105.46853246094562
C          114.15746401514147      124.49741849559699      105.98360407061428
C          115.49543698795607      124.01133853845977      105.43190628614074
C          116.66045143617603      124.95250942533183      105.74325301458727
C          116.91916911444473      125.18978335228371      107.23249538534309
C          117.17024239951543      123.91187509332320      108.03072541442904
C          117.59839272558447      124.22104898707890      109.46523372162680
C          117.63200347448787      122.96008600964649      110.32476453682544
C          118.12710832162058      123.18486068879108      111.75359020325715
C          117.33764579279271      124.21528988762176      112.56556156878733
C          115.82915436223558      123.97498773619553      112.64904541509205
C          115.44957877826090      122.63371646366399      113.27264716246461
C          113.94555337608264      122.54127743127306      113.52501465070493
C          113.51749086232446      121.15594633979705      114.00285843318886
C          112.00887493893947      121.04163077871715      114.21294176467065
C          111.59816981770054      119.63499153166379      114.64300156791380
C          110.08496490610891      119.47666606569032      114.76807028320886
C          109.69117897746818      118.06885896584728      115.21297704891930
C          108.18498516967014      117.92425656902915      115.42045724001494
C          107.77547058283294      116.49280476253998      115.76034474745516
C          106.27430083653391      116.36900195581370      116.01598463349379
C          105.83701193956254      114.92069289019616      116.22429028546416
C          104.33658638358861      114.80096076775996      116.48340943965140
C          103.88525739449504      113.34757861622666      116.61193331547987
C          102.39060071304067      113.23015162135901      116.90296772342607
C          101.92798501957354      111.77677539469767      116.98087723380272
C          100.44618772700728      111.66067910155353      117.33158777830232
C           99.97517782055003      110.20851504985079      117.38219190136361
C           98.51632549657803      110.09409658291197      117.82072685307807
C           98.04418597484107      108.64728592235274      117.97225115850296
C           97.72244065616640      107.95334805465887      116.64961002085033
C           97.54469232138459      106.45003332850527      116.84752206969235
C           96.88384762476755      105.74263213046149      115.66574498495888
C           97.71141588954120      105.78380764779685      114.38230901239146
C           97.17205757796474      104.80705593691310      113.33891541467565
C           98.02673850507885      104.76086457319346      112.07421362597223
C           97.52942667860917      103.69017890899235      111.10421529405883
C           98.35283397073430      103.58909482020134      109.81892616373591
C           99.75153513117816      103.02123013681386      110.04443149224848
C          100.57827179659820      102.97260252754972      108.76177797303704
C          102.05011917229361      102.68593055946896      109.04903122540728
C          102.90501245071538      102.73121240728696      107.78592944040327
C          104.39462785342322      102.59899244814004      108.09007202712108
C          105.25229398581769      102.71805907100682      106.83388865926909
C          106.74472245275344      102.63083213819989      107.13934887203855
C          107.59727243879254      102.82363278084591      105.88916527035737
C          109.09130696095237      102.73705738590658      106.18474014815033
C          109.93264546929716      102.96545298143937      104.93256051506710
C          111.42534809073219      102.82140913622547      105.20784953698637
C          112.26594503948110      103.01881286979607      103.94992462795322
C          113.73991592856721      102.71816464836463      104.20019719083119
C          114.57707499188098      102.80480186612341      102.92777839345310
C          115.99545324006452      102.28424219909768      103.14314963652507
C          116.79311149153574      102.22663686253624      101.84370621789708
C          118.11905540824421      101.49104966364978      102.01460215763966
C          118.86873514840447      101.36013942850811      100.69528269851715
H          118.73982822337025      102.02032124321883      102.73999562446562
H          117.92200421264370      100.49430740977090      102.41705560750678
H          116.19946304726986      101.71025892334316      101.08597037932995
H          116.98001793776315      103.24193803935005      101.48490267091231
H          116.51446045174703      102.91613089222577      103.86797025945140
H          115.93887835172238      101.27786525423309      103.56661793654521
H          114.09808707708440      102.20563467804152      102.14915814629670
H          114.61128082559073      103.83922580281241      102.57710533987645
H          114.13339962024497      103.40921932780508      104.94844487582786
H          113.82580938290066      101.70884127858923      104.61063450446045
H          111.89672571288439      102.35195120390566      103.16610572338963
H          112.15566512253606      104.04474050845421      103.59070623293350
H          111.72644465514230      103.54828968668608      105.96566285034416
H          111.61833156861741      101.82554896808520      105.61309074101027
H          109.63937382154148      102.24225278182983      104.16665487363514
H          109.73238940647056      103.96431161406252      104.53752320935759
H          109.35456360047587      103.48186495278212      106.93927912074825
H          109.32232595852301      101.75326976040357      106.59903413332509
H          107.33297978353379      102.06090053414731      105.15152168003549
H          107.37508790499379      103.79872879277825      105.44896193918042
H          107.00768457667128      103.39495314142987      107.87446235136107
H          106.96678352601361      101.65695303442702      107.58063989496800
H          104.98142265962380      101.92360634260295      106.13334119303710
H          105.04106335450651      103.67247576850990      106.34609164262281
H          104.68536136649959      103.38405599341733      108.79195802957898
H          104.58256459461334      101.63563820238609      108.57038038655838
H          102.59751761106766      101.92942701538206      107.10960604661041
H          102.72873156939541      103.67806974425882      107.27100412804438
H          102.42242708051931      103.43291343270415      109.75536087376310
H          102.14863795754533      101.70757148390319      109.52573919506058
H          100.17628425658154      102.20975829351526      108.09069878231803
H          100.50013773202902      103.93222330363032      108.24634014846261
H          100.27846520461468      103.63310037613587      110.77871282864189
H           99.67065877981126      102.01622433942988      110.45847157427613
H           97.82415993252850      102.94796598405189      109.10914871961150
H           98.43542475578070      104.58147065130248      109.36885230846850
H           97.53482692864306      102.72085851409867      111.61008278675388
H           96.49329744948957      103.91758677498255      110.84042252877533
H           98.01270869360117      105.73605096117618      111.58248670348577
H           99.05926799754864      104.55067036478486      112.35851818048636
H           97.13917521183308      103.80539673666830      113.77629949677305
H           96.14712747799300      105.08438723768882      113.07791517135568
H           97.71190237711795      106.79488658723275      113.97142944414816
H           98.74536012959325      105.52031914776492      114.61802522318064
H           96.72564389552403      104.69544524671015      115.93960467089460
H           95.90175939884632      106.18482834579605      115.48131880948429
H           98.52170758806147      105.99749352894442      117.03402087865952
H           96.93094610472616      106.28766680491223      117.73714863728732
H           96.80160410983221      108.37210395873471      116.23796539165716
H           98.52414029414759      108.13175699747872      115.93240344663255
H           98.81938606438010      108.07841238414903      118.48831107388797
H           97.15160528255841      108.62534852991614      118.60270499619185
H           98.40360049392935      110.60115443102377      118.78186885784314
H           97.87823031206806      110.61361218038532      117.10465418205519
H          100.10359990371450      109.75229898227126      116.39791005436923
H          100.60359092398922      109.65445233319916      118.08382257537144
H          100.27106243909137      112.12812349897825      118.30406772673308
H           99.85592091776644      112.21001108250893      116.59503129006715
H          102.11125308350690      111.28630484997586      116.02097165770246
H          102.51930310081690      111.24774611291915      117.73196816478061
H          102.16735865575436      113.72975507146543      117.84930764414661
H          101.82970011902270      113.74467540980295      116.11963897934730
H          104.11401469578929      112.81584027140161      115.68440712230650
H          104.44966885519537      112.86101494136709      117.41102397791953
H          104.08286389810738      115.34071236932010      117.39979372435550
H          103.79261017320363      115.27273824425517      115.66212127693289
H          106.09461066189343      114.33610829655686      115.33704055700910
H          106.38734730179358      114.49211881696924      117.06500878634834
H          106.00699115247419      116.95772657867549      116.89784266311645
H          105.73108898880807      116.78542412015909      115.16487030722438
H          108.05408026690529      115.83405194797633      114.93348168496289
H          108.32496689364524      116.15787816346668      116.64312046399509
H          107.86661711081801      118.58816876662036      116.22854133678737
H          107.66641275375561      118.23996616470126      114.51306818000171
H          110.01978127001313      117.34985821396985      114.45767848050026
H          110.21126472258263      117.82441387674615      116.14242778797056
H          109.70669085627573      120.20440518677344      115.48867750580317
H          109.61861717957839      119.69366952783750      113.80528406714558
H          111.97228291792985      118.91574565612520      113.90963115852827
H          112.06525709417815      119.40268658406796      115.60266219375281
H          111.69031441082279      121.75997499454688      114.97180325789448
H          111.49709058452518      121.29597826900417      113.28185665586039
H          113.82657414713110      120.41930586482694      113.25809065361990
H          114.02993198754787      120.92056232049374      114.93911919754117
H          113.66241481788106      123.28769586933070      114.27090474958463
H          113.41534902678148      122.78026004054919      112.59929606152852
H          115.74960687982768      121.82390479108101      112.60702828633677
H          115.98475328918808      122.50601318316257      114.21672462414230
H          115.39433870257510      124.77815449719161      113.25057519304438
H          115.38689553557907      124.04347686335731      111.65343588154768
H          117.74593910386800      124.22544997711513      113.57977287020637
H          117.50560791509180      125.20773166764914      112.14186689079075
H          118.10600566637412      122.22585105118762      112.27594874306175
H          119.16939356863222      123.51328815700079      111.71886782635234
H          116.63116926092991      122.52634763088497      110.35543610560647
H          118.29095223880125      122.22795330966004      109.84868222439462
H          118.58566257092916      124.68930316312991      109.46074422240267
H          116.89532565075139      124.93750031173393      109.89395780315832
H          116.25818438974571      123.31244355804445      108.05840186987432
H          117.94297497336726      123.31541825590364      107.53937173055901
H          117.79346118985198      125.83990024584064      107.32461563429830
H          116.07284454252867      125.72384006086855      107.66929736678628
H          117.56669447196893      124.54222937828378      105.28936307575259
H          116.46934998840642      125.91889232873207      105.26952077380398
H          115.71706245372300      123.02103308895830      105.83189341161297
H          115.41620543251570      123.92182600933629      104.34464902576147
H          114.01815521005916      125.54271336364047      105.69579719287334
H          114.17150252592363      124.45267401820223      107.07335990785886
H          112.95300273389704      123.72355152008873      104.37714329529400
H          112.04647105185393      124.15846275755790      105.82419720539188
H          113.08965365558136      122.19284555577516      107.01198717475637
H          113.82770530862540      121.70803695846932      105.48491461930553
H          111.57346235853639      121.56206446079223      104.44402894004776
H          110.84008569621884      122.01305133595352      105.98065083464556
H          111.72960947390733      119.95521764681865      107.03265423986852
H          112.62101996918673      119.57411171043931      105.56123671679579
H          110.70196907749791      118.18007749080920      105.52250156614157
H          110.40771414207263      119.44795256685239      104.33556452965196
H          109.02115691111132      120.65978152078583      106.07746746326625
H          109.24250635335252      119.27014812840861      107.14338268442833
H          108.18181591115007      117.81055215162307      105.39796776927876
H          107.93512533192576      119.23052159649382      104.38501061840994
H          106.55582908134606      120.25276562499633      106.22648320148259
H          106.73836104935900      118.75948265154277      107.14826084717387
H          105.58391440778688      117.49753729718967      105.34927976587893
H          105.44940559848496      118.96797131238264      104.39070784179980
H          104.11125802355906      120.01691275250303      106.23512749785053
H          104.19178012662294      118.50563515061047      107.13224507956731
H          102.91859016148932      117.33975789220689      105.40125911676977
H          102.98513096815354      118.74701630305428      104.34303617211290
H          101.62840853280967      120.05672503183074      105.88165768374783
H          101.67444140066722      118.77280220627169      107.09096653074174
H          100.26565470395138      117.34171988433246      105.78091003825736
H          100.53467614414419      118.28835845412512      104.31850122967164
H           98.28756841868690      118.69135960472705      105.16429714861550
H           99.25138226244067      120.16415672662892      105.21968854401693
H           99.64297737474639      119.82350925519980      107.64322403528797
H           98.67119364930880      118.35367636913971      107.60623724739676
H           96.68786043036862      119.62727901147142      106.93456895812422
H           97.62973229243708      121.10192521951028      106.79060549772836
H           97.17257476405301      119.54629414628670      109.37299108908597
H           96.25140032867309      120.96162357128533      108.87416854337805
H           99.24355865974387      120.93998144934844      109.44742575595657
H           98.00098429364253      121.44332410089463      110.57917999126380
H           97.31201672555194      123.27102127300037      109.09856056668531
H           98.46319119778509      122.76640867263494      107.87127328431760
H           99.15324063943595      123.78015761494945      110.65900911916597
H           99.26043142384033      124.69995092516463      109.16421955329162
H          100.95913648093055      122.34117228952896      110.05572532496672
H          101.46503492241034      123.99973586824453      109.77629393646060
H          100.56356953947967      122.02553067480230      107.63228812430168
H          102.22393523175248      122.44941330371165      108.03049250172474
H          101.89441013450039      124.74000102775992      107.26301974225035
H          100.16797307157202      124.46292662836197      107.04242081864456
H          101.16314430989544      124.35569025569812      104.87516341330050
H          100.67859077589038      122.72226995248938      105.32080021673831
H          103.05674277384111      122.22784445162667      105.96229732930937
H          103.50329676291334      123.85826358212306      105.45850619776834
H          102.71835855855554      123.34447730272527      103.14700038455901
H          102.21384482234808      121.74262188154346      103.68002389513593
H          104.28690271697074      121.43726975244653      102.57394897421668
H          104.62495868389340      121.26081607295963      104.29473287760213
H          105.52230923855220      123.57964869503378      104.35658736317585
H          105.11922826552490      123.78077319636748      102.65197940821940
H          106.65313870888610      121.87121817800659      102.09965741955514
H          107.10131147223848      121.76666299131648      103.80262590582214
H          107.96779166821398      124.10222270513869      103.71329259464389
H          107.49317869748263      124.21186656080889      102.01957914459139
H          109.02374359359904      122.29579349995151      101.49292532211052
[...]
  3011   6 C     3012   6 C                                       1.5256787
  3012   6 C     3013   6 C                                       1.5268639
  3013   6 C     3014   6 C                                       1.5260903
  3014   6 C     3015   6 C                                       1.5266373
  3015   6 C     3016   6 C                                       1.5236478
  3015   6 C     3017   1 H                                       1.0924698
  3015   6 C     3018   1 H                                       1.0925846
  3014   6 C     3019   1 H                                       1.0928721
  3014   6 C     3020   1 H                                       1.0926784
  3013   6 C     3021   1 H                                       1.0924594
  3013   6 C     3022   1 H                                       1.0931882
  3012   6 C     3023   1 H                                       1.0925943
  3012   6 C     3024   1 H                                       1.0924179
  3011   6 C     3025   1 H                                       1.0919361
  3011   6 C     3026   1 H                                       1.0936690
  3010   6 C     3027   1 H                                       1.0918544
  3010   6 C     3028   1 H                                       1.0924165
  3009   6 C     3029   1 H                                       1.0931101
  3009   6 C     3030   1 H                                       1.0932568
  3008   6 C     3031   1 H                                       1.0921594
  3008   6 C     3032   1 H                                       1.0928084
  3007   6 C     3033   1 H                                       1.0935423
  3007   6 C     3034   1 H                                       1.0926544
  3006   6 C     3035   1 H                                       1.0917620
  3006   6 C     3036   1 H                                       1.0920794
  3005   6 C     3037   1 H                                       1.0931270
  3005   6 C     3038   1 H                                       1.0921494
  3004   6 C     3039   1 H                                       1.0926563
  3004   6 C     3040   1 H                                       1.0925301
  3003   6 C     3041   1 H                                       1.0931812
  3003   6 C     3042   1 H                                       1.0922048
  3002   6 C     3043   1 H                                       1.0924410
  3002   6 C     3044   1 H                                       1.0925840
  3001   6 C     3045   1 H                                       1.0931774
  3001   6 C     3046   1 H                                       1.0923731
  3000   6 C     3047   1 H                                       1.0930509
  3000   6 C     3048   1 H                                       1.0925747
  2999   6 C     3049   1 H                                       1.0931414
  2999   6 C     3050   1 H                                       1.0922462
  2998   6 C     3051   1 H                                       1.0934693
  2998   6 C     3052   1 H                                       1.0926952
  2997   6 C     3053   1 H                                       1.0926748
  2997   6 C     3054   1 H                                       1.0920951
  2996   6 C     3055   1 H                                       1.0905770
  2996   6 C     3056   1 H                                       1.0927012
  2995   6 C     3057   1 H                                       1.0923472
  2995   6 C     3058   1 H                                       1.0918714
  2994   6 C     3059   1 H                                       1.0926715
  2994   6 C     3060   1 H                                       1.0927371
  2993   6 C     3061   1 H                                       1.0905601
  2993   6 C     3062   1 H                                       1.0928864
  2992   6 C     3063   1 H                                       1.0913013
  2992   6 C     3064   1 H                                       1.0926763
  2991   6 C     3065   1 H                                       1.0918939
  2991   6 C     3066   1 H                                       1.0920682
  2990   6 C     3067   1 H                                       1.0934030
  2990   6 C     3068   1 H                                       1.0921385
  2989   6 C     3069   1 H                                       1.0928221
  2989   6 C     3070   1 H                                       1.0926954
  2988   6 C     3071   1 H                                       1.0936746
  2988   6 C     3072   1 H                                       1.0917526
  2987   6 C     3073   1 H                                       1.0914449
  2987   6 C     3074   1 H                                       1.0929576
  2986   6 C     3075   1 H                                       1.0923391
  2986   6 C     3076   1 H                                       1.0911236
  2985   6 C     3077   1 H                                       1.0929140
  2985   6 C     3078   1 H                                       1.0918535
  2984   6 C     3079   1 H                                       1.0930143
  2984   6 C     3080   1 H                                       1.0927627
  2983   6 C     3081   1 H                                       1.0918668
  2983   6 C     3082   1 H                                       1.0912283
  2982   6 C     3083   1 H                                       1.0931926
  2982   6 C     3084   1 H                                       1.0929739
  2981   6 C     3085   1 H                                       1.0916956
  2981   6 C     3086   1 H                                       1.0926104
  2980   6 C     3087   1 H                                       1.0932935
  2980   6 C     3088   1 H                                       1.0925606
  2979   6 C     3089   1 H                                       1.0916703
  2979   6 C     3090   1 H                                       1.0930125
  2978   6 C     3091   1 H                                       1.0929930
  2978   6 C     3092   1 H                                       1.0925153
  2977   6 C     3093   1 H                                       1.0920018
  2977   6 C     3094   1 H                                       1.0929732
  2976   6 C     3095   1 H                                       1.0926804
  2976   6 C     3096   1 H                                       1.0926800
  2975   6 C     3097   1 H                                       1.0923910
  2975   6 C     3098   1 H                                       1.0930092
  2974   6 C     3099   1 H                                       1.0916366
  2974   6 C     3100   1 H                                       1.0933315
  2973   6 C     3101   1 H                                       1.0919405
  2973   6 C     3102   1 H                                       1.0926099
  2972   6 C     3103   1 H                                       1.0918576
  2972   6 C     3104   1 H                                       1.0929404
  2971   6 C     3105   1 H                                       1.0911674
  2971   6 C     3106   1 H                                       1.0894807
  2970   6 C     3107   1 H                                       1.0934271
  2970   6 C     3108   1 H                                       1.0935591
  2969   6 C     3109   1 H                                       1.0914778
  2969   6 C     3110   1 H                                       1.0930267
  2968   6 C     3111   1 H                                       1.0928406
  2968   6 C     3112   1 H                                       1.0915193
  2967   6 C     3113   1 H                                       1.0916270
  2967   6 C     3114   1 H                                       1.0920688
  2966   6 C     3115   1 H                                       1.0926051
  2966   6 C     3116   1 H                                       1.0914416
  2965   6 C     3117   1 H                                       1.0916290
  2965   6 C     3118   1 H                                       1.0924511
  2964   6 C     3119   1 H                                       1.0926874
  2964   6 C     3120   1 H                                       1.0928929
  2963   6 C     3121   1 H                                       1.0915447
  2963   6 C     3122   1 H                                       1.0912869
  2962   6 C     3123   1 H                                       1.0926012
  2962   6 C     3124   1 H                                       1.0928584
  2961   6 C     3125   1 H                                       1.0933696
  2961   6 C     3126   1 H                                       1.0915049
  2960   6 C     3127   1 H                                       1.0926640
  2960   6 C     3128   1 H                                       1.0929086
  2959   6 C     3129   1 H                                       1.0915435
  2959   6 C     3130   1 H                                       1.0920175
  2958   6 C     3131   1 H                                       1.0931483
  2958   6 C     3132   1 H                                       1.0933361
  2957   6 C     3133   1 H                                       1.0920301
  2957   6 C     3134   1 H                                       1.0934318
  2956   6 C     3135   1 H                                       1.0910520
  2956   6 C     3136   1 H                                       1.0915336
  2955   6 C     3137   1 H                                       1.0918571
  2955   6 C     3138   1 H                                       1.0924482
  2954   6 C     3139   1 H                                       1.0930961
  2954   6 C     3140   1 H                                       1.0927603
  2953   6 C     3141   1 H                                       1.0923114
  2953   6 C     3142   1 H                                       1.0897257
  2952   6 C     3143   1 H                                       1.0924879
  2952   6 C     3144   1 H                                       1.0922866
  2951   6 C     3145   1 H                                       1.0909680
  2951   6 C     3146   1 H                                       1.0918690
  2950   6 C     3147   1 H                                       1.0927401
  2950   6 C     3148   1 H                                       1.0926191
  2949   6 C     3149   1 H                                       1.0915892
  2949   6 C     3150   1 H                                       1.0919866
  2948   6 C     3151   1 H                                       1.0931067
  2948   6 C     3152   1 H                                       1.0924279
  2947   6 C     3153   1 H                                       1.0916892
  2947   6 C     3154   1 H                                       1.0930575
  2946   6 C     3155   1 H                                       1.0933857
  2946   6 C     3156   1 H                                       1.0925116
  2945   6 C     3157   1 H                                       1.0917985
  2945   6 C     3158   1 H                                       1.0930530
  2944   6 C     3159   1 H                                       1.0928928
  2944   6 C     3160   1 H                                       1.0915902
  2943   6 C     3161   1 H                                       1.0925036
  2943   6 C     3162   1 H                                       1.0928362
  2942   6 C     3163   1 H                                       1.0926119
  2942   6 C     3164   1 H                                       1.0929046
  2941   6 C     3165   1 H                                       1.0899823
  2941   6 C     3166   1 H                                       1.0922546
  2940   6 C     3167   1 H                                       1.0927943
  2940   6 C     3168   1 H                                       1.0920807
  2939   6 C     3169   1 H                                       1.0919660
  2939   6 C     3170   1 H                                       1.0926729
  2938   6 C     3171   1 H                                       1.0921086
  2938   6 C     3172   1 H                                       1.0885635
  2937   6 C     3173   1 H                                       1.0916160
  2937   6 C     3174   1 H                                       1.0929234
  2936   6 C     3175   1 H                                       1.0932379
  2936   6 C     3176   1 H                                       1.0919061
  2935   6 C     3177   1 H                                       1.0900766
  2935   6 C     3178   1 H                                       1.0920497
  2934   6 C     3179   1 H                                       1.0926036
  2934   6 C     3180   1 H                                       1.0928968
  2933   6 C     3181   1 H                                       1.0921531
  2933   6 C     3182   1 H                                       1.0920782
  2932   6 C     3183   1 H                                       1.0925289
  2932   6 C     3184   1 H                                       1.0933332
  2931   6 C     3185   1 H                                       1.0927725
  2931   6 C     3186   1 H                                       1.0921876
  2930   6 C     3187   1 H                                       1.0922780
  2930   6 C     3188   1 H                                       1.0930966
  2929   6 C     3189   1 H                                       1.0928580
  2929   6 C     3190   1 H                                       1.0922864
  2928   6 C     3191   1 H                                       1.0924243
  2928   6 C     3192   1 H                                       1.0930092
  2927   6 C     3193   1 H                                       1.0926351
  2927   6 C     3194   1 H                                       1.0919604
  2926   6 C     3195   1 H                                       1.0921739
  2926   6 C     3196   1 H                                       1.0930210
  2925   6 C     3197   1 H                                       1.0921457
  2925   6 C     3198   1 H                                       1.0918312
  2924   6 C     3199   1 H                                       1.0920815
  2924   6 C     3200   1 H                                       1.0930122
  2923   6 C     3201   1 H                                       1.0922109
  2923   6 C     3202   1 H                                       1.0913623
  2922   6 C     3203   1 H                                       1.0906061
  2922   6 C     3204   1 H                                       1.0932583
  2921   6 C     3205   1 H                                       1.0941353
  2921   6 C     3206   1 H                                       1.0904054
  2920   6 C     3207   1 H                                       1.0934163
  2920   6 C     3208   1 H                                       1.0896503
  2919   6 C     3209   1 H                                       1.0902001
  2919   6 C     3210   1 H                                       1.0934938
  2918   6 C     3211   1 H                                       1.0926025
  2918   6 C     3212   1 H                                       1.0894860
  2917   6 C     3213   1 H                                       1.0921788
  2917   6 C     3214   1 H                                       1.0940806
  2916   6 C     3215   1 H                                       1.0921254
  2916   6 C     3216   1 H                                       1.0914161
  2915   6 C     3217   1 H                                       1.0930615
  2915   6 C     3218   1 H                                       1.0932143
  2914   6 C     3219   1 H                                       1.0920060
  2914   6 C     3220   1 H                                       1.0927010
  2913   6 C     3221   1 H                                       1.0933107
  2913   6 C     3222   1 H                                       1.0929003
  2912   6 C     3223   1 H                                       1.0926662
  2912   6 C     3224   1 H                                       1.0923626
  2911   6 C     3225   1 H                                       1.0932630
  2911   6 C     3226   1 H                                       1.0927958
  2910   6 C     3227   1 H                                       1.0925197
  2910   6 C     3228   1 H                                       1.0924126
  2909   6 C     3229   1 H                                       1.0930862
  2909   6 C     3230   1 H                                       1.0928828
  2908   6 C     3231   1 H                                       1.0923668
  2908   6 C     3232   1 H                                       1.0923005
  2907   6 C     3233   1 H                                       1.0929660
  2907   6 C     3234   1 H                                       1.0929922
  2906   6 C     3235   1 H                                       1.0927538
  2906   6 C     3236   1 H                                       1.0925873
  2905   6 C     3237   1 H                                       1.0933133
  2905   6 C     3238   1 H                                       1.0928338
  2904   6 C     3239   1 H                                       1.0912184
  2904   6 C     3240   1 H                                       1.0934265
  2903   6 C     3241   1 H                                       1.0936619
  2903   6 C     3242   1 H                                       1.0923344
  2902   6 C     3243   1 H                                       1.0930977
  2902   6 C     3244   1 H                                       1.0933108
  2901   6 C     3245   1 H                                       1.0918645
  2901   6 C     3246   1 H                                       1.0910193
  2900   6 C     3247   1 H                                       1.0905883
  2900   6 C     3248   1 H                                       1.0923662
  2899   6 C     3249   1 H                                       1.0908556
  2899   6 C     3250   1 H                                       1.0938289
  2898   6 C     3251   1 H                                       1.0923441
  2898   6 C     3252   1 H                                       1.0910997
  2897   6 C     3253   1 H                                       1.0876026
  2897   6 C     3254   1 H                                       1.0882410
  2897   6 C     3255   1 H                                       1.0877856
  3016   6 C     3256   1 H                                       1.0875580
  3016   6 C     3257   1 H                                       1.0879227
  3016   6 C     3258   1 H                                       1.0879848

 * 2 distinct bonds (by element types)

   Z      Z             #   av. dist./Å        max./Å        min./Å
   1 H    6 C        2178     1.0923108     1.0942401     1.0866675
   6 C    6 C        1071     1.5273527     1.5353741     1.5219377


optimized geometry written to: xtbopt.xyz


           -------------------------------------------------
          | TOTAL ENERGY            -3427.628622887332 Eh   |
          | GRADIENT NORM               0.000906763333 Eh/α |
          | HOMO-LUMO GAP              11.426058650153 eV   |
           -------------------------------------------------

------------------------------------------------------------------------
 * finished run on 2024/10/04 at 01:45:43.252     
------------------------------------------------------------------------
 total:
 * wall-time:     0 d,  5 h, 54 min, 38.431 sec
 *  cpu-time:     1 d,  5 h,  4 min, 25.792 sec
 * ratio c/w:     4.919 speedup
 SCF:
 * wall-time:     0 d,  0 h, 14 min,  0.264 sec
 *  cpu-time:     0 d,  1 h, 27 min, 15.712 sec
 * ratio c/w:     6.231 speedup
 ANC optimizer:
 * wall-time:     0 d,  5 h, 39 min, 55.891 sec
 *  cpu-time:     1 d,  3 h, 36 min, 12.276 sec
 * ratio c/w:     4.872 speedup

