3864
 energy: -5104.066296027165 gnorm: 0.000911864881 xtb: 6.6.1 (8d0f1dd)
C           34.34543184329438       52.40208933052376       54.49544704717431
C           33.53205074423920       53.09494595541149       55.38487721385056
C           33.17371306704459       52.47626957445160       56.57758737034556
C           33.62318561142166       51.20262842457445       56.87669463829786
C           34.43581735289585       50.52504086042570       55.98362334798930
C           34.79850884518333       51.12848536792553       54.79253847557757
C           33.01617034568282       54.47154682900259       55.03446223616370
C           31.57507654251097       54.33470679568175       54.53523360706463
C           33.13614861958967       55.43708806454495       56.22524973067249
C           33.22686287119836       56.91520941033079       55.82184184420252
C           31.92932395970711       57.45265302231232       55.27623718606253
C           31.86679090933348       57.93582298731059       53.97461244007509
C           30.68636482994411       58.44418403545316       53.46215897801345
C           29.54915730356035       58.48345770520680       54.24933392405851
C           29.60201396126960       58.01422826961011       55.55140877513261
C           30.78256731320132       57.50591367700928       56.06051877285105
C           33.68580976263388       57.78070111752498       57.01257724795739
C           35.19876433118923       57.68047455490053       57.30911621799010
C           35.44442928406883       57.40107295864318       58.77138026935431
C           35.99038412273726       56.18701823450473       59.16643181324653
C           36.20861636267252       55.90301755906838       60.50325595986746
C           35.89175675695243       56.84056116278969       61.46867671935932
C           35.34360371052731       58.05377364832574       61.08837764739765
C           35.11929212790232       58.33111351851235       59.75188747310352
C           35.96190805240327       58.93872396912310       56.85470761838145
C           36.22378551824821       58.92323273136892       55.33891050478613
C           36.60548680575909       60.29471306874770       54.83932273502571
C           35.68850463484019       61.04240400718533       54.10956969623712
C           36.02019438858044       62.29290490793204       53.61900617459701
C           37.28310987735690       62.81274508165280       53.84144053704266
C           38.20139680482481       62.08318644026253       54.57620749902848
C           37.86142639158547       60.84039526873270       55.07967258936004
C           37.27999246519951       57.86064174459328       54.97720478240650
C           36.80318798805843       56.86119806676547       53.91423460555683
C           37.75990685976841       55.69664070443657       53.84630625638398
C           37.35780860804221       54.44015384298587       54.28191518999974
C           38.21985743046315       53.35840330476869       54.23448386375802
C           39.50795553796991       53.52407243680469       53.75652041985607
C           39.92899549721511       54.77521324326512       53.33601895825512
C           39.06070880782077       55.85081861377515       53.38057938316815
C           36.63290453013342       57.54738928496106       52.55634371504367
C           36.12062499979145       56.57539420000676       51.47266150783795
C           34.78264795799750       57.01633638357446       50.93791124674050
C           33.65784520764323       56.22108250708563       51.11486210025551
C           32.42112471881432       56.62464843930309       50.64253509983205
C           32.29445757234447       57.83242857111634       49.97909639256437
C           33.40878310058037       58.63486762777990       49.79904728719085
C           34.64131457428136       58.23302091881600       50.27925289675116
C           37.15339860316643       56.43869902269108       50.34671274928191
C           36.70943640151819       55.46070737023312       49.25386495176014
C           36.27900898334884       54.13508558499896       49.83489835563429
C           37.06656229333729       53.45123247183566       50.75526012868206
C           36.65483270351659       52.23871035486395       51.27858080108175
C           35.45311026968437       51.67992047862069       50.88005987636274
C           34.66410965414853       52.34613409093778       49.95862170502961
C           35.07396779355919       53.56392600612234       49.44455554478821
C           37.82567488970536       55.21434848089403       48.22418090200839
C           38.28967582366938       56.47909783328543       47.48467991856145
C           37.10265058127259       57.18433115481525       46.87458916298721
C           36.73302935816194       58.44906515719385       47.31330099260336
C           35.62518493914809       59.09139568571612       46.78756641324496
C           34.86961524437365       58.47763287396746       45.80569633213769
C           35.23382580742391       57.22090564000889       45.35216647860707
C           36.33952721393396       56.58032675681159       45.88087437062140
C           39.33015850531950       56.15428183003000       46.39900843149634
C           40.66597812188335       55.64104087658832       46.95723707434168
C           41.32253779379428       56.69187842320231       47.81881507723593
C           41.86877192427609       57.83895195639055       47.25388619791620
C           42.47536206892388       58.79627698795920       48.04617990651795
C           42.54621678261028       58.63185231309505       49.41954006046790
C           42.00670893854564       57.49373985437558       49.99251145512307
C           41.40331428254089       56.53385304039507       49.19731228134479
C           41.61731304888605       55.18993431448447       45.83336286791410
C           41.40549493732418       53.73290883860783       45.37234571697431
C           40.33628782586759       53.61505586268886       44.31685356137314
C           39.08303068893780       53.10429686307246       44.64276560260176
C           38.09519324334523       52.97811853747321       43.68159467064955
C           38.34909402633946       53.34264525063337       42.37062146615681
C           39.59334180938706       53.84577180836764       42.03208155422376
C           40.57173881626976       53.99087970231454       42.99965014360419
C           42.76063270404751       53.17526864156046       44.90727584127242
C           42.72742796950208       51.80166029431744       44.21875392478150
C           44.14721362885805       51.31683072303954       44.04099128366509
C           44.67887811235492       51.10950441887329       42.77508340268436
C           45.98400463653746       50.67537075528102       42.61457440412327
C           46.77881125658310       50.43611677138781       43.72146316380412
C           46.25945005692555       50.63343777604958       44.98927813289848
C           44.95646873969843       51.06805777671330       45.14553364576254
C           41.91311799900465       50.76719663527430       45.00267735555744
C           41.88818456923321       49.41221763980034       44.28990900911587
C           41.28265565635412       49.49361093684276       42.90995993051687
C           41.92766513605258       48.92859334050845       41.81580952408547
C           41.32827314944504       48.90305501449224       40.56810570285352
C           40.07243030094826       49.45703028187513       40.39043535617014
C           39.43427915740172       50.06024026993862       41.46168745747369
C           40.03315307874448       50.07111743729911       42.70897513933402
C           41.11215056284171       48.37019011986700       45.11631422963529
C           41.54749516672574       46.94840092618979       44.73414710522997
C           42.90509993542091       46.66674997606835       45.33871449242690
C           44.03632250877685       46.58015379739558       44.53721289203557
C           45.28545715690942       46.34429500615454       45.08463977784094
C           45.42534794144501       46.18007966918348       46.45051076794590
C           44.30778712945231       46.26820624075531       47.26309275423520
C           43.06367861847022       46.51563667316101       46.71273193302586
C           40.55472787409416       45.86122126213270       45.16660755357668
C           39.13274002487046       45.94963426154547       44.58151778506755
C           38.37685060039566       44.70379885807115       44.97998046304790
C           37.23361156867480       44.78957109778116       45.76452368921002
C           36.52982359388457       43.65276324160087       46.12301782687101
C           36.97407159960080       42.40383417915297       45.72723129596067
C           38.13159168778659       42.30127456244377       44.97485902514676
C           38.81442939005196       43.44173021193604       44.59490346520343
C           39.11405460347717       46.15724218644694       43.05916314535276
C           37.70074315976467       46.09793009987156       42.45790343487442
C           36.70112229265186       46.93562569432238       43.21496311688735
C           35.50641928028742       46.37838997376073       43.65366135900116
C           34.55191845716388       47.15590651257346       44.28647201784141
C           34.77132815757860       48.50961806015692       44.47445535235200
C           35.95348633716356       49.07619800088578       44.02921121151695
C           36.91253986001300       48.29429803014916       43.41268745398414
C           37.69662852139525       46.59794144094128       41.00175643067635
C           38.25301033132583       45.60985183059586       39.96707471210407
C           38.46182680378332       46.33508912393244       38.66195455858661
C           37.39240319621241       46.92960754251482       38.00044923557196
C           37.58010385091776       47.59252990351203       36.80146015748529
C           38.84050691526161       47.65405750655153       36.23162540069516
C           39.90889633661163       47.05695935642873       36.87638980496573
C           39.72320789478213       46.41252219639210       38.08716114618881
C           37.31949430889346       44.39645974525168       39.76984981433140
C           37.87857179998908       43.10983428425060       40.40004543512251
C           36.75126750669180       42.12959731189027       40.60609817250765
C           36.10156640810365       41.53959619047532       39.52690656758359
C           35.04648852340159       40.66769365559809       39.72485282268868
C           34.61221370830405       40.37983142695084       41.00810857593194
C           35.23773466892164       40.97520222300516       42.08940691445554
C           36.29961936902617       41.84001068547158       41.88730878253282
C           39.02256636988161       42.52947352470183       39.55305784985948
C           40.07794650578016       41.78040109204080       40.39810910342708
C           41.36248063406108       42.57777852301081       40.37423213486765
C           41.67394771798299       43.42878547342217       41.42872912618942
C           42.82498079714412       44.19603457856994       41.41993727464280
C           43.69712507080435       44.12068944216495       40.34813606021373
C           43.39600356927939       43.28479761161353       39.28695914510307
C           42.23706267987958       42.52963905079246       39.29408657793884
C           40.30728576662888       40.34034211636492       39.92341056902822
C           39.11378349811640       39.39481059700785       40.13880884923082
H           33.62288111727048       54.86209088874281       54.20817244272523
H           32.29039372413970       55.29751661032065       56.89960680931535
H           34.04458735492707       55.18535032755027       56.77918544335393
H           33.97223409202013       56.99858238549540       55.02497645541396
H           33.42316486099114       58.82064169731222       56.80576780180996
H           33.12537926098855       57.47801530038693       57.89948784646167
H           35.60062749674378       56.82890136953982       56.75258939495689
H           35.39033757903167       59.83262777241976       57.11350901889939
H           36.91571528582322       58.99921576530880       57.38471771798031
H           35.27632691101554       58.66380836160585       54.85912523232026
H           37.55162190223886       57.29946297063400       55.87492030884978
H           35.82782018297153       56.46669341578774       54.22071766594856
H           35.93162045818721       58.37608927248918       52.66804297679541
H           37.58605311762050       57.97820375055362       52.24780810610959
H           35.99147678662495       55.58707644673258       51.92658788163374
H           37.31667284254758       57.41840201697568       49.89877519220172
H           38.09795267145571       56.10366815499084       50.78090062633098
H           35.85141415354396       55.90036549088952       48.73304201830865
H           38.67296977090576       54.76098855145765       48.74130225886189
H           37.46055194159524       54.49459477673825       47.48733581681262
H           38.76134897772435       57.15682484002969       48.20369641258637
H           40.46430670896142       54.77029497782021       47.58775934059837
H           41.52570928255407       55.85658188739533       44.97388121934799
H           42.64269669615958       55.27546479561115       46.20196899639433
H           41.08663635740732       53.14803322648446       46.24097024088975
H           43.22899852741622       53.88405274068778       44.22023960706365
H           43.40343212265213       53.11548668158634       45.78784439246786
H           42.26537166737739       51.91542854516359       43.23166526287130
H           42.36136394306432       50.63412883396650       45.98708788008307
H           40.89314162121032       51.12459872001859       45.13750124212606
H           42.92536867877291       49.07055933906561       44.19855125949508
H           41.29704425577874       48.53260543684753       46.17913578299696
H           40.04325584213813       48.50199997025241       44.94709287141357
H           41.64292805294470       46.90485269353739       43.64459370784296
H           40.99390320922199       44.89854403984381       44.89311864529508
H           40.45938232323974       45.87270102549936       46.25387403349562
H           38.62603528872264       46.80606167793423       45.03627879872010
H           39.55118110170181       47.13090532499279       42.83339518295419
H           39.73359532747066       45.40019739297721       42.57596460447245
H           37.34790973990979       45.06271484947160       42.48279521819108
H           36.66791585816078       46.84266624184358       40.72689599213422
H           38.27543595337983       47.52340660339776       40.94991547849374
H           39.22959080687566       45.25935148560569       40.31422429757963
H           36.34499480483341       44.61122877254893       40.21428190573589
H           37.15621513196808       44.22347474644920       38.70387859488348
H           38.27738975058013       43.37294362531868       41.38485821838454
H           38.61761254968769       41.86245774696513       38.79252571887923
H           39.51530069817503       43.34694634177759       39.02213205211886
H           34.62533849708423       52.85674594399621       53.55427358882815
H           35.43836207181084       50.60833623430924       54.09444451652249
H           34.78736496061811       49.53214981516848       56.21748959862961
H           33.34223781910111       50.74199784529574       57.81310910198081
H           32.53775354766890       52.98851191964312       57.28369252916010
H           32.74541697771563       57.90249056403101       53.34450535231404
H           30.66009417390903       58.80693379465154       52.44507744460306
H           28.62556796538687       58.87822760524244       53.85242327041536
H           28.71840239229135       58.04500237595403       56.17243400410614
H           30.80995393689322       57.14439731977129       57.07805411887188
H           36.24444109621986       55.44594637302941       58.42012718004695
H           36.62165460022747       54.94745150046033       60.78958683487777
H           36.07335872985976       56.62615956420194       62.51117940100739
H           35.08564584981057       58.78623209104713       61.83905006641163
H           34.68402446273733       59.27780672996869       59.46598207446508
H           34.70281026108421       60.63890674847718       53.91826932851384
H           35.29294349278574       62.85856229164651       53.05502158687552
H           37.54639243137154       63.78164850579851       53.44408911602811
H           39.19070101345685       62.47943515918469       54.75366310278853
H           38.58704860495126       60.29074936491462       55.66144896781595
H           38.18370334606210       58.34841475307996       54.60865666807100
H           36.35544202965556       54.30030839622312       54.66314322537129
H           37.88815423911221       52.38920757572467       54.57843663617503
H           40.18012576946122       52.67965554748771       53.71804431213621
H           40.93976981747364       54.91316137310819       52.97865122014141
H           39.40015645847384       56.82126371858477       53.04855515018797
H           33.75044429706440       55.27165462833919       51.62446282753766
H           31.55607688571088       55.99605320748336       50.79666624454615
H           31.33162313752771       58.14765885874338       49.60385402070730
H           33.31733462580054       59.57941022583706       49.28270052759589
H           35.50009426169956       58.87343440357239       50.14028768803107
H           38.00651305390151       53.87104175143119       51.08308068350644
H           37.27311747042252       51.73189871269955       52.00592975963878
H           35.13166369070964       50.73284258441313       51.28738475575642
H           33.72291015587621       51.91930664990264       49.64367988654843
H           34.44805027616405       54.08646443834759       48.73422929712770
H           37.32050801527642       58.94368332691511       48.07408726014914
H           35.35933952903141       60.07471549636390       47.14677008067567
H           34.00576115623299       58.97574826193924       45.39180840056920
H           34.65077639862346       56.73508928983043       44.58294123369265
H           36.60847086059748       55.60003441103861       45.51454801211678
H           38.92759807736086       55.40908363589807       45.71246539423186
H           39.51770592471124       57.06523613311946       45.82353716100219
H           41.82156321438576       57.98096631657023       46.18506945677933
H           42.89996703373227       59.68033843992582       47.59073990017922
H           43.01642980650066       59.38695124152760       50.03295137676515
H           42.05949325313036       57.34724392871242       51.06254321400978
H           40.99062850871749       55.64673449563448       49.65866486063317
H           38.88083740584141       52.79189499495912       45.65999313674960
H           37.12599158740462       52.58316895720231       43.95255859130913
H           37.58174268655071       53.22524281258375       41.61941834507543
H           39.81297736358471       54.12029601715867       41.01070199674606
H           41.53564424877940       54.38821988373704       42.71633217756846
H           44.06020723328487       51.28313976006084       41.90525496518662
H           46.38785402322243       50.52918960428002       41.62216725631754
H           47.79762426367331       50.10209776401884       43.59880177489464
H           46.87621386232519       50.45696225305123       45.85840200166591
H           44.57055796542993       51.21547365647289       46.14333242493970
H           42.91259605038219       48.50107752359026       41.94354437129999
H           41.83847319780355       48.45161701519000       39.73028967501402
H           39.59149381181787       49.41243901383694       39.42315776739191
H           38.45917820252660       50.50874814693817       41.33035682778216
H           39.51410729046283       50.53359769619082       43.53524965947630
H           43.94333458819276       46.70283705564963       43.46675795192105
H           46.15025923118693       46.28846979655537       44.44024880858004
H           46.39861673736294       45.98741485192767       46.87856722910441
H           44.40395080222108       46.14343078448135       48.33294069966088
H           42.20615769191020       46.58781907612529       47.36646175592722
H           36.88434751031453       45.75790756048732       46.09409342083753
H           35.63308761907869       43.74416101392844       46.71868755113100
H           36.43014613224461       41.51540341072999       46.00921912683729
H           38.50777926267988       41.32924533263704       44.68901000719645
H           39.70665409729645       43.33940234817909       43.99415568541826
H           35.32103064518098       45.32418719160911       43.49912321100840
H           33.63115608714459       46.70424143854098       44.62635689415870
H           34.02311551298233       49.11794029636226       44.96188951495870
H           36.13130905042447       50.13479138885508       44.14636627412844
H           37.82811882614660       48.74898991980734       43.07012179515164
H           36.40042747998562       46.86732784556555       38.42341225519733
H           36.73866458109649       48.05513685662616       36.30559438620937
H           38.98631639761631       48.15771620931780       35.28748772767064
H           40.89074454640500       47.08366343147504       36.42788360707591
H           40.56632971298814       45.95701133020782       38.59009686107416
H           36.41587754091975       41.76824967846429       38.51817094209703
H           34.55714793627657       40.21415513500241       38.87477634773661
H           33.78886430184054       39.69860627196702       41.16353589676844
H           34.89822240159889       40.76399531225626       43.09288664262059
H           36.77995185942420       42.30059072145355       42.74030448194951
H           42.01978800505607       41.89925254286477       38.44600365432004
H           44.06231465205250       43.22155867286029       38.44023942549605
H           44.60862364961071       44.70037270656261       40.34291741314196
H           43.04287496561209       44.84317320845414       42.25691972290893
H           41.00824751371040       43.47830744990674       42.27876963458850
H           31.53582633291389       53.63035113750217       53.70617235650868
H           30.93311382764678       53.96141491209951       55.33028834013976
H           31.18912668722736       55.29164786590012       54.19568554712750
H           39.73020806212796       41.73472720489777       41.43496451138202
H           40.53160572565651       40.35025438041193       38.85462871466345
H           41.17952968423216       39.93999599548289       40.44514999856077
C           38.89609237102792       39.01056476826783       41.60869986461883
C           39.31163291804439       38.15930201330563       39.29317793851098
C           40.40935664221860       37.32755202684636       39.48266293623732
C           40.59158612042794       36.19906821066486       38.70491176911437
C           39.67611650755030       35.88584474391842       37.71512115875770
C           38.58013074244227       36.70626271359034       37.51246348728004
C           38.40169552395138       37.83281230342909       38.29632704579229
H           41.13286601567353       37.56358081303755       40.24955919693650
H           41.45057505223463       35.56487421995364       38.86725556871004
H           39.81760464817413       35.00571809671018       37.10547605472783
H           37.86059951740616       36.46777883254683       36.74248106504248
H           37.54020525927425       38.46668453373949       38.13674205545872
C           37.63654171799548       38.14952151588147       41.75328729161286
H           39.76044683223968       38.46358036319369       41.99112553134670
H           38.78387253825773       39.91516841159753       42.20735450910718
C           37.35336673636322       37.73161582549458       43.16857145395044
C           37.30495203905137       36.38811381247118       43.51642892420607
C           37.00575614629927       36.00054037248900       44.81161847686678
C           36.76439246558594       36.95474714336150       45.78524726471584
C           36.81704364157301       38.29826824190403       45.45208287999370
C           37.09930619813949       38.67998894320357       44.15295184263974
H           37.49587737063106       35.63379293551986       42.76723854961654
H           36.96123734972402       34.94860590819317       45.05581343179675
H           36.54061646553705       36.65910495911935       46.79959824670507
H           36.63582760977142       39.04427693248945       46.21279376264204
H           37.10897017072115       39.72658300466031       43.89084694315180
H           38.20438000002742       39.89909880984111       39.79671568903304
H           36.78394580283663       38.72334508376073       41.37785485843927
H           37.74088042468119       37.25931990857252       41.12917315687849
C           68.02895934978609       53.94465616386475       61.90615535068322
C           67.47267438613828       52.68204331037456       61.75024241985030
C           67.37677842887635       52.15785192662754       60.46461857234176
C           67.83237345401534       52.86679499796383       59.36804809926159
C           68.37421806609453       54.13019520290324       59.53710790125624
C           68.46583158557236       54.66751931829369       60.80824429777002
C           67.05082982088797       51.80893456511927       62.90713965770327
C           68.21309764820590       50.85945992759117       63.22759519508889
C           66.64763481538569       52.56018310379631       64.17673885285907
C           65.43237040574996       53.48614261673779       64.01135806263582
C           64.22610533170841       52.69131031480418       63.57824295875697
C           63.72459059215988       52.81234027189876       62.28882494774010
C           62.63017544743993       52.07169534008387       61.88107033757533
C           62.01770806425603       51.19657899064336       62.75937939333822
C           62.50479669489554       51.06792342621055       64.04793825891403
C           63.60220387553095       51.80675695087418       64.44911722365636
C           65.19139223079301       54.24481527337503       65.33436187674255
C           65.60348202497192       55.72740478761810       65.27042957090104
C           66.00705142281438       56.21890551398997       66.63689364264481
C           65.11881610381567       56.18165039895448       67.70532539917822
C           65.50409546272280       56.61874927761421       68.95917135815880
C           66.78278313298917       57.10653992867071       69.16635038522823
C           67.67705919929922       57.14588259363595       68.11097778263463
C           67.29088093907947       56.70033592279888       66.85927190079583
C           64.45908681635972       56.57298005238302       64.69792470189537
C           64.83743865220093       58.04645931060340       64.49402775403132
C           65.95166080889139       58.16706100623461       63.48488438647659
C           67.18501116135620       58.68573233517250       63.85695994686142
C           68.21898820193003       58.78664358954131       62.94259437789182
C           68.03128178053318       58.37162008943623       61.63601708925634
C           66.80361454571114       57.86070201157650       61.25062597921726
C           65.77315974814263       57.76066920308853       62.16711917148608
C           63.61149094636250       58.88669214846026       64.07177973136459
C           63.00454119787291       59.68437149269495       65.23604543937503
C           62.51695202202270       58.80375139485419       66.35919151898146
C           62.97937095736702       58.99259523439844       67.65535652238418
C           62.48785334722484       58.23596884130303       68.70478806114922
C           61.53752567741762       57.25763955061480       68.47137558837662
C           61.07857458105955       57.04946617725559       67.18174560038497
C           61.55745286094378       57.82147779271749       66.13908040000514
C           61.84663307256989       60.57476632981302       64.75101077154017
C           61.42949586099701       61.59377001909220       65.82028838430578
C           62.47598359017948       62.67006660997281       65.96573430070416
C           62.77485558908994       63.52164301950493       64.90834697354327
C           63.72820518200942       64.51307796720596       65.04866246875858
C           64.40097311726254       64.67015733953218       66.24860141809283
C           64.10737999630402       63.83229938649511       67.30992467794108
C           63.15007590865842       62.84307879186174       67.16744592014760
C           60.06613380222726       62.23550634571807       65.50843079589959
C           58.85983322144949       61.36213367132937       65.89802097161169
C           57.61350672964953       61.89208600565577       65.23253885077872
C           57.18407709592040       63.19677154742897       65.45162578629476
C           56.06464289058039       63.69415209137124       64.80880022372432
C           55.35534065724809       62.89717331507353       63.92524321496782
C           55.76390894605617       61.59315070982020       63.70825352337310
C           56.87605985807009       61.09360292747490       64.36657891491909
C           58.68439602115595       61.30905733622299       67.42216088636151
C           57.51502367436380       60.42771004533937       67.89356046094318
C           57.32571291981736       60.62570093923663       69.37644344558474
C           56.16393438359221       61.20908308825938       69.86261089106721
C           55.97734410092480       61.39956975209261       71.22026061906871