3795
 energy: -5103.669401300624 gnorm: 0.000890291753 xtb: 6.6.1 (8d0f1dd)
C          118.67473953508068      105.76509166337354      129.64971449845063
C          119.69868513167677      106.68363714223345      129.03017994166461
C          118.87221535246596      104.30387333343400      129.23731966953315
C          118.38134175786904      104.04143928662010      127.81544875934568
H          119.92905600997400      104.04993453923784      129.32271705654699
H          118.31943904478666      103.67045886108095      129.93150674792452
C          118.48710299122054      102.55739204940116      127.44729961584505
H          117.33772155155147      104.35262553445433      127.73657012264147
H          118.96236667780464      104.63543323262400      127.10716987243329
C          117.88737802769768      102.32778066269618      126.07109726432643
H          119.53449470844988      102.25730178888919      127.43707104062332
H          117.95160810169047      101.95925302146995      128.18468797974299
N          116.59245819408410      102.00464323307634      126.09490567930830
O          120.93367315172607      106.27124101921974      129.17551917935054
O          119.39914376893614      107.71290064200626      128.45306983005960
H          121.60835764850425      106.86783608306550      128.70323281944550
H          117.68273425540599      106.11811749461397      129.36676943890029
H          118.76334476168270      105.85092915704213      130.73515709298897
C          115.77312044326894      101.79039548698910      124.91988480223968
H          116.14133419331688      101.80988849090238      126.98648421818159
C          114.33143884565807      102.19186946727248      125.21071352644100
H          116.19339284993781      102.37803649742662      124.10114015539311
H          115.80106575987314      100.73341174150262      124.62930156456852
C          113.40861719238463      101.97496009269858      124.01345751502947
H          113.97892184757903      101.59125067994935      126.05049176452808
H          114.29859882771549      103.23953469798629      125.51785306004487
C          111.93945773450623      102.01920752872265      124.43932413320472
H          113.60123546337078      102.73526150357841      123.25557668400982
H          113.62542453990143      101.00555024854218      123.56302671261011
C          110.97870849342645      102.27415066788734      123.28020327219622
H          111.68322441678065      101.07289793680907      124.91862164454861
H          111.80155432451701      102.81272970933787      125.17711659658877
C          111.11296989884694      101.26199545605446      122.14393394559046
H          109.95120577483874      102.25524846608587      123.65247719865769
H          111.17051763143037      103.26361073573429      122.86235658828430
N          110.74690537730176       99.91685877531138      122.52569920267185
H          110.46532000182290      101.57563907969759      121.31603932115512
H          112.14555572934704      101.22923822903726      121.79239769358689
C          111.57386880948897       98.86430058164026      122.46294164367905
H          109.77487533828965       99.73876804213910      122.75296043945400
O          118.53538359915133      102.47792641928424      125.03690142683065
C          110.90136510832160       97.52261788844483      122.70480196845132
C          111.02465326970675       96.62456168778982      121.46778224747666
H          111.41917387411569       97.04176048276663      123.53798541539828
H          109.85531472449080       97.66162228400960      122.97210422031058
C          110.03075405763853       96.95146349336798      120.35188101606478
H          112.04420172708744       96.70362698820443      121.08218967568725
H          110.85708346631552       95.58872294030434      121.77053738209555
C          110.26207027268217       98.32155119343849      119.69897845647712
H          110.12663190454165       96.18202373984397      119.58079448782685
H          109.01526774885505       96.90408771070811      120.74949990782564
C          109.60213182638144       98.36113494986553      118.33447975381684
H          109.86451225763953       99.11542393808497      120.32786839377688
H          111.33208440271716       98.47981087019440      119.56483535797483
N          108.31113538119398       98.71294179241954      118.34489957277545
C          107.50059596443066       98.72509291468238      117.14088621944207
H          107.87548329968615       98.99377447617884      119.20880425266932
O          112.77267105264389       98.95461399430489      122.22567615218856
C          106.09220567913665       99.25698914614600      117.38472893208552
H          108.01417720765218       99.34351729076097      116.40064381061762
H          107.45974137883242       97.69968731218594      116.75336407359219
C          106.03283603421501      100.78466055146700      117.40010850540132
H          105.45063965805993       98.87586888185066      116.58959000502128
H          105.71227116038983       98.85974968588501      118.32859144751933
C          104.62047805012358      101.32816450865184      117.62594174215363
H          106.68056464446215      101.16438196837859      118.19385896027936
H          106.42504731802872      101.17103020237531      116.46056384228957
C          103.64154887794635      101.15417765608194      116.46096860280210
H          104.19191658059063      100.83145749264980      118.49978054212440
H          104.69567127808502      102.39244372869116      117.85728262973575
C          103.93157878420760      102.01442501033814      115.23110450961065
N          104.95331433726855      101.43880018622913      114.38076814283308
H          103.00808587606271      102.13084432555227      114.64977261589186
H          104.27538352381764      103.01076349890036      115.51836582407330
C          105.78140726271543      102.16093268787475      113.61040410258732
H          104.97021782559791      100.43363989502896      114.31167141632925
O          110.19660109253536       98.04787029191100      117.30569565756713
C          106.79644593554683      101.33472068433827      112.83686745242005
C          107.68058595080211      100.53499554582010      113.79589348548556
H          106.27862366789012      100.66235190284411      112.15062665450006
H          107.40842818971267      102.01917992760444      112.24917421085128
C          108.85821241273871       99.85895435136941      113.10140165938391
H          108.07120951139623      101.20549224527224      114.56576986037271
H          107.08711660761860       99.76573060177969      114.29254743441730
C          109.71021482076236       99.11470124956902      114.12464168143674
H          108.50531350468238       99.16304399553516      112.33831830174761
H          109.47639557422103      100.60363137266589      112.59866720598073
C          111.06500283572886       98.68864395947007      113.59089305305275
H          109.89649450108359       99.75947427018278      114.98755509827876
H          109.19308640403577       98.22517631405351      114.48750261426682
N          111.80457384907082       98.03829471938012      114.50194745699162
C          113.18932150518766       97.68370578086257      114.26894421222295
H          111.43857696092927       97.93933022976618      115.43879809496950
H          103.59454365607476      100.10582389334003      116.16312095287921
H          102.65011398326551      101.43095931244005      116.82292706299610
O          105.74629109288382      103.38262483883558      113.55632462388901
O          111.44528903048761       98.91048903425710      112.44761472071022
C          113.64095367962670       96.49632385050042      115.11035052492693
H          113.28594611482899       97.46017809834632      113.20245962955563
H          113.82361680084423       98.55319340281297      114.48491836562955
C          113.75509512598030       96.84090850628235      116.59658387951043
H          112.94627740020866       95.66622267270402      114.97371389337482
H          114.61431014828230       96.18268628493085      114.73069930770770
C          114.54783935007897       95.78991105540096      117.37902215044990
H          114.24069370198711       97.81206745010640      116.69775700913169
H          112.75406113294025       96.92640843008334      117.02410092218091
C          116.06382651810434       95.90997994480743      117.19104702101998
H          114.32135382573819       95.88432948107588      118.44277688013494
H          114.22279914097996       94.79871452660402      117.06002507415273
C          116.65000366418785       97.03173277131826      118.04136163988548
H          116.53629375276996       94.96869570403140      117.47736800218819
H          116.29239017785737       96.09778505492841      116.14105586522109
N          118.05511260255213       97.23822289317967      117.74831874361330
H          116.13710879122917       97.97545309077870      117.84100080930523
H          116.52238123456746       96.79675060564662      119.10598632480266
C          118.69008626503336       98.39997696010322      117.97289595964915
H          118.57479824833466       96.44314153779180      117.41175540004811
C          120.15861216055056       98.38261854931989      117.58275566533466
C          120.81152120975506       99.76348029067942      117.60368976739224
H          120.67811622557215       97.72851787410933      118.28757243045926
H          120.25049872910668       97.94416039280910      116.58686737804297
C          120.22687619498875      100.70535004904274      116.55483915225695
H          120.67955632941262      100.21042832306196      118.59203674825937
H          121.88240765857137       99.65345420706684      117.42337502154483
C          120.94996662393129      102.05984717312464      116.55260238209658
H          120.30166174752794      100.24999397647976      115.56368615816255
H          119.16994578177713      100.85795638402178      116.77333836859893
C          122.23244969339818      101.95822727153748      115.75227588979777
H          120.31767919109103      102.82369238951679      116.10426763866053
H          121.18604040439749      102.33707295090844      117.58087428235015
N          122.13537000714840      102.41128049251166      114.50261701003173
C          123.22957043879200      102.33707702864805      113.55817916497665
H          121.34609926632457      102.99528929788372      114.23869905847295
O          118.11935127440206       99.37044645951987      118.45376861287056
C          122.79365149224431      102.85175364204710      112.19405139699649
H          124.07325786986354      102.93999814512739      113.91792378161884
H          123.56820552786537      101.29639399042618      113.50151647313912
C          121.59955258206159      102.09729931558982      111.61271938180562
H          122.53838276123203      103.90633824422578      112.30456002840560
H          123.64574453932659      102.77408995280753      111.51672094728892
C          121.28587825044889      102.54513467910265      110.18514837133024
H          121.79886650181554      101.02403606851260      111.62290584079007
H          120.72223903252734      102.27525041997899      112.23526064417250
C          119.91079763868200      102.05504956616437      109.73821440268215
H          121.30619453599050      103.63541819761357      110.13657490025832
H          122.05211109911288      102.16548264320225      109.50662775555581
C          119.64169018328585      102.34305964812538      108.26554632166660
H          119.83504751228455      100.97861819291317      109.90936284604720
H          119.13961366354066      102.53841568238428      110.34126419247384
N          118.31381226928559      101.88645058975807      107.90707019615276
H          119.69295360987608      103.41478917723195      108.05515243371974
H          120.38598987391460      101.83391159950297      107.64091835545405
O          123.27099752770835      101.46625666190161      116.20205815983687
C          117.53831680022799      102.46191274651561      106.97987126258300
H          117.92788421718993      101.15609706206546      108.48509815603244
C          116.14188551345475      101.87339941112495      106.89795028668094
C          115.53317157711220      101.97760121600312      105.50109997002727
H          116.17078163569676      100.82926922082943      107.21390628617328
H          115.53292669320250      102.42518134653341      107.62042486753113
C          114.21132817072240      101.22317202004203      105.39920396243150
H          115.37865561845275      103.02343818956528      105.24473271522206
H          116.23475320178640      101.56277887492993      104.77371561685750
C          113.55767439645126      101.39867222936316      104.02162037887250
H          114.39341263061833      100.16180944228729      105.58018606797584
H          113.52100706793748      101.57272153277721      106.17025768552796
C          112.65989467155474      102.62027515105834      103.95622565319931
H          114.32406939231232      101.46142794812586      103.25014624345388
H          112.91686234578096      100.53815520773192      103.81886641340621
N          113.05325780698720      103.58405035496824      103.12101028404578
O          117.93218896608899      103.38091591097731      106.26662968267422
C          112.23404801502947      104.74682521170210      102.82166765516845
H          113.95271128861881      103.50925615749551      102.66147917980807
C          112.77554354421461      105.45444809357478      101.58668304002035
H          111.20768681296531      104.40284857346812      102.65328340133138
H          112.21898043126630      105.42493770683316      103.68145901641289
C          111.83866800302147      106.51864763097485      101.01483348606581
H          113.73117696987767      105.91275279760229      101.84493761650006
H          112.95468713363286      104.70049520818877      100.81687349514065
C          111.66330818361739      107.75149230235535      101.90192584815399
H          112.24350767526991      106.84194405226279      100.05352202411964
H          110.85950692448307      106.07469258814857      100.82696459600091
C          110.94369352369364      108.85826770539254      101.12962181435154
H          111.07842470628272      107.48823589024730      102.78385293027154
H          112.63917335912178      108.10813896549764      102.23762872196851
C          110.61424086400025      110.08547728253092      101.97441265866524
H          111.55840848370683      109.17454678494397      100.28593242742511
H          110.00912211188241      108.45348727071816      100.73491911886295
N          109.67629688189746      109.73233577546112      103.01667331111548
H          111.50759679868773      110.51158334487931      102.43718440976951
H          110.17501324619465      110.85726415987226      101.32918164133034
C          109.62548944487271      110.28607259160934      104.23068497825051
H          109.05219104362442      108.96049074842431      102.79856003969175
O          111.61690883083918      102.69685702147567      104.60720604852472
C          108.63749885917504      109.59554729804663      105.15378577208591
C          109.35021693354587      108.44141711871920      105.87374313927820
H          108.25722251539591      110.31082726159370      105.88362087567459
H          107.80651602820278      109.20476908135404      104.56702469203323
C          110.07700635076762      108.90405394676155      107.13258748385064
H          108.62296448772099      107.67989629165386      106.15352903878079
H          110.06167075496080      107.97242312785258      105.18949692239489
C          110.65420032291698      107.70743807741842      107.88762807401726
H          110.87716958461235      109.59355231146914      106.85790960653748
H          109.37384216228223      109.42906193581318      107.78240590069132
C          111.26850866256851      108.10161093439926      109.21799367905017
H          109.85726998795052      106.98172334074017      108.06588553981491
H          111.42442618454396      107.23071662995095      107.27860531602209
N          110.39527883019886      108.42790556988615      110.16929068913026
C          110.79112734475717      108.73052779635520      111.53116006672850
H          109.39804074399412      108.44634941505853      109.97962962824228
O          110.32478997609299      111.22830569218576      104.58982028142327
C          109.66390073595032      109.43980699965527      112.26848878366222
H          111.03816717900604      107.79142440791618      112.03692754362906
H          111.69258924042532      109.34982824523790      111.49713456550083
C          109.96051878473266      109.66994532390373      113.75013105911164
H          109.47055552175246      110.39901280363772      111.78552263834870
H          108.75402729325678      108.84592262706869      112.17273529708606
C          110.07711056249221      108.37455695233287      114.55429514060428
H          110.88350152354978      110.24236009189808      113.85738780530335
H          109.14545537977223      110.26857863424259      114.16033891889076
C          110.08988858801094      108.65342607113909      116.05605083025058
H          109.23860741387423      107.72050232634318      114.31009506133725
H          110.99676838471119      107.85406386419648      114.28299197562231
C          110.33984429868723      107.38698546470708      116.87521642574859
H          110.87791337068315      109.37393583959626      116.27267324286863
H          109.13784533699717      109.09075551519723      116.36137538694517
N          110.63320619467311      107.68763308145616      118.25934444950290
H          109.46737913480013      106.73397712017830      116.85098341613696
H          111.19408103187909      106.84483405349191      116.45154447570950
C          109.90549237163128      107.32034219503139      119.31530883270955
H          111.46282160241454      108.24794144867300      118.42543214201280
O          112.48566702324143      108.10127908339774      109.40241830550393
C          110.50807732559808      107.73039290155604      120.64400797290024
C          110.61372017362046      109.24168609662456      120.86118609877055
H          109.91759888196380      107.28597981840397      121.44600399841654
H          111.51857910117248      107.31875760714097      120.68566364413340
C          109.27309635163394      109.91692593338439      121.12994539417946
H          111.24626977419261      109.40254071050956      121.73436605303429
H          111.10162446093625      109.71200203098032      120.00713211290096
C          109.46370526996367      111.37731924750518      121.52872075809329
H          108.63179896861470      109.86330950670929      120.24734146149376
H          108.77717734400436      109.40023968280268      121.95180586752218
C          110.10886673384555      111.53697289710566      122.90137906285932
H          110.10327125362339      111.88644645086752      120.80457014303792
H          108.50203155688453      111.89474728202026      121.54429658757520
N          110.49038225773958      112.79769645367840      123.14515426449887
O          108.87030051816507      106.65292292145675      119.23306977975832
C          111.14938773693564      113.22770394439191      124.35729774933328
H          110.01761266252799      113.53942815425977      122.64005359300121
C          111.87534040360859      114.54233080498166      124.09239467636974
H          110.42234443245734      113.36861171232272      125.16483879382626
H          111.84669048107301      112.44138737031189      124.65468245725016
C          113.03929607803400      114.35467254267238      123.12329794700364
H          111.14904613572990      115.24142971068474      123.67278240783007
H          112.23161239815188      114.95057471933104      125.03868067149278
C          113.61555803979569      115.67381467533296      122.61409834334050
H          113.82389081678905      113.78239779209932      123.62359340981443
H          112.68849404609662      113.76893088417218      122.27125688484332
C          114.78075933360995      115.42074491466146      121.65551476071576
H          112.83163379359553      116.22250156002279      122.08980932423583
H          113.93697497800632      116.27893908074421      123.46382384115068
C          115.23243109482979      116.67268954187736      120.91658928698904
H          115.62686050797738      114.99639905727031      122.19936900709929
H          114.46113102817773      114.68855811656107      120.91334283755575
N          115.93652978701769      117.59211810701085      121.78881744660802
H          115.90815267027190      116.40924311202861      120.09816778334293
H          114.36470901684370      117.18634156929092      120.48803627227221
C          116.72291705326464      118.56551489531510      121.32592736122001
H          115.88271282666993      117.42451889925040      122.78015704987830
O          110.29948717812564      110.60625031420896      123.67505346332550
C          117.36139206427487      119.44392714327022      122.38253767272236
C          116.33657240632934      120.11249852608222      123.30312330868691
H          118.04900657576262      118.83145481126488      122.96960522704417
H          117.94916998819670      120.20843547462815      121.87437497474666
C          115.32766540498251      120.93471080366845      122.50532889423465
H          115.80551094746529      119.36074599536677      123.88968555356642
H          116.87642359822019      120.75117400307897      124.00521301620157
C          114.28090744445323      121.60918725818669      123.39682426389288
H          115.85453004405987      121.69755822611314      121.92705445172533
H          114.81180266430552      120.28349188983013      121.79676974388858
C          113.25311936146591      122.28376701865820      122.50789844861819
H          113.78696113107411      120.85378525482483      124.00906251921403
H          114.74877483729931      122.34169704258942      124.05207008513217
N          113.27020654983995      123.61644355856606      122.53100370045230
C          112.41075309155659      124.40425011690502      121.66975342288846
H          113.67041161025325      124.09780392720148      123.32834067443721
O          116.90261846445770      118.74785180933456      120.12302197068190
C          112.62288835760546      125.88622655610170      121.93307628692510
H          112.64352160282807      124.15891576496330      120.62844864765439
H          111.36772595784825      124.13260644018143      121.85445242057574
C          114.02762184220231      126.34672166237408      121.54954659527318
H          111.88830797324214      126.45876597699039      121.36551605480749
H          112.45336988481174      126.07284454512104      122.99432834086386
C          114.24304509035301      127.81059402893116      121.92108694243872
H          114.77117325787184      125.73669339521824      122.06536630626256
H          114.16598125822715      126.20479410515333      120.47734755659857
C          115.66473960030012      128.30403831428680      121.67111041225282
H          113.54262224212758      128.43568457273173      121.36520959875985
H          114.02534406115144      127.93289213199219      122.98303157747559
C          116.02879881387832      128.30830081199687      120.18650513979894
H          115.76074901163936      129.32659028606383      122.04356855246456
H          116.38244665716824      127.68332733581296      122.21185746339303
N          117.27325921654854      129.00982986961785      119.96854036326415
H          116.15379077269138      127.29036551552140      119.81392201684007
H          115.24673458259544      128.81188539459379      119.61477614575679
C          118.42364252577110      128.38667470014650      119.72139748969022
H          117.22588285537414      130.01944852710619      120.05635521677073
O          112.51465997220444      121.64195688458059      121.76512658104065
C          119.65264017877192      129.27053978903783      119.63239162422575
C          120.75042208735043      128.72839052124283      120.55300349887540
H          120.00606794479108      129.25263551638275      118.59879835074199
H          119.39830700457989      130.29696950035017      119.89647265575486
C          120.34596453669700      128.83689369695125      122.02263422405888
H          120.92389034651002      127.67870985355756      120.30595108857675
H          121.67668747760969      129.27921023099088      120.38122140679617
C          121.37583264835141      128.17408033864066      122.94239935537482
H          120.23585966134702      129.88822684204737      122.29869828664674
H          119.37961855774708      128.34890667730485      122.15773188748699
C          120.96159277692975      128.28580098621561      124.40224895430330
H          121.47923339140351      127.12338445567913      122.66084445642376
H          122.34503306171216      128.66314504739600      122.83101965919178
N          119.87483531732329      127.57092813867973      124.72476944029764
O          118.49194274632858      127.16707073155388      119.55990320492073
C          119.18655426804906      127.67255623409969      125.99362983519674
H          119.36518089991645      127.09115819998321      123.98884925572621
C          117.77699107011631      128.23987834208600      125.81253010113331
H          119.12766061232807      126.67601760391824      126.44627712248764
H          119.78763949845086      128.31540474727123      126.64054847971103
C          117.00536050205923      128.24683287507079      127.13039719162069
H          117.85078272027623      129.25595491395723      125.42034684237858
H          117.25561947149164      127.62976161319507      125.07341948443297
C          115.60827811745837      128.86207783159824      127.02416450487588
H          116.91225123229570      127.22202491775973      127.49553181275321
H          117.58004994385485      128.80903852280662      127.86926678919431
C          114.70503650428699      128.12698220394321      126.03392949197683
H          115.15129203474041      128.82496877046219      128.01538447086764
H          115.69077802544395      129.91139070927647      126.73595231721717
C          113.21929920237865      128.40355163535480      126.28141260007706
H          114.96484124539847      128.41812034347032      125.01449047048006
H          114.87188341881377      127.05276493438534      126.12876913933533
N          112.33052874339297      127.66006520655858      125.38854254140638
H          112.96865625836685      128.11717214643485      127.30617426559766
H          113.00729395187209      129.46852118816216      126.16520169844567
H          112.60446477417608      126.67842391335479      125.37110747006010
H          112.40310427420872      128.01622171999679      124.43906126494957
O          121.59442057716483      128.95454170345837      125.21396596217227
C          115.22071816831138      114.88668792223424       97.58478823088586
C          115.85210907631256      114.60733466884395       98.92829026343324
C          113.97955685042075      114.02026756233141       97.33864166980852
C          112.71701933701850      114.57751264333218       97.99123253624356
H          113.80415168843673      113.96523335671225       96.26389262363541
H          114.17655663920431      113.01123520666033       97.70416828565956
C          112.82048124146849      114.72038442281951       99.51445721060735
H          112.48881156119280      115.55163630682586       97.55552591998365
H          111.88727609943236      113.90645799254486       97.75715011216286
C          111.44068900213243      114.97785332662457      100.08602114435763
H          113.23951394827544      113.81816941769073       99.95997593001226
H          113.46591691675873      115.56560446914955       99.75965176934152
N          111.03248316026237      114.10195089627271      101.00751820629051
O          116.19606079619173      113.35213627850011       99.07573785535310
O          116.04154044867798      115.46319410072222       99.77251623439533
H          116.59560077331348      113.12401962499978       99.98232310912586
H          115.97479330569956      114.64913827063293       96.83257897672651
H          114.97202975850695      115.94538202320508       97.51168698402023
C          109.68691138717104      114.07878031334211      101.54073658386596
H          111.67869028008806      113.38716246516583      101.32878489053560
C          109.64769697006888      114.08636807514735      103.06615017668497
H          109.16188902736955      114.95092726999432      101.14242224957910
H          109.18315849543886      113.17642710586416      101.17422521628016
C          108.21740137764922      113.88808590962256      103.55964340149794
H          110.27278675639458      113.27670064277072      103.44675688310325
H          110.04259716948704      115.03489110362146      103.43251816914942
C          108.11802309882913      113.74884503987633      105.07721163398425
H          107.59680602529599      114.72063373117125      103.22084683591287
H          107.82834847745458      112.97277388615879      103.10941057122145
C          106.70025277772415      113.35319815083704      105.48550648483601
H          108.82225212432228      112.98381431163814      105.40747374326777
H          108.39320206689052      114.68867526858121      105.55914632009977
C          106.48624211560980      113.31014772675616      106.99484409426047
H          105.99141756335727      114.06378899707993      105.05589680284832
H          106.47322096381897      112.36919906729287      105.07480208402993
N          106.60509614206418      114.63015221364832      107.57302175207386
H          105.48877845204099      112.90476092270292      107.20947773750628
H          107.22820781698042      112.66897350354861      107.47868743489799