      -----------------------------------------------------------      
     |                   =====================                   |     
     |                           x T B                           |     
     |                   =====================                   |     
     |                         S. Grimme                         |     
     |          Mulliken Center for Theoretical Chemistry        |     
     |                    University of Bonn                     |     
      -----------------------------------------------------------      

   * xtb version 6.6.1 (8d0f1dd) compiled by 'stahn@M-Bot' on 2023-08-01

   xtb is free software: you can redistribute it and/or modify it under
   the terms of the GNU Lesser General Public License as published by
   the Free Software Foundation, either version 3 of the License, or
   (at your option) any later version.
   
   xtb is distributed in the hope that it will be useful,
   but WITHOUT ANY WARRANTY; without even the implied warranty of
   MERCHANTABILITY or FITNESS FOR A PARTICULAR PURPOSE.  See the
   GNU Lesser General Public License for more details.
   
   Cite this work as:
   * C. Bannwarth, E. Caldeweyher, S. Ehlert, A. Hansen, P. Pracht,
     J. Seibert, S. Spicher, S. Grimme, WIREs Comput. Mol. Sci., 2020, 11,
     e01493. DOI: 10.1002/wcms.1493
   
   for GFN2-xTB:
   * C. Bannwarth, S. Ehlert and S. Grimme., J. Chem. Theory Comput., 2019,
     15, 1652-1671. DOI: 10.1021/acs.jctc.8b01176
   for GFN1-xTB:
   * S. Grimme, C. Bannwarth, P. Shushkov, J. Chem. Theory Comput., 2017,
     13, 1989-2009. DOI: 10.1021/acs.jctc.7b00118
   for GFN0-xTB:
   * P. Pracht, E. Caldeweyher, S. Ehlert, S. Grimme, ChemRxiv, 2019, preprint.
     DOI: 10.26434/chemrxiv.8326202.v1
   for GFN-FF:
   * S. Spicher and S. Grimme, Angew. Chem. Int. Ed., 2020, 59, 15665-15673.
     DOI: 10.1002/anie.202004239
   
   for ALPB and GBSA implicit solvation:
   * S. Ehlert, M. Stahn, S. Spicher, S. Grimme, J. Chem. Theory Comput.,
     2021, 17, 4250-4261. DOI: 10.1021/acs.jctc.1c00471
   
   for DFT-D4:
   * E. Caldeweyher, C. Bannwarth and S. Grimme, J. Chem. Phys., 2017,
     147, 034112. DOI: 10.1063/1.4993215
   * E. Caldeweyher, S. Ehlert, A. Hansen, H. Neugebauer, S. Spicher,
     C. Bannwarth and S. Grimme, J. Chem. Phys., 2019, 150, 154122.
     DOI: 10.1063/1.5090222
   * E. Caldeweyher, J.-M. Mewes, S. Ehlert and S. Grimme, Phys. Chem. Chem. Phys.
     2020, 22, 8499-8512. DOI: 10.1039/D0CP00502A
   
   for sTDA-xTB:
   * S. Grimme and C. Bannwarth, J. Chem. Phys., 2016, 145, 054103.
     DOI: 10.1063/1.4959605
   
   in the mass-spec context:
   * V. Asgeirsson, C. Bauer and S. Grimme, Chem. Sci., 2017, 8, 4879.
     DOI: 10.1039/c7sc00601b
   * J. Koopman and S. Grimme, ACS Omega 2019, 4, 12, 15120-15133.
     DOI: 10.1021/acsomega.9b02011
   
   for metadynamics refer to:
   * S. Grimme, J. Chem. Theory Comput., 2019, 155, 2847-2862
     DOI: 10.1021/acs.jctc.9b00143
   
   for SPH calculations refer to:
   * S. Spicher and S. Grimme, J. Chem. Theory Comput., 2021, 17, 1701-1714
     DOI: 10.1021/acs.jctc.0c01306
   
   with help from (in alphabetical order)
   P. Atkinson, C. Bannwarth, F. Bohle, G. Brandenburg, E. Caldeweyher
   M. Checinski, S. Dohm, S. Ehlert, S. Ehrlich, I. Gerasimov, C. Hölzer
   A. Katbashev, J. Koopman, C. Lavigne, S. Lehtola, F. März, M. Müller,
   F. Musil, H. Neugebauer, J. Pisarek, C. Plett, P. Pracht, F. Pultar,
   J. Seibert, P. Shushkov, S. Spicher, M. Stahn, M. Steiner, T. Strunk,
   J. Stückrath, T. Rose, and J. Unsleber
   
 * started run on 2024/06/18 at 04:38:29.049     

           -------------------------------------------------
          |                Calculation Setup                |
           -------------------------------------------------

          program call               : /home/abt-grimme/AK-bin/xtb input.xyz --input input.inp --opt --gbsa water
          hostname                   : boar052.thch.uni-bonn.de
          coordinate file            : input.xyz
          omp threads                :                     8

   ID    Z sym.   atoms
    1    6 C      1-120, 363-482, 725-844, 1087-1206, 1449-1568, 1811-1930,
                  2173-2292, 2535-2654, 2897-3016
    2    1 H      121-362, 483-724, 845-1086, 1207-1448, 1569-1810,
                  1931-2172, 2293-2534, 2655-2896, 3017-3258

molecular fragmentation (1/2 indicates fragments):
111111111111111111111111111111111111111111111111111111111111111111111111
111111111111111111111111111111111111111111111111111111111111111111111111
111111111111111111111111111111111111111111111111111111111111111111111111
111111111111111111111111111111111111111111111111111111111111111111111111
111111111111111111111111111111111111111111111111111111111111111111111111
112222222222222222222222222222222222222222222222222222222222222222222222
222222222222222222222222222222222222222222222222222222222222222222222222
222222222222222222222222222222222222222222222222222222222222222222222222
222222222222222222222222222222222222222222222222222222222222222222222222
222222222222222222222222222222222222222222222222222222222222222222222222
222222222222222222222222222222222222222222222222222222222222222222222222
222222222222222222222222222222222222222222222222222222222222222222222222
222222222222222222222222222222222222222222222222222222222222222222222222
222222222222222222222222222222222222222222222222222222222222222222222222
222222222222222222222222222222222222222222222222222222222222222222222222
222222222222222222222222222222222222222222222222222222222222222222222222
222222222222222222222222222222222222222222222222222222222222222222222222
222222222222222222222222222222222222222222222222222222222222222222222222
222222222222222222222222222222222222222222222222222222222222222222222222
222222222222222222222222222222222222222222222222222222222222222222222222
222222222222222222222222222222222222222222222222222222222222222222222222
222222222222222222222222222222222222222222222222222222222222222222222222
222222222222222222222222222222222222222222222222222222222222222222222222
222222222222222222222222222222222222222222222222222222222222222222222222
222222222222222222222222222222222222222222222222222222222222222222222222
222222222222222222222222222222222222222222222222222222222222222222222222
222222222222222222222222222222222222222222222222222222222222222222222222
222222222222222222222222222222222222222222222222222222222222222222222222
222222222222222222222222222222222222222222222222222222222222222222222222
222222222222222222222222222222222222222222222222222222222222222222222222
222222222222222222222222222222222222222222222222222222222222222222222222
222222222222222222222222222222222222222222222222222222222222222222222222
222222222222222222222222222222222222222222222222222222222222222222222222
222222222222222222222222222222222222222222222222222222222222222222222222
222222222222222222222222222222222222222222222222222222222222222222222222
222222222222222222222222222222222222222222222222222222222222222222222222
222222222222222222222222222222222222222222222222222222222222222222222222
222222222222222222222222222222222222222222222222222222222222222222222222
222222222222222222222222222222222222222222222222222222222222222222222222
222222222222222222222222222222222222222222222222222222222222222222222222
222222222222222222222222222222222222222222222222222222222222222222222222
222222222222222222222222222222222222222222222222222222222222222222222222
222222222222222222222222222222222222222222222222222222222222222222222222
222222222222222222222222222222222222222222222222222222222222222222222222
222222222222222222222222222222222222222222222222222222222222222222222222
222222222222222222
# atoms in fragment 1/2:   362  2896
 fragment masses (1/2) :     1685.21    13481.68
CMA distance (Bohr)    :  19.809
constraining FC (au)   :  0.0500

           -------------------------------------------------
          |                 G F N 2 - x T B                 |
           -------------------------------------------------

        Reference                      10.1021/acs.jctc.8b01176
      * Hamiltonian:
        H0-scaling (s, p, d)           1.850000    2.230000    2.230000
        zeta-weighting                 0.500000
      * Dispersion:
        s8                             2.700000
        a1                             0.520000
        a2                             5.000000
        s9                             5.000000
      * Repulsion:
        kExp                           1.500000    1.000000
        rExp                           1.000000
      * Coulomb:
        alpha                          2.000000
        third order                    shell-resolved
        anisotropic                    true
        a3                             3.000000
        a5                             4.000000
        cn-shift                       1.200000
        cn-exp                         4.000000
        max-rad                        5.000000

      * Solvation model:               GBSA
        Solvent                        water
        Parameter file                 internal GFN2-xTB/GBSA
        Dielectric constant                8.0200E+01
        Reference state                gsolv [1 M gas/solution]
        Free energy shift                  1.8574E-03 Eh       1.1656E+00 kcal/mol
        Temperature                        2.9815E+02 K
        Density                            1.0000E+00 kg/L
        Solvent mass                       1.8000E+01 g/mol
        Interaction kernel             Still
        Born radius scaling (c1)           1.5524E+00
        Born radii integrator          GBOBC
        Born offset                        2.4628E-02 a0       4.6540E-02 AA
        H-bond correction              true
        Ion screening                  false
        Surface tension                    1.0000E-05 Eh       1.5569E+01 dyn/cm
        Grid points                               230 per atom
q/qsh data taken from xtbrestart
CAMM data taken from xtbrestart

          ...................................................
          :                      SETUP                      :
          :.................................................:
          :  # basis functions                6498          :
          :  # atomic orbitals                6498          :
          :  # shells                         4338          :
          :  # electrons                      6498          :
          :  max. iterations                   250          :
          :  Hamiltonian                  GFN2-xTB          :
          :  restarted?                       true          :
          :  GBSA solvation                   true          :
          :  PC potential                    false          :
          :  electronic temp.          300.0000000     K    :
          :  accuracy                    1.0000000          :
          :  -> integral cutoff          0.2500000E+02      :
          :  -> integral neglect         0.1000000E-07      :
          :  -> SCF convergence          0.1000000E-05 Eh   :
          :  -> wf. convergence          0.1000000E-03 e    :
          :  Broyden damping             0.4000000          :
          ...................................................

 iter      E             dE          RMSdq      gap      omega  full diag
   1  -3472.3153211 -0.347232E+04  0.844E-05   10.76       0.0  T
   2  -3472.3153211 -0.566843E-08  0.675E-05   10.76      26.0  T
   3  -3472.3153211 -0.844148E-08  0.357E-05   10.76      49.1  T

   *** convergence criteria satisfied after 3 iterations ***

         #    Occupation            Energy/Eh            Energy/eV
      -------------------------------------------------------------
         1        2.0000           -0.6163349             -16.7713
       ...           ...                  ...                  ...
      3243        2.0000           -0.3843006             -10.4574
      3244        2.0000           -0.3841121             -10.4522
      3245        2.0000           -0.3839967             -10.4491
      3246        2.0000           -0.3836318             -10.4392
      3247        2.0000           -0.3832501             -10.4288
      3248        2.0000           -0.3828570             -10.4181
      3249        2.0000           -0.3808838             -10.3644 (HOMO)
      3250                          0.0145382               0.3956 (LUMO)
      3251                          0.0173639               0.4725
      3252                          0.0177775               0.4838
      3253                          0.0189748               0.5163
      3254                          0.0194654               0.5297
       ...                                ...                  ...
      6498                          0.3821736              10.3995
      -------------------------------------------------------------
                  HL-Gap            0.3954219 Eh           10.7600 eV
             Fermi-level           -0.1831728 Eh           -4.9844 eV

 SCC (total)                   0 d,  0 h,  7 min,  6.002 sec
 SCC setup                      ...        0 min,  1.719 sec (  0.403%)
 Dispersion                     ...        0 min,  3.525 sec (  0.828%)
 classical contributions        ...        0 min,  0.144 sec (  0.034%)
 integral evaluation            ...        0 min,  5.882 sec (  1.381%)
 iterations                     ...        2 min, 58.181 sec ( 41.826%)
 molecular gradient             ...        3 min, 47.928 sec ( 53.504%)
 printout                       ...        0 min,  8.624 sec (  2.024%)

         :::::::::::::::::::::::::::::::::::::::::::::::::::::
         ::                     SUMMARY                     ::
         :::::::::::::::::::::::::::::::::::::::::::::::::::::
         :: total energy           -3426.800936477081 Eh    ::
         :: total w/o Gsasa/hb     -3426.711658242395 Eh    ::
         :: gradient norm              0.632103944379 Eh/a0 ::
         :: HOMO-LUMO gap             10.759978658089 eV    ::
         ::.................................................::
         :: SCC energy             -3472.315321096159 Eh    ::
         :: -> isotropic ES            0.278327483288 Eh    ::
         :: -> anisotropic ES          1.292547870330 Eh    ::
         :: -> anisotropic XC          2.127613202735 Eh    ::
         :: -> dispersion             -4.311559770050 Eh    ::
         :: -> Gsolv                  -0.025152688175 Eh    ::
         ::    -> Gelec                0.064125546511 Eh    ::
         ::    -> Gsasa               -0.087288080447 Eh    ::
         ::    -> Ghb                 -0.003847597365 Eh    ::
         ::    -> Gshift               0.001857443127 Eh    ::
         :: repulsion energy          44.788797317424 Eh    ::
         :: add. restraining           0.000000000000 Eh    ::
         :: total charge              -0.000000000009 e     ::
         :::::::::::::::::::::::::::::::::::::::::::::::::::::

      ----------------------------------------------------------- 
     |              Fast Inertial Relaxation Engine              |
      ----------------------------------------------------------- 

          ...................................................
          :                      SETUP                      :
          :.................................................:
          :   energy convergence        0.5000000E-05 Eh    :
          :   grad. convergence         0.1000000E-02 Eh/a0 :
          :   optimization log               true           :
          :   writing optlog all                1     steps :
          :   Hessian reset                    20     steps :
          :   time step scaling                 5     steps :
          :   maximium step len.        1.0000000     a0    :
          :   initial time step         0.2500000     fs    :
          :   maximum time step         1.2500000     fs    :
          :   power reset thr           0.0000000     au    :
          :   alpha parameter           0.1000000           :
          :   BFGS update                   false           :
          :   preconditioning               false           :
          ...................................................

........................................................................
.............................. CYCLE    1 ..............................
........................................................................

 iter      E             dE          RMSdq      gap      omega  full diag
   1  -3472.5491022 -0.347255E+04  0.743E-03   10.80       0.0  T
   2  -3472.5491465 -0.442812E-04  0.390E-03   10.80       1.0  T
   3  -3472.5491469 -0.423185E-06  0.182E-03   10.80       1.0  T
   4  -3472.5491471 -0.153875E-06  0.223E-04   10.80       7.9  T
   5  -3472.5491471 -0.368236E-07  0.143E-04   10.80      12.2  T
     SCC iter.                  ...        4 min, 59.114 sec
     gradient                   ...        3 min, 48.206 sec
 * total energy  : -3426.8463969 Eh     change    :  -0.4546045E-01 Eh
   gradient norm :     0.5983092 Eh/a0  converged?    E=F G=F D=F
   time step     :     0.2500000 fs     power     :   0.2346013E-05
   step length   :     0.0740812 a0     speed     :   0.7167757E-02

........................................................................
.............................. CYCLE    2 ..............................
........................................................................

 iter      E             dE          RMSdq      gap      omega  full diag
   1  -3472.8935313 -0.347289E+04  0.109E-02   10.85       0.0  T
   2  -3472.8936259 -0.946248E-04  0.570E-03   10.85       1.0  T
   3  -3472.8936269 -0.980611E-06  0.266E-03   10.85       1.0  T
   4  -3472.8936273 -0.382694E-06  0.347E-04   10.85       5.0  T
   5  -3472.8936274 -0.893870E-07  0.231E-04   10.85       7.6  T
     SCC iter.                  ...        4 min, 54.884 sec
     gradient                   ...        3 min, 44.849 sec
 * total energy  : -3426.9088949 Eh     change    :  -0.6249794E-01 Eh
   gradient norm :     0.5497298 Eh/a0  converged?    E=F G=F D=F
   time step     :     0.2500000 fs     power     :   0.3172293E-05
   step length   :     0.1090688 a0     speed     :   0.1055299E-01

........................................................................
.............................. CYCLE    3 ..............................
........................................................................

 iter      E             dE          RMSdq      gap      omega  full diag
   1  -3473.3395094 -0.347334E+04  0.139E-02   10.91       0.0  T
   2  -3473.3396632 -0.153744E-03  0.731E-03   10.91       1.0  T
   3  -3473.3396649 -0.168775E-05  0.338E-03   10.91       1.0  T
   4  -3473.3396655 -0.655091E-06  0.456E-04   10.91       3.8  T
   5  -3473.3396657 -0.150138E-06  0.305E-04   10.91       5.7  T
     SCC iter.                  ...        4 min, 53.740 sec
     gradient                   ...        3 min, 45.464 sec
 * total energy  : -3426.9819370 Eh     change    :  -0.7304208E-01 Eh
   gradient norm :     0.4891406 Eh/a0  converged?    E=F G=F D=F
   time step     :     0.2500000 fs     power     :   0.3636337E-05
   step length   :     0.1411865 a0     speed     :   0.1366055E-01

........................................................................
.............................. CYCLE    4 ..............................
........................................................................

 iter      E             dE          RMSdq      gap      omega  full diag
   1  -3473.8754918 -0.347388E+04  0.165E-02   10.93       0.0  T
   2  -3473.8757034 -0.211632E-03  0.865E-03   10.93       1.0  T
   3  -3473.8757059 -0.249239E-05  0.396E-03   10.93       1.0  T
   4  -3473.8757068 -0.936614E-06  0.551E-04   10.93       3.2  T
   5  -3473.8757070 -0.208697E-06  0.367E-04   10.93       4.8  T
     SCC iter.                  ...        4 min, 52.189 sec
     gradient                   ...        3 min, 46.426 sec
 * total energy  : -3427.0582297 Eh     change    :  -0.7629274E-01 Eh
   gradient norm :     0.4209868 Eh/a0  converged?    E=F G=F D=F
   time step     :     0.2500000 fs     power     :   0.3708925E-05
   step length   :     0.1695942 a0     speed     :   0.1640915E-01

........................................................................
.............................. CYCLE    5 ..............................
........................................................................

 iter      E             dE          RMSdq      gap      omega  full diag
   1  -3474.4875884 -0.347449E+04  0.185E-02   10.93       0.0  T
   2  -3474.4878459 -0.257547E-03  0.967E-03   10.93       1.0  T
   3  -3474.4878493 -0.333869E-05  0.437E-03   10.93       1.0  T
   4  -3474.4878505 -0.118912E-05  0.630E-04   10.93       2.8  T
   5  -3474.4878507 -0.253775E-06  0.416E-04   10.93       4.2  T
   6  -3474.4878509 -0.162972E-06  0.188E-04   10.92       9.3  T
     SCC iter.                  ...        5 min, 52.034 sec
     gradient                   ...        3 min, 44.655 sec
 * total energy  : -3427.1307198 Eh     change    :  -0.7249008E-01 Eh
   gradient norm :     0.3520324 Eh/a0  converged?    E=F G=F D=F
   time step     :     0.2500000 fs     power     :   0.3419964E-05
   step length   :     0.1935659 a0     speed     :   0.1872854E-01

........................................................................
.............................. CYCLE    6 ..............................
........................................................................

 iter      E             dE          RMSdq      gap      omega  full diag
   1  -3475.2329037 -0.347523E+04  0.219E-02   10.93       0.0  T
   2  -3475.2332479 -0.344254E-03  0.115E-02   10.93       1.0  T
   3  -3475.2332530 -0.503810E-05  0.504E-03   10.93       1.0  T
   4  -3475.2332546 -0.159642E-05  0.753E-04   10.92       2.3  T
   5  -3475.2332549 -0.319313E-06  0.483E-04   10.92       3.6  T
   6  -3475.2332551 -0.181909E-06  0.200E-04   10.92       8.8  T
     SCC iter.                  ...        5 min, 56.088 sec
     gradient                   ...        3 min, 46.997 sec
 * total energy  : -3427.1996113 Eh     change    :  -0.6889150E-01 Eh
   gradient norm :     0.2858119 Eh/a0  converged?    E=F G=F D=F
   time step     :     0.2750000 fs     power     :   0.2777601E-05
   step length   :     0.2358466 a0     speed     :   0.2074493E-01

........................................................................
.............................. CYCLE    7 ..............................
........................................................................

 iter      E             dE          RMSdq      gap      omega  full diag
   1  -3476.1058396 -0.347611E+04  0.250E-02   10.93       0.0  T
   2  -3476.1062432 -0.403576E-03  0.131E-02   10.92       1.0  T
   3  -3476.1062505 -0.736653E-05  0.547E-03   10.92       1.0  T
   4  -3476.1062526 -0.205812E-05  0.885E-04   10.92       2.0  T
   5  -3476.1062530 -0.362563E-06  0.555E-04   10.92       3.2  T
   6  -3476.1062532 -0.202092E-06  0.208E-04   10.92       8.4  T
     SCC iter.                  ...        5 min, 53.944 sec
     gradient                   ...        3 min, 44.187 sec
 * total energy  : -3427.2568326 Eh     change    :  -0.5722137E-01 Eh
   gradient norm :     0.2423954 Eh/a0  converged?    E=F G=F D=F
   time step     :     0.3025000 fs     power     :   0.1879679E-05
   step length   :     0.2778513 a0     speed     :   0.2221786E-01

........................................................................
.............................. CYCLE    8 ..............................
........................................................................

 iter      E             dE          RMSdq      gap      omega  full diag
   1  -3477.0699163 -0.347707E+04  0.273E-02   10.92       0.0  T
   2  -3477.0703018 -0.385595E-03  0.145E-02   10.92       1.0  T
   3  -3477.0703119 -0.100146E-04  0.538E-03   10.92       1.0  T
   4  -3477.0703142 -0.229736E-05  0.991E-04   10.92       1.8  T
   5  -3477.0703145 -0.329303E-06  0.600E-04   10.92       2.9  T
   6  -3477.0703147 -0.184335E-06  0.192E-04   10.92       9.1  T
     SCC iter.                  ...        5 min, 51.541 sec
     gradient                   ...        3 min, 45.060 sec
 * total energy  : -3427.2970028 Eh     change    :  -0.4017017E-01 Eh
   gradient norm :     0.2369709 Eh/a0  converged?    E=F G=F D=F
   time step     :     0.3327500 fs     power     :   0.9674507E-06
   step length   :     0.3136456 a0     speed     :   0.2280007E-01

........................................................................
.............................. CYCLE    9 ..............................
........................................................................

 iter      E             dE          RMSdq      gap      omega  full diag
   1  -3478.0489500 -0.347805E+04  0.292E-02   10.92       0.0  T
   2  -3478.0492240 -0.274026E-03  0.159E-02   10.92       1.0  T
   3  -3478.0492363 -0.122820E-04  0.453E-03   10.92       1.0  T
   4  -3478.0492383 -0.205246E-05  0.104E-03   10.92       1.7  T
   5  -3478.0492385 -0.210688E-06  0.594E-04   10.92       2.9  T
   6  -3478.0492387 -0.128154E-06  0.147E-04   10.91      12.0  T
     SCC iter.                  ...        5 min, 51.969 sec
     gradient                   ...        3 min, 45.418 sec
 * total energy  : -3427.3207507 Eh     change    :  -0.2374784E-01 Eh
   gradient norm :     0.2506822 Eh/a0  converged?    E=F G=F D=F
   time step     :     0.3660250 fs     power     :   0.2991927E-06
   step length   :     0.3375127 a0     speed     :   0.2230460E-01

........................................................................
.............................. CYCLE   10 ..............................
........................................................................

 iter      E             dE          RMSdq      gap      omega  full diag
   1  -3478.9491978 -0.347895E+04  0.313E-02   10.92       0.0  T
   2  -3478.9493275 -0.129733E-03  0.177E-02   10.92       1.0  T
   3  -3478.9493409 -0.134234E-04  0.292E-03   10.92       1.0  T
   4  -3478.9493424 -0.150651E-05  0.105E-03   10.91       1.7  T
   5  -3478.9493425 -0.721930E-07  0.521E-04   10.91       3.4  T
   6  -3478.9493426 -0.715177E-07  0.829E-05   10.91      21.1  T
     SCC iter.                  ...        5 min, 54.112 sec
     gradient                   ...        3 min, 46.589 sec
 * total energy  : -3427.3327036 Eh     change    :  -0.1195295E-01 Eh
   gradient norm :     0.2499627 Eh/a0  converged?    E=F G=F D=F
   time step     :     0.4026275 fs     power     :  -0.9505709E-07
   step length   :     0.3505686 a0     speed     :   0.2106128E-01

........................................................................
.............................. CYCLE   11 ..............................
........................................................................
 * reset velocities

 iter      E             dE          RMSdq      gap      omega  full diag
   1  -3478.9322876 -0.347893E+04  0.116E-03   10.91       0.0  T
   2  -3478.9322883 -0.781910E-06  0.667E-04   10.91       2.6  T
   3  -3478.9322883 -0.460068E-08  0.265E-04   10.91       6.6  T
     SCC iter.                  ...        2 min, 55.457 sec
     gradient                   ...        3 min, 46.155 sec
 * total energy  : -3427.3350442 Eh     change    :  -0.2340558E-02 Eh
   gradient norm :     0.2429058 Eh/a0  converged?    E=F G=F D=F
   time step     :     0.2013138 fs     power     :   0.1520702E-06
   step length   :     0.0094980 a0     speed     :   0.1141231E-02

........................................................................
.............................. CYCLE   12 ..............................
........................................................................

 iter      E             dE          RMSdq      gap      omega  full diag
   1  -3478.8986146 -0.347890E+04  0.228E-03   10.91       0.0  T
   2  -3478.8986177 -0.302249E-05  0.131E-03   10.91       1.3  T
   3  -3478.8986177 -0.176778E-07  0.521E-04   10.91       3.4  T
   4  -3478.8986177 -0.864247E-08  0.441E-05   10.91      39.8  T
     SCC iter.                  ...        3 min, 52.023 sec
     gradient                   ...        3 min, 46.554 sec
 * total energy  : -3427.3394636 Eh     change    :  -0.4419473E-02 Eh
   gradient norm :     0.2290762 Eh/a0  converged?    E=F G=F D=F
   time step     :     0.2013138 fs     power     :   0.2827486E-06
   step length   :     0.0187278 a0     speed     :   0.2250233E-02

........................................................................
.............................. CYCLE   13 ..............................
........................................................................

 iter      E             dE          RMSdq      gap      omega  full diag
   1  -3478.8491929 -0.347885E+04  0.334E-03   10.91       0.0  T
   2  -3478.8491994 -0.654244E-05  0.192E-03   10.91       1.0  T
   3  -3478.8491995 -0.445430E-07  0.768E-04   10.91       2.3  T
   4  -3478.8491995 -0.239784E-07  0.745E-05   10.91      23.5  T
     SCC iter.                  ...        3 min, 53.917 sec
     gradient                   ...        3 min, 48.143 sec
 * total energy  : -3427.3454701 Eh     change    :  -0.6006465E-02 Eh
   gradient norm :     0.2089254 Eh/a0  converged?    E=F G=F D=F
   time step     :     0.2013138 fs     power     :   0.3776003E-06
   step length   :     0.0274314 a0     speed     :   0.3296020E-02

........................................................................
.............................. CYCLE   14 ..............................
........................................................................

 iter      E             dE          RMSdq      gap      omega  full diag
   1  -3478.7853238 -0.347879E+04  0.429E-03   10.91       0.0  T
   2  -3478.7853347 -0.108846E-04  0.247E-03   10.91       1.0  T
   3  -3478.7853348 -0.781829E-07  0.992E-04   10.91       1.8  T
   4  -3478.7853348 -0.429927E-07  0.100E-04   10.91      17.5  T
     SCC iter.                  ...        3 min, 50.372 sec
     gradient                   ...        3 min, 44.966 sec
 * total energy  : -3427.3523992 Eh     change    :  -0.6929099E-02 Eh
   gradient norm :     0.1831822 Eh/a0  converged?    E=F G=F D=F
   time step     :     0.2013138 fs     power     :   0.4264297E-06
   step length   :     0.0353668 a0     speed     :   0.4249502E-02

........................................................................
.............................. CYCLE   15 ..............................
........................................................................

 iter      E             dE          RMSdq      gap      omega  full diag
   1  -3478.7087398 -0.347871E+04  0.512E-03   10.91       0.0  T
   2  -3478.7087554 -0.155737E-04  0.294E-03   10.91       1.0  T
   3  -3478.7087555 -0.114368E-06  0.119E-03   10.91       1.5  T
   4  -3478.7087556 -0.634664E-07  0.122E-04   10.91      14.3  T
   5  -3478.7087556 -0.172345E-07  0.856E-05   10.91      20.5  T
     SCC iter.                  ...        4 min, 55.205 sec
     gradient                   ...        3 min, 44.270 sec
 * total energy  : -3427.3594930 Eh     change    :  -0.7093814E-02 Eh
   gradient norm :     0.1528342 Eh/a0  converged?    E=F G=F D=F
   time step     :     0.2013138 fs     power     :   0.4244706E-06
   step length   :     0.0423162 a0     speed     :   0.5084499E-02

........................................................................
.............................. CYCLE   16 ..............................
........................................................................

 iter      E             dE          RMSdq      gap      omega  full diag
   1  -3478.6216240 -0.347862E+04  0.578E-03   10.91       0.0  T
   2  -3478.6216440 -0.200397E-04  0.332E-03   10.91       1.0  T
   3  -3478.6216441 -0.134471E-06  0.135E-03   10.91       1.3  T
   4  -3478.6216442 -0.719137E-07  0.130E-04   10.92      13.5  T
   5  -3478.6216442 -0.199702E-07  0.883E-05   10.92      19.8  T
     SCC iter.                  ...        4 min, 51.778 sec
     gradient                   ...        3 min, 44.194 sec
 * total energy  : -3427.3659912 Eh     change    :  -0.6498139E-02 Eh
   gradient norm :     0.1193304 Eh/a0  converged?    E=F G=F D=F
   time step     :     0.2013138 fs     power     :   0.3732306E-06
   step length   :     0.0480895 a0     speed     :   0.5778197E-02

........................................................................
.............................. CYCLE   17 ..............................
........................................................................

 iter      E             dE          RMSdq      gap      omega  full diag
   1  -3478.5162641 -0.347852E+04  0.693E-03   10.92       0.0  T
   2  -3478.5162932 -0.291583E-04  0.399E-03   10.92       1.0  T
   3  -3478.5162934 -0.189241E-06  0.162E-03   10.92       1.1  T
   4  -3478.5162935 -0.999739E-07  0.153E-04   10.92      11.4  T
   5  -3478.5162936 -0.281443E-07  0.102E-04   10.92      17.1  T
     SCC iter.                  ...        4 min, 52.330 sec
     gradient                   ...        3 min, 46.812 sec
 * total energy  : -3427.3716810 Eh     change    :  -0.5689891E-02 Eh
   gradient norm :     0.0814427 Eh/a0  converged?    E=F G=F D=F
   time step     :     0.2214451 fs     power     :   0.2686648E-06
   step length   :     0.0582682 a0     speed     :   0.6364734E-02

........................................................................
.............................. CYCLE   18 ..............................
........................................................................

 iter      E             dE          RMSdq      gap      omega  full diag
   1  -3478.3943332 -0.347839E+04  0.794E-03   10.92       0.0  T
   2  -3478.3943722 -0.389255E-04  0.458E-03   10.92       1.0  T
   3  -3478.3943724 -0.248632E-06  0.188E-03   10.92       1.0  T
   4  -3478.3943726 -0.129435E-06  0.175E-04   10.92      10.0  T
   5  -3478.3943726 -0.371656E-07  0.115E-04   10.92      15.3  T
     SCC iter.                  ...        4 min, 52.710 sec
     gradient                   ...        3 min, 46.112 sec
 * total energy  : -3427.3754197 Eh     change    :  -0.3738651E-02 Eh
   gradient norm :     0.0486226 Eh/a0  converged?    E=F G=F D=F
   time step     :     0.2435896 fs     power     :   0.1166788E-06
   step length   :     0.0681187 a0     speed     :   0.6764296E-02

........................................................................
.............................. CYCLE   19 ..............................
........................................................................

 iter      E             dE          RMSdq      gap      omega  full diag
   1  -3478.2655281 -0.347827E+04  0.832E-03   10.92       0.0  T
   2  -3478.2655717 -0.436559E-04  0.482E-03   10.92       1.0  T
   3  -3478.2655720 -0.278327E-06  0.199E-03   10.92       1.0  T
   4  -3478.2655722 -0.139371E-06  0.183E-04   10.92       9.6  T
   5  -3478.2655722 -0.412147E-07  0.116E-04   10.92      15.1  T
     SCC iter.                  ...        4 min, 50.474 sec
     gradient                   ...        3 min, 45.617 sec
 * total energy  : -3427.3762859 Eh     change    :  -0.8662516E-03 Eh
   gradient norm :     0.0543600 Eh/a0  converged?    E=F G=F D=F
   time step     :     0.2679486 fs     power     :  -0.4530228E-07
   step length   :     0.0748916 a0     speed     :   0.6760776E-02

........................................................................
.............................. CYCLE   20 ..............................
........................................................................
 * reset velocities

 iter      E             dE          RMSdq      gap      omega  full diag
   1  -3478.2667369 -0.347827E+04  0.120E-04   10.92       0.0  T
   2  -3478.2667369 -0.597356E-08  0.784E-05   10.92      22.3  T
   3  -3478.2667369 -0.384944E-08  0.358E-05   10.92      49.0  T
     SCC iter.                  ...        2 min, 56.807 sec
     gradient                   ...        3 min, 46.015 sec
 * total energy  : -3427.3763355 Eh     change    :  -0.4957309E-04 Eh
   gradient norm :     0.0539990 Eh/a0  converged?    E=F G=F D=T
   time step     :     0.1339743 fs     power     :   0.4892620E-08
   step length   :     0.0009148 a0     speed     :   0.1651679E-03
 * RMSD in coord.:     0.0347860 a0     energy gain  -0.5753990E+00 Eh

........................................................................
.............................. CYCLE   21 ..............................
........................................................................

 iter      E             dE          RMSdq      gap      omega  full diag
   1  -3478.2728986 -0.347827E+04  0.545E-04   10.92       0.0  T
   2  -3478.2728986 -0.844566E-07  0.310E-04   10.92       5.6  T
   3  -3478.2728986 -0.687578E-09  0.843E-05   10.92      20.8  T
     SCC iter.                  ...        2 min, 56.872 sec
     gradient                   ...        3 min, 45.768 sec
 * total energy  : -3427.3765942 Eh     change    :  -0.2587059E-03 Eh
   gradient norm :     0.0522555 Eh/a0  converged?    E=F G=F D=F
   time step     :     0.2500000 fs     power     :   0.1350252E-07
   step length   :     0.0048713 a0     speed     :   0.4713272E-03

........................................................................
.............................. CYCLE   22 ..............................
........................................................................

 iter      E             dE          RMSdq      gap      omega  full diag
   1  -3478.2827522 -0.347828E+04  0.888E-04   10.92       0.0  T
   2  -3478.2827524 -0.216228E-06  0.507E-04   10.92       3.5  T
   3  -3478.2827524 -0.387945E-08  0.136E-04   10.92      12.9  T
     SCC iter.                  ...        2 min, 53.359 sec
     gradient                   ...        3 min, 45.793 sec
 * total energy  : -3427.3769977 Eh     change    :  -0.4034516E-03 Eh
   gradient norm :     0.0496097 Eh/a0  converged?    E=F G=F D=F
   time step     :     0.2500000 fs     power     :   0.2082316E-07
   step length   :     0.0079322 a0     speed     :   0.7674812E-03

........................................................................
.............................. CYCLE   23 ..............................
........................................................................

 iter      E             dE          RMSdq      gap      omega  full diag
   1  -3478.2958084 -0.347830E+04  0.119E-03   10.92       0.0  T
   2  -3478.2958088 -0.378262E-06  0.682E-04   10.92       2.6  T
   3  -3478.2958088 -0.952377E-08  0.180E-04   10.92       9.7  T
     SCC iter.                  ...        2 min, 55.711 sec
     gradient                   ...        3 min, 46.554 sec
 * total energy  : -3427.3775151 Eh     change    :  -0.5173886E-03 Eh
   gradient norm :     0.0463890 Eh/a0  converged?    E=F G=F D=F
   time step     :     0.2500000 fs     power     :   0.2641703E-07
   step length   :     0.0108318 a0     speed     :   0.1048036E-02

........................................................................
.............................. CYCLE   24 ..............................
........................................................................

 iter      E             dE          RMSdq      gap      omega  full diag
   1  -3478.3113808 -0.347831E+04  0.145E-03   10.92       0.0  T
   2  -3478.3113813 -0.532222E-06  0.831E-04   10.92       2.1  T
   3  -3478.3113813 -0.161626E-07  0.213E-04   10.92       8.2  T
     SCC iter.                  ...        2 min, 55.343 sec
     gradient                   ...        3 min, 46.552 sec
 * total energy  : -3427.3781118 Eh     change    :  -0.5967252E-03 Eh
   gradient norm :     0.0430503 Eh/a0  converged?    E=F G=F D=F
   time step     :     0.2500000 fs     power     :   0.3017704E-07
   step length   :     0.0135241 a0     speed     :   0.1308534E-02

........................................................................
.............................. CYCLE   25 ..............................
........................................................................

 iter      E             dE          RMSdq      gap      omega  full diag
   1  -3478.3285890 -0.347833E+04  0.166E-03   10.92       0.0  T
   2  -3478.3285897 -0.637678E-06  0.947E-04   10.92       1.8  T
   3  -3478.3285897 -0.227910E-07  0.233E-04   10.92       7.5  T
     SCC iter.                  ...        2 min, 55.739 sec
     gradient                   ...        3 min, 46.622 sec
 * total energy  : -3427.3787563 Eh     change    :  -0.6445044E-03 Eh
   gradient norm :     0.0401239 Eh/a0  converged?    E=F G=F D=F
   time step     :     0.2500000 fs     power     :   0.3236701E-07
   step length   :     0.0159776 a0     speed     :   0.1545923E-02

........................................................................
.............................. CYCLE   26 ..............................
........................................................................

 iter      E             dE          RMSdq      gap      omega  full diag
   1  -3478.3483071 -0.347835E+04  0.199E-03   10.92       0.0  T
   2  -3478.3483079 -0.810730E-06  0.114E-03   10.92       1.5  T
   3  -3478.3483080 -0.334458E-07  0.259E-04   10.92       6.8  T
   4  -3478.3483080 -0.134332E-07  0.673E-05   10.92      26.0  T
     SCC iter.                  ...        3 min, 56.370 sec
     gradient                   ...        3 min, 45.381 sec
 * total energy  : -3427.3794992 Eh     change    :  -0.7429424E-03 Eh
   gradient norm :     0.0379189 Eh/a0  converged?    E=F G=F D=F
   time step     :     0.2750000 fs     power     :   0.3362220E-07
   step length   :     0.0202457 a0     speed     :   0.1780796E-02

........................................................................
.............................. CYCLE   27 ..............................
........................................................................

 iter      E             dE          RMSdq      gap      omega  full diag
   1  -3478.3692897 -0.347837E+04  0.229E-03   10.92       0.0  T
   2  -3478.3692905 -0.880728E-06  0.131E-03   10.92       1.3  T
   3  -3478.3692906 -0.410673E-07  0.266E-04   10.92       6.6  T
   4  -3478.3692906 -0.168047E-07  0.741E-05   10.92      23.6  T
     SCC iter.                  ...        3 min, 51.329 sec
     gradient                   ...        3 min, 45.691 sec
 * total energy  : -3427.3803432 Eh     change    :  -0.8439606E-03 Eh
   gradient norm :     0.0369925 Eh/a0  converged?    E=F G=F D=F
   time step     :     0.3025000 fs     power     :   0.3464143E-07
   step length   :     0.0251241 a0     speed     :   0.2008998E-02

........................................................................
.............................. CYCLE   28 ..............................
........................................................................

 iter      E             dE          RMSdq      gap      omega  full diag
   1  -3478.3894533 -0.347839E+04  0.252E-03   10.92       0.0  T
   2  -3478.3894541 -0.745889E-06  0.145E-03   10.92       1.2  T
   3  -3478.3894541 -0.506270E-07  0.239E-04   10.92       7.3  T
   4  -3478.3894542 -0.192158E-07  0.805E-05   10.92      21.8  T
     SCC iter.                  ...        3 min, 53.315 sec
     gradient                   ...        3 min, 44.895 sec
 * total energy  : -3427.3813146 Eh     change    :  -0.9713808E-03 Eh
   gradient norm :     0.0372724 Eh/a0  converged?    E=F G=F D=F
   time step     :     0.3327500 fs     power     :   0.3653635E-07
   step length   :     0.0306873 a0     speed     :   0.2230773E-02

........................................................................
.............................. CYCLE   29 ..............................
........................................................................

 iter      E             dE          RMSdq      gap      omega  full diag
   1  -3478.4061054 -0.347841E+04  0.269E-03   10.92       0.0  T
   2  -3478.4061059 -0.456424E-06  0.156E-03   10.92       1.1  T
   3  -3478.4061060 -0.568466E-07  0.186E-04   10.92       9.4  T
   4  -3478.4061060 -0.212231E-07  0.835E-05   10.92      21.0  T
     SCC iter.                  ...        4 min,  1.247 sec
     gradient                   ...        3 min, 44.860 sec
 * total energy  : -3427.3824715 Eh     change    :  -0.1156969E-02 Eh
   gradient norm :     0.0377403 Eh/a0  converged?    E=F G=F D=F
   time step     :     0.3660250 fs     power     :   0.4012686E-07
   step length   :     0.0371611 a0     speed     :   0.2455799E-02

........................................................................
.............................. CYCLE   30 ..............................
........................................................................

 iter      E             dE          RMSdq      gap      omega  full diag
   1  -3478.4165153 -0.347842E+04  0.286E-03   10.92       0.0  T
   2  -3478.4165155 -0.256612E-06  0.167E-03   10.92       1.0  T
   3  -3478.4165156 -0.573596E-07  0.150E-04   10.92      11.7  T
   4  -3478.4165156 -0.240102E-07  0.825E-05   10.92      21.2  T
     SCC iter.                  ...        3 min, 55.909 sec
     gradient                   ...        3 min, 45.803 sec
 * total energy  : -3427.3838873 Eh     change    :  -0.1415723E-02 Eh
   gradient norm :     0.0369218 Eh/a0  converged?    E=F G=F D=F
   time step     :     0.4026275 fs     power     :   0.4501276E-07
   step length   :     0.0449699 a0     speed     :   0.2701676E-02

........................................................................
.............................. CYCLE   31 ..............................
........................................................................

 iter      E             dE          RMSdq      gap      omega  full diag
   1  -3478.4187983 -0.347842E+04  0.315E-03   10.92       0.0  T
   2  -3478.4187989 -0.526390E-06  0.186E-03   10.92       1.0  T
   3  -3478.4187989 -0.536970E-07  0.167E-04   10.92      10.5  T
   4  -3478.4187989 -0.280425E-07  0.755E-05   10.92      23.2  T
     SCC iter.                  ...        3 min, 54.139 sec
     gradient                   ...        3 min, 50.167 sec
 * total energy  : -3427.3855995 Eh     change    :  -0.1712245E-02 Eh
   gradient norm :     0.0338208 Eh/a0  converged?    E=F G=F D=F
   time step     :     0.4428903 fs     power     :   0.4914612E-07
   step length   :     0.0546103 a0     speed     :   0.2982592E-02

........................................................................
.............................. CYCLE   32 ..............................
........................................................................

 iter      E             dE          RMSdq      gap      omega  full diag
   1  -3478.4134327 -0.347841E+04  0.362E-03   10.92       0.0  T
   2  -3478.4134341 -0.144982E-05  0.217E-03   10.92       1.0  T
   3  -3478.4134342 -0.597465E-07  0.262E-04   10.92       6.7  T
   4  -3478.4134342 -0.316118E-07  0.759E-05   10.92      23.1  T
     SCC iter.                  ...        3 min, 53.317 sec
     gradient                   ...        3 min, 44.818 sec
 * total energy  : -3427.3875535 Eh     change    :  -0.1953942E-02 Eh
   gradient norm :     0.0291672 Eh/a0  converged?    E=F G=F D=F
   time step     :     0.4871793 fs     power     :   0.4977940E-07
   step length   :     0.0663997 a0     speed     :   0.3296798E-02

........................................................................
.............................. CYCLE   33 ..............................
........................................................................

 iter      E             dE          RMSdq      gap      omega  full diag
   1  -3478.4055782 -0.347841E+04  0.418E-03   10.93       0.0  T
   2  -3478.4055805 -0.235711E-05  0.252E-03   10.93       1.0  T
   3  -3478.4055806 -0.720543E-07  0.337E-04   10.93       5.2  T
   4  -3478.4055806 -0.348155E-07  0.794E-05   10.93      22.1  T
     SCC iter.                  ...        3 min, 59.634 sec
     gradient                   ...        3 min, 45.822 sec
 * total energy  : -3427.3896145 Eh     change    :  -0.2061010E-02 Eh
   gradient norm :     0.0263088 Eh/a0  converged?    E=F G=F D=F
   time step     :     0.5358972 fs     power     :   0.4632909E-07
   step length   :     0.0802143 a0     speed     :   0.3620639E-02

........................................................................
.............................. CYCLE   34 ..............................
........................................................................

 iter      E             dE          RMSdq      gap      omega  full diag
   1  -3478.4070721 -0.347841E+04  0.468E-03   10.93       0.0  T
   2  -3478.4070739 -0.181842E-05  0.281E-03   10.93       1.0  T
   3  -3478.4070740 -0.903701E-07  0.251E-04   10.93       7.0  T
   4  -3478.4070741 -0.347327E-07  0.838E-05   10.93      20.9  T
     SCC iter.                  ...        3 min, 56.138 sec
     gradient                   ...        3 min, 45.354 sec
 * total energy  : -3427.3917191 Eh     change    :  -0.2104607E-02 Eh
   gradient norm :     0.0271125 Eh/a0  converged?    E=F G=F D=F
   time step     :     0.5894869 fs     power     :   0.4279299E-07
   step length   :     0.0952262 a0     speed     :   0.3907487E-02

........................................................................
.............................. CYCLE   35 ..............................
........................................................................

 iter      E             dE          RMSdq      gap      omega  full diag
   1  -3478.4315642 -0.347843E+04  0.532E-03   10.93       0.0  T
   2  -3478.4315646 -0.458874E-06  0.315E-03   10.93       1.0  T
   3  -3478.4315648 -0.128215E-06  0.163E-04   10.93      10.7  T
   4  -3478.4315648 -0.242280E-07  0.940E-05   10.93      18.6  T
     SCC iter.                  ...        3 min, 57.314 sec
     gradient                   ...        3 min, 46.483 sec
 * total energy  : -3427.3939837 Eh     change    :  -0.2264605E-02 Eh
   gradient norm :     0.0267195 Eh/a0  converged?    E=F G=F D=F
   time step     :     0.6484356 fs     power     :   0.4254416E-07
   step length   :     0.1109457 a0     speed     :   0.4138651E-02

........................................................................
.............................. CYCLE   36 ..............................
........................................................................

 iter      E             dE          RMSdq      gap      omega  full diag
   1  -3478.4851029 -0.347849E+04  0.637E-03   10.93       0.0  T
   2  -3478.4851042 -0.127223E-05  0.369E-03   10.93       1.0  T
   3  -3478.4851043 -0.177508E-06  0.245E-04   10.93       7.2  T
   4  -3478.4851044 -0.233999E-07  0.110E-04   10.93      15.9  T
     SCC iter.                  ...        3 min, 56.576 sec
     gradient                   ...        3 min, 45.502 sec
 * total energy  : -3427.3964509 Eh     change    :  -0.2467243E-02 Eh
   gradient norm :     0.0225253 Eh/a0  converged?    E=F G=F D=F
   time step     :     0.7132792 fs     power     :   0.4124915E-07
   step length   :     0.1288029 a0     speed     :   0.4367985E-02

........................................................................
.............................. CYCLE   37 ..............................
........................................................................

 iter      E             dE          RMSdq      gap      omega  full diag
   1  -3478.5560857 -0.347856E+04  0.721E-03   10.94       0.0  T
   2  -3478.5560889 -0.314716E-05  0.414E-03   10.94       1.0  T
   3  -3478.5560891 -0.197224E-06  0.405E-04   10.94       4.3  T
   4  -3478.5560891 -0.351683E-07  0.118E-04   10.94      14.9  T
     SCC iter.                  ...        3 min, 54.625 sec
     gradient                   ...        3 min, 46.408 sec
 * total energy  : -3427.3989050 Eh     change    :  -0.2454038E-02 Eh
   gradient norm :     0.0221858 Eh/a0  converged?    E=F G=F D=F
   time step     :     0.7846071 fs     power     :   0.3562105E-07
   step length   :     0.1495487 a0     speed     :   0.4610472E-02

........................................................................
.............................. CYCLE   38 ..............................
........................................................................

 iter      E             dE          RMSdq      gap      omega  full diag
   1  -3478.6092285 -0.347861E+04  0.683E-03   10.94       0.0  T
   2  -3478.6092295 -0.922965E-06  0.397E-03   10.94       1.0  T
   3  -3478.6092296 -0.166724E-06  0.206E-04   10.94       8.5  T
   4  -3478.6092296 -0.190826E-07  0.948E-05   10.94      18.5  T
     SCC iter.                  ...        3 min, 54.349 sec
     gradient                   ...        3 min, 45.482 sec
 * total energy  : -3427.4014158 Eh     change    :  -0.2510803E-02 Eh
   gradient norm :     0.0244402 Eh/a0  converged?    E=F G=F D=F
   time step     :     0.8630678 fs     power     :   0.3446351E-07
   step length   :     0.1706048 a0     speed     :   0.4781469E-02

........................................................................
.............................. CYCLE   39 ..............................
........................................................................

 iter      E             dE          RMSdq      gap      omega  full diag
   1  -3478.6203006 -0.347862E+04  0.630E-03   10.95       0.0  T
   2  -3478.6203028 -0.214809E-05  0.377E-03   10.95       1.0  T
   3  -3478.6203030 -0.187441E-06  0.236E-04   10.95       7.4  T
   4  -3478.6203030 -0.249070E-07  0.110E-04   10.95      15.9  T
     SCC iter.                  ...        3 min, 59.440 sec
     gradient                   ...        3 min, 45.570 sec
 * total energy  : -3427.4042638 Eh     change    :  -0.2848054E-02 Eh
   gradient norm :     0.0211826 Eh/a0  converged?    E=F G=F D=F
   time step     :     0.9493746 fs     power     :   0.3549393E-07
   step length   :     0.1936992 a0     speed     :   0.4935205E-02

........................................................................
.............................. CYCLE   40 ..............................
........................................................................

 iter      E             dE          RMSdq      gap      omega  full diag
   1  -3478.6077623 -0.347861E+04  0.632E-03   10.96       0.0  T
   2  -3478.6077674 -0.504184E-05  0.381E-03   10.96       1.0  T
   3  -3478.6077677 -0.267260E-06  0.454E-04   10.96       3.9  T
   4  -3478.6077677 -0.527298E-07  0.154E-04   10.96      11.4  T
     SCC iter.                  ...        3 min, 55.374 sec
     gradient                   ...        3 min, 46.401 sec
 * total energy  : -3427.4072792 Eh     change    :  -0.3015414E-02 Eh
   gradient norm :     0.0235089 Eh/a0  converged?    E=F G=F D=F
   time step     :     1.0443120 fs     power     :   0.3339913E-07
   step length   :     0.2216773 a0     speed     :   0.5134594E-02

........................................................................
.............................. CYCLE   41 ..............................
........................................................................

 iter      E             dE          RMSdq      gap      omega  full diag
   1  -3478.6275696 -0.347863E+04  0.707E-03   10.97       0.0  T
   2  -3478.6275705 -0.847842E-06  0.414E-03   10.97       1.0  T
   3  -3478.6275707 -0.260139E-06  0.234E-04   10.97       7.5  T
   4  -3478.6275708 -0.305790E-07  0.138E-04   10.97      12.7  T
     SCC iter.                  ...        3 min, 55.710 sec
     gradient                   ...        3 min, 47.567 sec
 * total energy  : -3427.4108101 Eh     change    :  -0.3530867E-02 Eh
   gradient norm :     0.0214763 Eh/a0  converged?    E=F G=F D=F
   time step     :     1.1487432 fs     power     :   0.3745765E-07
   step length   :     0.2518582 a0     speed     :   0.5303325E-02

........................................................................
.............................. CYCLE   42 ..............................
........................................................................

 iter      E             dE          RMSdq      gap      omega  full diag
   1  -3478.6762100 -0.347868E+04  0.860E-03   10.98       0.0  T
   2  -3478.6762139 -0.386600E-05  0.499E-03   10.98       1.0  T
   3  -3478.6762142 -0.254815E-06  0.402E-04   10.98       4.4  T
   4  -3478.6762142 -0.404898E-07  0.124E-04   10.98      14.2  T
     SCC iter.                  ...        3 min, 54.202 sec
     gradient                   ...        3 min, 48.019 sec
 * total energy  : -3427.4146939 Eh     change    :  -0.3883839E-02 Eh
   gradient norm :     0.0218469 Eh/a0  converged?    E=F G=F D=F
   time step     :     1.2500000 fs     power     :   0.3570155E-07
   step length   :     0.2869462 a0     speed     :   0.5552718E-02
 * RMSD in coord.:     0.0328387 a0     energy gain  -0.3835842E-01 Eh

........................................................................
.............................. CYCLE   43 ..............................
........................................................................

 iter      E             dE          RMSdq      gap      omega  full diag
   1  -3478.6789731 -0.347868E+04  0.140E-03   10.98       0.0  T
   2  -3478.6789731 -0.382938E-07  0.819E-04   10.98       2.1  T
   3  -3478.6789731 -0.103255E-07  0.506E-05   10.98      34.6  T
     SCC iter.                  ...        2 min, 59.511 sec
     gradient                   ...        3 min, 47.315 sec
 * total energy  : -3427.4154407 Eh     change    :  -0.7467259E-03 Eh
   gradient norm :     0.0217494 Eh/a0  converged?    E=F G=F D=F
   time step     :     0.2500000 fs     power     :   0.3899335E-07
   step length   :     0.0557316 a0     speed     :   0.5392334E-02

........................................................................
.............................. CYCLE   44 ..............................
........................................................................

 iter      E             dE          RMSdq      gap      omega  full diag
   1  -3478.6755101 -0.347868E+04  0.135E-03   10.98       0.0  T
   2  -3478.6755102 -0.171522E-06  0.792E-04   10.98       2.2  T
   3  -3478.6755102 -0.117029E-07  0.868E-05   10.98      20.2  T
     SCC iter.                  ...        2 min, 59.834 sec
     gradient                   ...        3 min, 45.986 sec
 * total energy  : -3427.4162349 Eh     change    :  -0.7942463E-03 Eh
   gradient norm :     0.0201309 Eh/a0  converged?    E=F G=F D=F
   time step     :     0.2500000 fs     power     :   0.4130987E-07
   step length   :     0.0545811 a0     speed     :   0.5281014E-02

........................................................................
.............................. CYCLE   45 ..............................
........................................................................

 iter      E             dE          RMSdq      gap      omega  full diag
   1  -3478.6676127 -0.347867E+04  0.148E-03   10.98       0.0  T
   2  -3478.6676132 -0.407974E-06  0.869E-04   10.98       2.0  T
   3  -3478.6676132 -0.149066E-07  0.159E-04   10.98      11.0  T
     SCC iter.                  ...        2 min, 58.633 sec
     gradient                   ...        3 min, 47.307 sec
 * total energy  : -3427.4170433 Eh     change    :  -0.8083814E-03 Eh
   gradient norm :     0.0180421 Eh/a0  converged?    E=F G=F D=F
   time step     :     0.2500000 fs     power     :   0.4153409E-07
   step length   :     0.0540282 a0     speed     :   0.5227522E-02

........................................................................
.............................. CYCLE   46 ..............................
........................................................................

 iter      E             dE          RMSdq      gap      omega  full diag
   1  -3478.6581723 -0.347866E+04  0.162E-03   10.99       0.0  T
   2  -3478.6581728 -0.521291E-06  0.944E-04   10.99       1.9  T
   3  -3478.6581728 -0.168425E-07  0.185E-04   10.99       9.5  T
     SCC iter.                  ...        3 min,  1.673 sec
     gradient                   ...        3 min, 45.295 sec
 * total energy  : -3427.4178326 Eh     change    :  -0.7892946E-03 Eh
   gradient norm :     0.0169421 Eh/a0  converged?    E=F G=F D=F
   time step     :     0.2500000 fs     power     :   0.4021111E-07
   step length   :     0.0539490 a0     speed     :   0.5219853E-02

........................................................................
.............................. CYCLE   47 ..............................
........................................................................

 iter      E             dE          RMSdq      gap      omega  full diag
   1  -3478.6507309 -0.347865E+04  0.164E-03   10.99       0.0  T
   2  -3478.6507313 -0.386484E-06  0.957E-04   10.99       1.8  T
   3  -3478.6507313 -0.157502E-07  0.146E-04   10.99      12.0  T
     SCC iter.                  ...        2 min, 56.360 sec
     gradient                   ...        3 min, 47.733 sec
 * total energy  : -3427.4185951 Eh     change    :  -0.7625620E-03 Eh
   gradient norm :     0.0171549 Eh/a0  converged?    E=F G=F D=F
   time step     :     0.2500000 fs     power     :   0.3899655E-07
   step length   :     0.0539670 a0     speed     :   0.5221598E-02

........................................................................
.............................. CYCLE   48 ..............................
........................................................................

 iter      E             dE          RMSdq      gap      omega  full diag
   1  -3478.6477953 -0.347865E+04  0.176E-03   10.99       0.0  T
   2  -3478.6477955 -0.182705E-06  0.103E-03   10.99       1.7  T
   3  -3478.6477955 -0.149585E-07  0.829E-05   10.99      21.1  T
   4  -3478.6477955 -0.414093E-08  0.303E-05   10.99      57.7  T
     SCC iter.                  ...        4 min,  1.660 sec
     gradient                   ...        3 min, 47.443 sec
 * total energy  : -3427.4194215 Eh     change    :  -0.8263320E-03 Eh
   gradient norm :     0.0175048 Eh/a0  converged?    E=F G=F D=F
   time step     :     0.2750000 fs     power     :   0.3871982E-07
   step length   :     0.0592637 a0     speed     :   0.5212799E-02

........................................................................
.............................. CYCLE   49 ..............................
........................................................................

 iter      E             dE          RMSdq      gap      omega  full diag
   1  -3478.6517724 -0.347865E+04  0.193E-03   10.99       0.0  T
   2  -3478.6517725 -0.652526E-07  0.113E-03   10.99       1.6  T
   3  -3478.6517725 -0.154059E-07  0.596E-05   10.99      29.4  T
   4  -3478.6517725 -0.456794E-08  0.277E-05   10.99      63.2  T
     SCC iter.                  ...        3 min, 56.677 sec
     gradient                   ...        3 min, 54.255 sec
 * total energy  : -3427.4203316 Eh     change    :  -0.9101578E-03 Eh
   gradient norm :     0.0167142 Eh/a0  converged?    E=F G=F D=F
   time step     :     0.3025000 fs     power     :   0.3885132E-07
   step length   :     0.0650856 a0     speed     :   0.5204447E-02

........................................................................
.............................. CYCLE   50 ..............................
........................................................................

 iter      E             dE          RMSdq      gap      omega  full diag
   1  -3478.6632950 -0.347866E+04  0.221E-03   11.00       0.0  T
   2  -3478.6632953 -0.220442E-06  0.129E-03   11.00       1.4  T
   3  -3478.6632953 -0.215573E-07  0.940E-05   11.00      18.6  T
   4  -3478.6632953 -0.486443E-08  0.359E-05   11.00      48.8  T
     SCC iter.                  ...        4 min,  0.893 sec
     gradient                   ...        3 min, 59.449 sec
 * total energy  : -3427.4213194 Eh     change    :  -0.9878104E-03 Eh
   gradient norm :     0.0147805 Eh/a0  converged?    E=F G=F D=F
   time step     :     0.3327500 fs     power     :   0.3790842E-07
   step length   :     0.0718826 a0     speed     :   0.5225415E-02

........................................................................
.............................. CYCLE   51 ..............................
........................................................................

 iter      E             dE          RMSdq      gap      omega  full diag
   1  -3478.6798848 -0.347868E+04  0.247E-03   11.00       0.0  T
   2  -3478.6798853 -0.498305E-06  0.144E-03   11.00       1.2  T
   3  -3478.6798854 -0.289679E-07  0.154E-04   11.00      11.4  T
   4  -3478.6798854 -0.657792E-08  0.454E-05   11.00      38.6  T
     SCC iter.                  ...        4 min,  2.510 sec
     gradient                   ...        3 min, 47.113 sec
 * total energy  : -3427.4223499 Eh     change    :  -0.1030492E-02 Eh
   gradient norm :     0.0136791 Eh/a0  converged?    E=F G=F D=F
   time step     :     0.3660250 fs     power     :   0.3537415E-07
   step length   :     0.0800375 a0     speed     :   0.5289295E-02

........................................................................
.............................. CYCLE   52 ..............................
........................................................................

 iter      E             dE          RMSdq      gap      omega  full diag
   1  -3478.6944835 -0.347869E+04  0.250E-03   11.00       0.0  T
   2  -3478.6944839 -0.380901E-06  0.146E-03   11.00       1.2  T
   3  -3478.6944839 -0.310447E-07  0.126E-04   11.00      13.9  T
   4  -3478.6944839 -0.614136E-08  0.448E-05   11.00      39.1  T
     SCC iter.                  ...        3 min, 58.305 sec
     gradient                   ...        3 min, 46.953 sec
 * total energy  : -3427.4234104 Eh     change    :  -0.1060472E-02 Eh
   gradient norm :     0.0144698 Eh/a0  converged?    E=F G=F D=F
   time step     :     0.4026275 fs     power     :   0.3316937E-07
   step length   :     0.0891026 a0     speed     :   0.5353057E-02

........................................................................
.............................. CYCLE   53 ..............................
........................................................................

 iter      E             dE          RMSdq      gap      omega  full diag
   1  -3478.6995127 -0.347870E+04  0.239E-03   11.01       0.0  T
   2  -3478.6995128 -0.103126E-06  0.140E-03   11.01       1.2  T
   3  -3478.6995128 -0.301798E-07  0.749E-05   11.01      23.4  T
   4  -3478.6995128 -0.516729E-08  0.399E-05   11.01      43.9  T
     SCC iter.                  ...        3 min, 58.204 sec
     gradient                   ...        3 min, 46.848 sec
 * total energy  : -3427.4245410 Eh     change    :  -0.1130571E-02 Eh
   gradient norm :     0.0144514 Eh/a0  converged?    E=F G=F D=F
   time step     :     0.4428903 fs     power     :   0.3253383E-07
   step length   :     0.0983308 a0     speed     :   0.5370423E-02

........................................................................
.............................. CYCLE   54 ..............................
........................................................................

 iter      E             dE          RMSdq      gap      omega  full diag
   1  -3478.6922505 -0.347869E+04  0.247E-03   11.01       0.0  T
   2  -3478.6922510 -0.450977E-06  0.145E-03   11.01       1.2  T
   3  -3478.6922510 -0.382479E-07  0.129E-04   11.01      13.6  T
   4  -3478.6922510 -0.675254E-08  0.493E-05   11.01      35.5  T
     SCC iter.                  ...        3 min, 56.115 sec
     gradient                   ...        3 min, 46.968 sec
 * total energy  : -3427.4257579 Eh     change    :  -0.1216888E-02 Eh
   gradient norm :     0.0128610 Eh/a0  converged?    E=F G=F D=F
   time step     :     0.4871793 fs     power     :   0.3154646E-07
   step length   :     0.1085640 a0     speed     :   0.5390292E-02

........................................................................
.............................. CYCLE   55 ..............................
........................................................................

 iter      E             dE          RMSdq      gap      omega  full diag
   1  -3478.6786196 -0.347868E+04  0.256E-03   11.01       0.0  T
   2  -3478.6786205 -0.919643E-06  0.151E-03   11.01       1.2  T
   3  -3478.6786206 -0.512800E-07  0.220E-04   11.01       8.0  T
   4  -3478.6786206 -0.103469E-07  0.649E-05   11.01      27.0  T
     SCC iter.                  ...        3 min, 58.498 sec
     gradient                   ...        3 min, 47.143 sec
 * total energy  : -3427.4270257 Eh     change    :  -0.1267812E-02 Eh
   gradient norm :     0.0131096 Eh/a0  converged?    E=F G=F D=F
   time step     :     0.5358972 fs     power     :   0.2952996E-07
   step length   :     0.1206709 a0     speed     :   0.5446735E-02

........................................................................
.............................. CYCLE   56 ..............................
........................................................................

 iter      E             dE          RMSdq      gap      omega  full diag
   1  -3478.6736294 -0.347867E+04  0.245E-03   11.02       0.0  T
   2  -3478.6736297 -0.356160E-06  0.144E-03   11.02       1.2  T
   3  -3478.6736298 -0.497507E-07  0.129E-04   11.02      13.6  T
   4  -3478.6736298 -0.876025E-08  0.632E-05   11.02      27.7  T
     SCC iter.                  ...        3 min, 57.406 sec
     gradient                   ...        3 min, 48.018 sec
 * total energy  : -3427.4283772 Eh     change    :  -0.1351488E-02 Eh
   gradient norm :     0.0138503 Eh/a0  converged?    E=F G=F D=F
   time step     :     0.5894869 fs     power     :   0.2916359E-07
   step length   :     0.1333856 a0     speed     :   0.5473307E-02

........................................................................
.............................. CYCLE   57 ..............................
........................................................................

 iter      E             dE          RMSdq      gap      omega  full diag
   1  -3478.6863134 -0.347869E+04  0.280E-03   11.03       0.0  T
   2  -3478.6863137 -0.331863E-06  0.163E-03   11.03       1.1  T
   3  -3478.6863138 -0.409209E-07  0.142E-04   11.03      12.4  T
   4  -3478.6863138 -0.103782E-07  0.567E-05   11.03      30.9  T
     SCC iter.                  ...        3 min, 56.251 sec
     gradient                   ...        3 min, 48.096 sec
 * total energy  : -3427.4298654 Eh     change    :  -0.1488275E-02 Eh
   gradient norm :     0.0123307 Eh/a0  converged?    E=F G=F D=F
   time step     :     0.6484356 fs     power     :   0.2907165E-07
   step length   :     0.1471650 a0     speed     :   0.5489754E-02

........................................................................
.............................. CYCLE   58 ..............................
........................................................................

 iter      E             dE          RMSdq      gap      omega  full diag
   1  -3478.7100967 -0.347871E+04  0.324E-03   11.03       0.0  T
   2  -3478.7100974 -0.696386E-06  0.188E-03   11.03       1.0  T
   3  -3478.7100975 -0.413947E-07  0.201E-04   11.03       8.7  T
   4  -3478.7100975 -0.111941E-07  0.569E-05   11.03      30.8  T
     SCC iter.                  ...        3 min, 54.422 sec
     gradient                   ...        3 min, 46.523 sec
 * total energy  : -3427.4314506 Eh     change    :  -0.1585118E-02 Eh
   gradient norm :     0.0129145 Eh/a0  converged?    E=F G=F D=F
   time step     :     0.7132792 fs     power     :   0.2782923E-07
   step length   :     0.1638059 a0     speed     :   0.5555012E-02

........................................................................
.............................. CYCLE   59 ..............................
........................................................................

 iter      E             dE          RMSdq      gap      omega  full diag
   1  -3478.7239637 -0.347872E+04  0.309E-03   11.04       0.0  T
   2  -3478.7239639 -0.223139E-06  0.183E-03   11.04       1.0  T
   3  -3478.7239640 -0.508758E-07  0.119E-04   11.04      14.8  T
   4  -3478.7239640 -0.980572E-08  0.667E-05   11.04      26.3  T
     SCC iter.                  ...        4 min,  4.259 sec
     gradient                   ...        3 min, 46.521 sec
 * total energy  : -3427.4331849 Eh     change    :  -0.1734350E-02 Eh
   gradient norm :     0.0123917 Eh/a0  converged?    E=F G=F D=F
   time step     :     0.7846071 fs     power     :   0.2817571E-07
   step length   :     0.1815004 a0     speed     :   0.5595521E-02

........................................................................
.............................. CYCLE   60 ..............................
........................................................................

 iter      E             dE          RMSdq      gap      omega  full diag
   1  -3478.7250033 -0.347873E+04  0.333E-03   11.05       0.0  T
   2  -3478.7250047 -0.139273E-05  0.202E-03   11.05       1.0  T
   3  -3478.7250048 -0.695491E-07  0.246E-04   11.05       7.1  T
   4  -3478.7250048 -0.188120E-07  0.834E-05   11.05      21.0  T
     SCC iter.                  ...        4 min,  4.843 sec
     gradient                   ...        3 min, 46.719 sec
 * total energy  : -3427.4350608 Eh     change    :  -0.1875906E-02 Eh
   gradient norm :     0.0115318 Eh/a0  converged?    E=F G=F D=F
   time step     :     0.8630678 fs     power     :   0.2698139E-07
   step length   :     0.2022492 a0     speed     :   0.5668353E-02

........................................................................
.............................. CYCLE   61 ..............................
........................................................................

 iter      E             dE          RMSdq      gap      omega  full diag
   1  -3478.7439739 -0.347874E+04  0.389E-03   11.06       0.0  T
   2  -3478.7439742 -0.331150E-06  0.231E-03   11.06       1.0  T
   3  -3478.7439743 -0.587265E-07  0.127E-04   11.06      13.8  T
   4  -3478.7439743 -0.116902E-07  0.657E-05   11.06      26.7  T
     SCC iter.                  ...        3 min, 55.424 sec
     gradient                   ...        3 min, 47.136 sec
 * total energy  : -3427.4370556 Eh     change    :  -0.1994828E-02 Eh
   gradient norm :     0.0111174 Eh/a0  converged?    E=F G=F D=F
   time step     :     0.9493746 fs     power     :   0.2642852E-07
   step length   :     0.2257979 a0     speed     :   0.5753040E-02

........................................................................
.............................. CYCLE   62 ..............................
........................................................................

 iter      E             dE          RMSdq      gap      omega  full diag
   1  -3478.7887383 -0.347879E+04  0.540E-03   11.08       0.0  T
   2  -3478.7887396 -0.128198E-05  0.312E-03   11.08       1.0  T
   3  -3478.7887397 -0.828491E-07  0.253E-04   11.08       6.9  T
   4  -3478.7887397 -0.158748E-07  0.751E-05   11.08      23.3  T
     SCC iter.                  ...        4 min,  3.639 sec
     gradient                   ...        3 min, 45.330 sec
 * total energy  : -3427.4391383 Eh     change    :  -0.2082638E-02 Eh
   gradient norm :     0.0107020 Eh/a0  converged?    E=F G=F D=F
   time step     :     1.0443120 fs     power     :   0.2414181E-07
   step length   :     0.2525471 a0     speed     :   0.5849614E-02

........................................................................
.............................. CYCLE   63 ..............................
........................................................................

 iter      E             dE          RMSdq      gap      omega  full diag
   1  -3478.8022248 -0.347880E+04  0.505E-03   11.09       0.0  T
   2  -3478.8022258 -0.949062E-06  0.299E-03   11.09       1.0  T
   3  -3478.8022258 -0.666410E-07  0.180E-04   11.09       9.7  T
   4  -3478.8022259 -0.288774E-07  0.709E-05   11.09      24.7  T
     SCC iter.                  ...        4 min,  1.135 sec
     gradient                   ...        3 min, 46.681 sec
 * total energy  : -3427.4412759 Eh     change    :  -0.2137579E-02 Eh
   gradient norm :     0.0091319 Eh/a0  converged?    E=F G=F D=F
   time step     :     1.1487432 fs     power     :   0.2272310E-07
   step length   :     0.2812557 a0     speed     :   0.5922343E-02

........................................................................
.............................. CYCLE   64 ..............................
........................................................................

 iter      E             dE          RMSdq      gap      omega  full diag
   1  -3478.8017461 -0.347880E+04  0.514E-03   11.10       0.0  T
   2  -3478.8017476 -0.152600E-05  0.307E-03   11.10       1.0  T
   3  -3478.8017477 -0.720570E-07  0.212E-04   11.10       8.3  T
   4  -3478.8017477 -0.289069E-07  0.763E-05   11.10      22.9  T
     SCC iter.                  ...        3 min, 58.198 sec
     gradient                   ...        3 min, 46.861 sec
 * total energy  : -3427.4433938 Eh     change    :  -0.2117924E-02 Eh
   gradient norm :     0.0105893 Eh/a0  converged?    E=F G=F D=F
   time step     :     1.2500000 fs     power     :   0.2035619E-07
   step length   :     0.3112279 a0     speed     :   0.6022594E-02

........................................................................
.............................. CYCLE   65 ..............................
........................................................................

 iter      E             dE          RMSdq      gap      omega  full diag
   1  -3478.8428584 -0.347884E+04  0.610E-03   11.12       0.0  T
   2  -3478.8428603 -0.192701E-05  0.353E-03   11.12       1.0  T
   3  -3478.8428604 -0.737246E-07  0.310E-04   11.12       5.7  T
   4  -3478.8428604 -0.302107E-07  0.765E-05   11.12      22.9  T
     SCC iter.                  ...        3 min, 53.101 sec
     gradient                   ...        3 min, 47.930 sec
 * total energy  : -3427.4453605 Eh     change    :  -0.1966704E-02 Eh
   gradient norm :     0.0107039 Eh/a0  converged?    E=F G=F D=F
   time step     :     1.2500000 fs     power     :   0.1841945E-07
   step length   :     0.3111420 a0     speed     :   0.6020931E-02

........................................................................
.............................. CYCLE   66 ..............................
........................................................................

 iter      E             dE          RMSdq      gap      omega  full diag
   1  -3478.8416706 -0.347884E+04  0.450E-03   11.13       0.0  T
   2  -3478.8416723 -0.164938E-05  0.269E-03   11.13       1.0  T
   3  -3478.8416724 -0.783393E-07  0.241E-04   11.13       7.3  T
   4  -3478.8416724 -0.248006E-07  0.872E-05   11.13      20.1  T
     SCC iter.                  ...        4 min,  3.707 sec
     gradient                   ...        3 min, 47.579 sec
 * total energy  : -3427.4472276 Eh     change    :  -0.1867149E-02 Eh
   gradient norm :     0.0089459 Eh/a0  converged?    E=F G=F D=F
   time step     :     1.2500000 fs     power     :   0.1802959E-07
[...]
  3011   6 C     3012   6 C                                       1.5286284
  3012   6 C     3013   6 C                                       1.5270556
  3013   6 C     3014   6 C                                       1.5266863
  3014   6 C     3015   6 C                                       1.5264645
  3015   6 C     3016   6 C                                       1.5238627
  3015   6 C     3017   1 H                                       1.0926607
  3015   6 C     3018   1 H                                       1.0931638
  3014   6 C     3019   1 H                                       1.0933124
  3014   6 C     3020   1 H                                       1.0924144
  3013   6 C     3021   1 H                                       1.0916381
  3013   6 C     3022   1 H                                       1.0934965
  3012   6 C     3023   1 H                                       1.0929674
  3012   6 C     3024   1 H                                       1.0922909
  3011   6 C     3025   1 H                                       1.0931125
  3011   6 C     3026   1 H                                       1.0933590
  3010   6 C     3027   1 H                                       1.0912626
  3010   6 C     3028   1 H                                       1.0916588
  3009   6 C     3029   1 H                                       1.0934317
  3009   6 C     3030   1 H                                       1.0926746
  3008   6 C     3031   1 H                                       1.0933398
  3008   6 C     3032   1 H                                       1.0938528
  3007   6 C     3033   1 H                                       1.0913130
  3007   6 C     3034   1 H                                       1.0904934
  3006   6 C     3035   1 H                                       1.0935725
  3006   6 C     3036   1 H                                       1.0935826
  3005   6 C     3037   1 H                                       1.0928020
  3005   6 C     3038   1 H                                       1.0934871
  3004   6 C     3039   1 H                                       1.0938942
  3004   6 C     3040   1 H                                       1.0917923
  3003   6 C     3041   1 H                                       1.0934751
  3003   6 C     3042   1 H                                       1.0930445
  3002   6 C     3043   1 H                                       1.0929990
  3002   6 C     3044   1 H                                       1.0936708
  3001   6 C     3045   1 H                                       1.0938154
  3001   6 C     3046   1 H                                       1.0926829
  3000   6 C     3047   1 H                                       1.0932728
  3000   6 C     3048   1 H                                       1.0931716
  2999   6 C     3049   1 H                                       1.0933527
  2999   6 C     3050   1 H                                       1.0928382
  2998   6 C     3051   1 H                                       1.0938225
  2998   6 C     3052   1 H                                       1.0928914
  2997   6 C     3053   1 H                                       1.0918514
  2997   6 C     3054   1 H                                       1.0924816
  2996   6 C     3055   1 H                                       1.0937982
  2996   6 C     3056   1 H                                       1.0918941
  2995   6 C     3057   1 H                                       1.0921871
  2995   6 C     3058   1 H                                       1.0920844
  2994   6 C     3059   1 H                                       1.0933966
  2994   6 C     3060   1 H                                       1.0935038
  2993   6 C     3061   1 H                                       1.0925420
  2993   6 C     3062   1 H                                       1.0936949
  2992   6 C     3063   1 H                                       1.0924039
  2992   6 C     3064   1 H                                       1.0919286
  2991   6 C     3065   1 H                                       1.0923404
  2991   6 C     3066   1 H                                       1.0930094
  2990   6 C     3067   1 H                                       1.0934508
  2990   6 C     3068   1 H                                       1.0926245
  2989   6 C     3069   1 H                                       1.0914330
  2989   6 C     3070   1 H                                       1.0920773
  2988   6 C     3071   1 H                                       1.0938297
  2988   6 C     3072   1 H                                       1.0918769
  2987   6 C     3073   1 H                                       1.0916745
  2987   6 C     3074   1 H                                       1.0937955
  2986   6 C     3075   1 H                                       1.0898118
  2986   6 C     3076   1 H                                       1.0927126
  2985   6 C     3077   1 H                                       1.0922805
  2985   6 C     3078   1 H                                       1.0926574
  2984   6 C     3079   1 H                                       1.0927794
  2984   6 C     3080   1 H                                       1.0921605
  2983   6 C     3081   1 H                                       1.0922756
  2983   6 C     3082   1 H                                       1.0911310
  2982   6 C     3083   1 H                                       1.0930300
  2982   6 C     3084   1 H                                       1.0919935
  2981   6 C     3085   1 H                                       1.0930365
  2981   6 C     3086   1 H                                       1.0937068
  2980   6 C     3087   1 H                                       1.0936092
  2980   6 C     3088   1 H                                       1.0922713
  2979   6 C     3089   1 H                                       1.0896390
  2979   6 C     3090   1 H                                       1.0930979
  2978   6 C     3091   1 H                                       1.0932776
  2978   6 C     3092   1 H                                       1.0906530
  2977   6 C     3093   1 H                                       1.0936728
  2977   6 C     3094   1 H                                       1.0938631
  2976   6 C     3095   1 H                                       1.0914049
  2976   6 C     3096   1 H                                       1.0941298
  2975   6 C     3097   1 H                                       1.0930599
  2975   6 C     3098   1 H                                       1.0918342
  2974   6 C     3099   1 H                                       1.0926558
  2974   6 C     3100   1 H                                       1.0933076
  2973   6 C     3101   1 H                                       1.0932532
  2973   6 C     3102   1 H                                       1.0928901
  2972   6 C     3103   1 H                                       1.0917838
  2972   6 C     3104   1 H                                       1.0926358
  2971   6 C     3105   1 H                                       1.0933434
  2971   6 C     3106   1 H                                       1.0919550
  2970   6 C     3107   1 H                                       1.0917165
  2970   6 C     3108   1 H                                       1.0924168
  2969   6 C     3109   1 H                                       1.0937068
  2969   6 C     3110   1 H                                       1.0921299
  2968   6 C     3111   1 H                                       1.0927284
  2968   6 C     3112   1 H                                       1.0938911
  2967   6 C     3113   1 H                                       1.0925703
  2967   6 C     3114   1 H                                       1.0917187
  2966   6 C     3115   1 H                                       1.0926565
  2966   6 C     3116   1 H                                       1.0934082
  2965   6 C     3117   1 H                                       1.0928178
  2965   6 C     3118   1 H                                       1.0927802
  2964   6 C     3119   1 H                                       1.0925986
  2964   6 C     3120   1 H                                       1.0931047
  2963   6 C     3121   1 H                                       1.0928127
  2963   6 C     3122   1 H                                       1.0923308
  2962   6 C     3123   1 H                                       1.0928659
  2962   6 C     3124   1 H                                       1.0928088
  2961   6 C     3125   1 H                                       1.0916341
  2961   6 C     3126   1 H                                       1.0929118
  2960   6 C     3127   1 H                                       1.0937931
  2960   6 C     3128   1 H                                       1.0929289
  2959   6 C     3129   1 H                                       1.0917079
  2959   6 C     3130   1 H                                       1.0939644
  2958   6 C     3131   1 H                                       1.0930428
  2958   6 C     3132   1 H                                       1.0915004
  2957   6 C     3133   1 H                                       1.0922785
  2957   6 C     3134   1 H                                       1.0938749
  2956   6 C     3135   1 H                                       1.0929980
  2956   6 C     3136   1 H                                       1.0926240
  2955   6 C     3137   1 H                                       1.0926093
  2955   6 C     3138   1 H                                       1.0936955
  2954   6 C     3139   1 H                                       1.0931784
  2954   6 C     3140   1 H                                       1.0928787
  2953   6 C     3141   1 H                                       1.0925611
  2953   6 C     3142   1 H                                       1.0934095
  2952   6 C     3143   1 H                                       1.0935346
  2952   6 C     3144   1 H                                       1.0929228
  2951   6 C     3145   1 H                                       1.0926796
  2951   6 C     3146   1 H                                       1.0931954
  2950   6 C     3147   1 H                                       1.0939756
  2950   6 C     3148   1 H                                       1.0925398
  2949   6 C     3149   1 H                                       1.0911075
  2949   6 C     3150   1 H                                       1.0929348
  2948   6 C     3151   1 H                                       1.0927174
  2948   6 C     3152   1 H                                       1.0918354
  2947   6 C     3153   1 H                                       1.0933509
  2947   6 C     3154   1 H                                       1.0938747
  2946   6 C     3155   1 H                                       1.0923146
  2946   6 C     3156   1 H                                       1.0922197
  2945   6 C     3157   1 H                                       1.0930138
  2945   6 C     3158   1 H                                       1.0928227
  2944   6 C     3159   1 H                                       1.0915812
  2944   6 C     3160   1 H                                       1.0936273
  2943   6 C     3161   1 H                                       1.0936439
  2943   6 C     3162   1 H                                       1.0919925
  2942   6 C     3163   1 H                                       1.0932558
  2942   6 C     3164   1 H                                       1.0927973
  2941   6 C     3165   1 H                                       1.0930570
  2941   6 C     3166   1 H                                       1.0911900
  2940   6 C     3167   1 H                                       1.0925239
  2940   6 C     3168   1 H                                       1.0926471
  2939   6 C     3169   1 H                                       1.0931544
  2939   6 C     3170   1 H                                       1.0932357
  2938   6 C     3171   1 H                                       1.0926315
  2938   6 C     3172   1 H                                       1.0926658
  2937   6 C     3173   1 H                                       1.0927522
  2937   6 C     3174   1 H                                       1.0937780
  2936   6 C     3175   1 H                                       1.0928229
  2936   6 C     3176   1 H                                       1.0928137
  2935   6 C     3177   1 H                                       1.0924721
  2935   6 C     3178   1 H                                       1.0932748
  2934   6 C     3179   1 H                                       1.0936095
  2934   6 C     3180   1 H                                       1.0925369
  2933   6 C     3181   1 H                                       1.0927159
  2933   6 C     3182   1 H                                       1.0925246
  2932   6 C     3183   1 H                                       1.0919188
  2932   6 C     3184   1 H                                       1.0919958
  2931   6 C     3185   1 H                                       1.0933525
  2931   6 C     3186   1 H                                       1.0927572
  2930   6 C     3187   1 H                                       1.0916400
  2930   6 C     3188   1 H                                       1.0929273
  2929   6 C     3189   1 H                                       1.0934322
  2929   6 C     3190   1 H                                       1.0922895
  2928   6 C     3191   1 H                                       1.0924907
  2928   6 C     3192   1 H                                       1.0933878
  2927   6 C     3193   1 H                                       1.0930113
  2927   6 C     3194   1 H                                       1.0922633
  2926   6 C     3195   1 H                                       1.0924770
  2926   6 C     3196   1 H                                       1.0935833
  2925   6 C     3197   1 H                                       1.0921459
  2925   6 C     3198   1 H                                       1.0923170
  2924   6 C     3199   1 H                                       1.0922073
  2924   6 C     3200   1 H                                       1.0937190
  2923   6 C     3201   1 H                                       1.0923648
  2923   6 C     3202   1 H                                       1.0930722
  2922   6 C     3203   1 H                                       1.0919631
  2922   6 C     3204   1 H                                       1.0935625
  2921   6 C     3205   1 H                                       1.0932769
  2921   6 C     3206   1 H                                       1.0933442
  2920   6 C     3207   1 H                                       1.0918303
  2920   6 C     3208   1 H                                       1.0933707
  2919   6 C     3209   1 H                                       1.0932668
  2919   6 C     3210   1 H                                       1.0924644
  2918   6 C     3211   1 H                                       1.0919038
  2918   6 C     3212   1 H                                       1.0932968
  2917   6 C     3213   1 H                                       1.0920944
  2917   6 C     3214   1 H                                       1.0925893
  2916   6 C     3215   1 H                                       1.0931661
  2916   6 C     3216   1 H                                       1.0928418
  2915   6 C     3217   1 H                                       1.0921631
  2915   6 C     3218   1 H                                       1.0932991
  2914   6 C     3219   1 H                                       1.0930406
  2914   6 C     3220   1 H                                       1.0922229
  2913   6 C     3221   1 H                                       1.0927379
  2913   6 C     3222   1 H                                       1.0932470
  2912   6 C     3223   1 H                                       1.0930895
  2912   6 C     3224   1 H                                       1.0929772
  2911   6 C     3225   1 H                                       1.0924347
  2911   6 C     3226   1 H                                       1.0926923
  2910   6 C     3227   1 H                                       1.0933823
  2910   6 C     3228   1 H                                       1.0930238
  2909   6 C     3229   1 H                                       1.0929051
  2909   6 C     3230   1 H                                       1.0933892
  2908   6 C     3231   1 H                                       1.0912765
  2908   6 C     3232   1 H                                       1.0933502
  2907   6 C     3233   1 H                                       1.0927289
  2907   6 C     3234   1 H                                       1.0928808
  2906   6 C     3235   1 H                                       1.0927283
  2906   6 C     3236   1 H                                       1.0927372
  2905   6 C     3237   1 H                                       1.0930887
  2905   6 C     3238   1 H                                       1.0900056
  2904   6 C     3239   1 H                                       1.0931928
  2904   6 C     3240   1 H                                       1.0933436
  2903   6 C     3241   1 H                                       1.0933750
  2903   6 C     3242   1 H                                       1.0934056
  2902   6 C     3243   1 H                                       1.0908641
  2902   6 C     3244   1 H                                       1.0921736
  2901   6 C     3245   1 H                                       1.0930838
  2901   6 C     3246   1 H                                       1.0935743
  2900   6 C     3247   1 H                                       1.0930430
  2900   6 C     3248   1 H                                       1.0913131
  2899   6 C     3249   1 H                                       1.0928879
  2899   6 C     3250   1 H                                       1.0936212
  2898   6 C     3251   1 H                                       1.0932817
  2898   6 C     3252   1 H                                       1.0929877
  2897   6 C     3253   1 H                                       1.0883475
  2897   6 C     3254   1 H                                       1.0871440
  2897   6 C     3255   1 H                                       1.0870108
  3016   6 C     3256   1 H                                       1.0879686
  3016   6 C     3257   1 H                                       1.0878592
  3016   6 C     3258   1 H                                       1.0877634

 * 2 distinct bonds (by element types)

   Z      Z             #   av. dist./Å        max./Å        min./Å
   1 H    6 C        2178     1.0925414     1.0947101     1.0860654
   6 C    6 C        1071     1.5272944     1.5353302     1.5217789


optimized geometry written to: xtbopt.xyz


           -------------------------------------------------
          | TOTAL ENERGY            -3427.536462414676 Eh   |
          | GRADIENT NORM               0.000701891909 Eh/α |
          | HOMO-LUMO GAP              11.406080990532 eV   |
           -------------------------------------------------

------------------------------------------------------------------------
 * finished run on 2024/06/21 at 14:15:05.681     
------------------------------------------------------------------------
 total:
 * wall-time:     3 d,  9 h, 36 min, 36.622 sec
 *  cpu-time:    17 d, 23 h, 23 min, 24.524 sec
 * ratio c/w:     5.286 speedup
 SCF:
 * wall-time:     0 d,  0 h,  7 min,  6.168 sec
 *  cpu-time:     0 d,  0 h, 37 min,  0.312 sec
 * ratio c/w:     5.210 speedup
 ANC optimizer:
 * wall-time:     3 d,  9 h, 28 min, 49.086 sec
 *  cpu-time:    17 d, 22 h, 45 min, 27.172 sec
 * ratio c/w:     5.287 speedup

