3795
 energy: -5103.031190756072 gnorm: 0.000994690912 xtb: 6.6.1 (8d0f1dd)
C          112.93701711298657      116.47323289895904      135.09856386144409
C          114.28941278511290      116.63978641613194      134.44401045614316
C          111.89445927593395      116.02304148113940      134.06296417320948
C          111.45299624962564      117.17955236969240      133.17400119781556
H          112.31917062702387      115.22245632898365      133.45319880914749
H          111.02925799943689      115.61595175590931      134.58928149336418
C          110.52420414022463      116.73906641855842      132.04015260243096
H          110.93990166872675      117.92647963718370      133.78415734850239
H          112.32769717375416      117.65883364821475      132.73222824666786
C          110.27342533565574      117.93060867855915      131.14347890899435
H          111.01935022143276      115.96484356305852      131.45020073713621
H          109.58447057728930      116.34366894662037      132.42290151341481
N          108.99437362550820      118.25576679762651      130.94848650051520
O          114.41498724472832      117.75997117143636      133.76417017773741
O          115.16470596068325      115.80794166253706      134.52534921645912
H          115.29049220855094      117.81477086551850      133.28862700241544
H          112.62884639892687      117.42050758833365      135.54090145856796
H          113.03493655231875      115.71710528306515      135.87762931304195
C          108.60771423688946      119.40602507962984      130.15803908986805
H          108.27052390644769      117.57511800073966      131.18576338514109
C          107.24180219257079      119.92964313225079      130.58250629025872
H          109.36722875372246      120.17823561169772      130.30898172485237
H          108.59254801326117      119.14020627111175      129.09504803719580
C          106.86471777343557      121.24438191268847      129.89515829598238
H          106.48399258097412      119.17352143303731      130.36809038092315
H          107.25109699139469      120.08881550949297      131.66256504436004
C          106.69650615050502      121.13815086963186      128.37275817678852
H          105.92265522013270      121.58065455462912      130.33090004102101
H          107.61686899879054      122.00156761508116      130.12563409801851
C          107.94621335280983      121.53366463112584      127.58505579387911
H          106.41183371392528      120.11691857200333      128.11342373765800
H          105.88073082613965      121.79022331768205      128.05527252678959
C          107.73899456842089      121.33608778030400      126.08901682509580
H          108.18167615920628      122.58186764715248      127.78099804500320
H          108.80049757934943      120.93457224960302      127.90113066471044
N          108.96218883861197      121.59376632815614      125.35527610525418
H          107.40029041864339      120.31281599077072      125.89091138724245
H          106.96290049582979      122.01182030653153      125.71478882957972
C          108.98397458390073      121.68472297245525      124.01985074285167
H          109.84526897333036      121.54346148152420      125.85338425977329
O          111.20847559431151      118.57197041558472      130.66326270650319
C          110.34331828261308      122.01478681790614      123.44253924862637
C          110.59899408870248      123.51913491770681      123.58864529789021
H          111.11548061444238      121.46067586376823      123.97732328128694
H          110.34523889937540      121.74209189244998      122.38716073242307
C          111.84973539953053      123.95806073218340      122.83338802202820
H          109.74084935381789      124.07102499357073      123.20185693937275
H          110.70482729102693      123.75619814947018      124.64954333715741
C          112.21748790450042      125.40356329233003      123.15828814947727
H          112.68674834490363      123.30771871304164      123.09754969339211
H          111.67486922647387      123.87794893575649      121.75966672624223
C          113.38335772275170      125.89287874375538      122.32541874439521
H          111.36476430144167      126.05341755894663      122.94660374984123
H          112.46497898249427      125.50486413139991      124.21746751986481
N          113.91511938291185      127.05606744388218      122.73297998651294
C          115.04065372262828      127.67856718554297      122.06202005014607
H          113.53719108977954      127.52500791732948      123.54017971124024
O          107.97963990608291      121.57322584448579      123.32743355006893
C          115.13788729410926      129.16275178405724      122.38615658438724
H          115.96837745855450      127.18037439502002      122.36866748023338
H          114.91724645628599      127.52270146376053      120.98750978557088
C          116.28825611043881      129.81845750449477      121.61843831726523
H          114.19799684925678      129.65826339459019      122.13462744036416
H          115.30490631397250      129.27771837253999      123.45970212773548
C          115.91906572131253      130.13448053412213      120.16982568023981
H          116.57402997455196      130.74485918959314      122.12056314326979
H          117.15395012113754      129.15369789659192      121.64063738635159
C          117.14503109230174      130.53567569873206      119.35163880418020
H          115.46114944700200      129.26258688087282      119.70488613873246
H          115.19310267187936      130.94867681327383      120.16012468824587
C          116.78261904253951      131.15116998932331      118.00527225759858
N          115.97867311293709      130.25025453383157      117.20550558691851
H          116.22380170703016      132.08356846935735      118.14007593343925
H          117.70604561268722      131.38855501522522      117.46391880907539
C          115.21446754711407      130.65474312058345      116.19168983731470
H          116.03098041046309      129.26289786801496      117.44384622883071
O          113.81658006921543      125.29421028786068      121.35027013557374
C          114.53578812505860      129.53124277957158      115.43158567515015
C          113.08195994971021      129.80135737000123      115.04165095691094
H          115.11483898466878      129.39556539036639      114.51325808227841
H          114.60229593258046      128.61255827955694      116.01458114451638
C          112.55966263546135      128.66139730153566      114.17110033570647
H          112.47416334274361      129.88245195870584      115.94423747601829
H          113.00517712130855      130.74508663151937      114.49925478203559
C          111.11744813770854      128.86412242549807      113.69762692195557
H          113.19834354754545      128.56153284311901      113.29111617997263
H          112.62082390409131      127.72906725677510      114.73877038525963
C          110.74540220144375      127.75571520248597      112.74136794081262
H          110.42673435256596      128.86589673009161      114.53983302223894
H          111.04086445268986      129.82784604285928      113.18461649679777
N          109.67188095089007      127.03874650462508      113.07257801230499
C          109.18884095394257      125.94154753350875      112.25378146526764
H          109.05971440555925      127.38948729361468      113.80664748750944
H          117.73645715392651      131.26623495333399      119.90772505058140
H          117.76782755045760      129.65538783099475      119.18438798858405
O          115.10351831262541      131.83867050569538      115.86520098274642
O          111.41580201706138      127.49709204557443      111.73633252311687
C          107.72607057376555      125.65266246474289      112.55991682665839
H          109.33034961845004      126.20666675178896      111.20086814536747
H          109.79489420306490      125.04873122561114      112.45130701440277
C          107.13738628381931      124.50178747481840      111.74563760080824
H          107.64371103478709      125.40282111900268      113.62001783773482
H          107.14109042673661      126.55602727280130      112.39254745205113
C          107.13008943602262      124.71551571449979      110.22990683204029
H          107.68268721091661      123.58225817794718      111.96392265708251
H          106.11193383966470      124.34454068099426      112.07949406081629
C          106.45479953448962      126.00679410344701      109.76762110730724
H          108.15412479876217      124.70210981514809      109.84971325658715
H          106.60360218439277      123.87068783178799      109.77942655905984
C          105.00991758884362      126.13630263196853      110.25420907188459
H          107.02248852990238      126.87539558197324      110.10473125768003
H          106.44847790534516      126.02839060702084      108.67483108160098
N          104.34321177133960      127.23212722778128      109.59392139116376
H          104.46011059975922      125.21471398023463      110.03709060026569
H          104.97317653956398      126.32133911004055      111.32846062771469
C          103.96736269670170      128.36439032053977      110.18426617863651
H          104.28713449324732      127.16710757776805      108.57877658245373
C          103.28859578839923      129.35095730278729      109.25303432706447
C          101.80581600165326      129.53553869346501      109.60898103212344
H          103.79530928152245      130.31497164819979      109.33683178475536
H          103.38394537824327      128.99640981271648      108.22743783506996
C          101.07749848788802      128.20600545357343      109.84548714285879
H          101.72329099536695      130.15364608525462      110.50494079105933
H          101.33120838150522      130.07912146588558      108.79068429663555
C          100.99254972257297      127.86019224272935      111.33570976949578
H          100.06483601112301      128.25772652219669      109.44113237807586
H          101.59454453169892      127.39824434642159      109.32567636004461
C          100.82597812385448      126.38145005124380      111.57955770407357
H          101.92771353816130      128.14351991308234      111.82757699311698
H          100.18449589009813      128.41950208277419      111.80592320163983
N          100.27945199851676      126.01057058870718      112.75130209773860
C           99.71521699319358      126.86199365428674      113.77685284270876
H          100.20625019407262      125.01414935994562      112.90937143424463
O          104.11848563902296      128.58951049618454      111.38598224736037
C           99.27062434341138      126.02891562928836      114.97603777158633
H          100.46011579602320      127.60179381809846      114.08419778169045
H           98.84709817425100      127.40105196706863      113.37385730041530
C           98.52000307904734      126.87195450200983      116.00967899758624
H           98.60031943849393      125.24194630437478      114.61988160848810
H          100.13715720828073      125.55100819816786      115.43405838267120
C           99.40149598558853      127.88611002645906      116.75699873231949
H           97.70986256493296      127.39663813660773      115.49855053847099
H           98.05593874505425      126.19895456166317      116.73249777715750
C           99.61592164244620      127.53513352691718      118.22988774009687
H          100.37887094212768      127.95505066312650      116.27958605626660
H           98.94434551514402      128.87513702353195      116.70646778258360
C          100.47472061028962      126.28566005834908      118.41953070379505
H          100.11516383662645      128.37165515005432      118.72386191506958
H           98.65281410483512      127.38233122171361      118.71980040564513
N          101.80058366345010      126.49658092785215      117.88885502774467
H          100.52722089365291      126.04587049617014      119.48923340305272
H          100.04459891471129      125.42871787228711      117.89568545769367
O          101.20498437983490      125.53226032418446      110.78178448588427
C          102.39840544037828      125.65104765714412      117.04578444642722
H          102.31240539812896      127.31251301117496      118.22972672171143
C          103.71255177782587      126.14208914128729      116.48014583654552
C          103.45077975928551      126.67638114725587      115.06728292792576
H          104.11485026397590      126.93519893909016      117.10810615932738
H          104.42006965458047      125.31167834833882      116.43270518255113
C          104.72732285529825      127.05907180471642      114.32257020249095
H          102.92932818920920      125.90442917600757      114.49591654636409
H          102.79588519497402      127.54918127078344      115.12925912357775
C          105.41623263970411      128.29173084453785      114.91602058645800
H          105.41851524054552      126.21410888531810      114.34120917671662
H          104.46314841672418      127.27183014186178      113.28546827576241
C          106.66945888904107      128.64327358736872      114.13985538047359
H          104.73020194153142      129.13998036576027      114.89114123182605
H          105.70703238709963      128.10040240230214      115.94892840479410
N          106.45801108746613      129.10932394880049      112.90820720073864
O          101.89442393035833      124.58252662656858      116.70235829452457
C          107.51987809540553      129.47136366164276      111.99421287624112
H          105.52272278320379      129.07195122799192      112.50924844044647
C          107.06160032114472      130.56500423478647      111.03152887222321
H          108.37851631717282      129.79460614258304      112.58638748687417
H          107.82166940133263      128.58983340569020      111.41309970755550
C          107.86570542249116      130.56054331310054      109.73287305843698
H          106.01065745323801      130.38998146041652      110.79231242441232
H          107.13979820560819      131.54037146272279      111.51313266291045
C          109.32958491833786      130.94838197838212      109.93383736470810
H          107.79935614152978      129.56696734073699      109.28240109287130
H          107.40871357156038      131.26316012138528      109.03211660893729
C          110.14287851733783      130.79377124086173      108.64784792119734
H          109.37663924879952      131.98433317399557      110.27069001314874
H          109.77739509204073      130.34443572192887      110.72190195376311
C          110.57242883320822      129.34631951786264      108.38023073119656
H          109.55571372672111      131.15142521169773      107.79977000720211
H          111.04661991739765      131.40236138142757      108.70986261885001
N          111.63533415171750      128.93588017683686      109.26818757496193
H          109.72528463028596      128.66479623220670      108.49022150061782
H          110.95900686326030      129.26868392538299      107.36044947793677
C          112.92404684651564      128.96561374688679      108.91329715601464
H          111.41656467034109      128.71536299251267      110.23234074957445
O          107.79400008076392      128.50557289030374      114.61988275219022
C          113.90315755264523      128.80652134302798      110.05037308764500
C          113.97584668691010      130.17020568281421      110.75205957432883
H          113.57678183715522      128.03252229331156      110.74289465002472
H          114.87988167879431      128.54663412175918      109.63908658260530
C          115.29839689114102      130.39245397585836      111.47664723168847
H          113.86207305618458      130.95927846485046      110.00299205931758
H          113.14410694938192      130.26581255382385      111.45225803755115
C          115.26115646201292      131.71009866553462      112.25241901514045
H          115.50908034281731      129.56101084614690      112.15209822881178
H          116.11346134474144      130.43762345824405      110.75067581216402
C          116.63890053012658      132.32766993886801      112.37255482719435
H          114.65293890567983      132.42444608322347      111.69154889239971
H          114.81483354358495      131.57856142986677      113.23484957407217
N          116.95531199127063      132.78104791799441      113.59507460082476
C          118.25309792339083      133.34278458866868      113.89711868394117
H          116.32810004743432      132.61486561495519      114.37342848261876
O          113.29934965852705      129.16525281331332      107.76400906657148
C          118.90442755021725      132.58072409696945      115.04655193626388
H          118.85472659107155      133.26305190409954      112.98894383388455
H          118.14651369817327      134.40238638898907      114.15825384571492
C          120.32695082336140      133.05368845689952      115.33486535114687
H          118.28863893199943      132.72225206067043      115.93795413641412
H          118.90629040386573      131.51961390564909      114.79265181374431
C          120.85621758694214      132.51525791903288      116.66563599281476
H          120.98653376705235      132.74329366651605      114.52313868727492
H          120.33516760337402      134.14567144439923      115.37252194832782
C          120.98997977265485      130.99505150027122      116.67914176564730
H          121.83351247133425      132.95856153744205      116.86979782489679
H          120.18428896889408      132.82625430412457      117.47038940993264
C          121.46803853559288      130.47878120154539      118.02964322908716
H          120.02468733686320      130.53526166405049      116.46260177356899
H          121.69113099172901      130.68917283202242      115.90277388537218
N          121.37056469188896      129.03881776270859      118.10604200526519
H          122.50833885162196      130.75989546633593      118.21782171959548
H          120.85251481292579      130.92201022831594      118.82650053990996
C          122.19599032347681      128.29137414320144      118.84833888710179
H          120.67687487671992      128.57514821608260      117.52265108012344
O          117.37904506664557      132.44465157728331      111.40948761835722
C          121.77974675693459      126.83861936186666      118.94594303025112
C          120.47840764409486      126.70712061307078      119.74586911744063
H          121.61603516211535      126.44453604179293      117.94236307715941
H          122.58269421674581      126.26812022868427      119.41250390881032
C          120.53295354148257      127.30763934661148      121.15118381724646
H          119.67721649256710      127.19531475204838      119.18808504748709
H          120.22787874109224      125.64866553761109      119.82895774696370
C          121.64675525775003      126.72095430861219      122.02314105812347
H          120.65930715786266      128.38997002471135      121.08807185588935
H          119.57957226946766      127.10863658682770      121.64837701785673
C          121.23484095541662      126.65744406298052      123.48870411321016
H          121.83055121205987      125.68817572245588      121.71439330029224
H          122.56888077590618      127.28511332313064      121.90596921517570
N          122.18166670814166      127.01900640267384      124.36435458215007
O          123.17755124773096      128.74371355436651      119.42557391523701
C          122.01618464290286      126.90691373243043      125.79665726469372
H          123.09485847341803      127.34614387287662      124.06122356378364
C          123.26493820643179      126.28679586393494      126.42284715514488
H          121.84236669039768      127.89961338220920      126.22940823150800
H          121.12765539964599      126.29496699156523      125.96598510499152
C          123.13329518434369      126.05478102266771      127.92861342423737
H          123.47478561314401      125.33409627698084      125.93256341299299
H          124.10726871317513      126.95111928352060      126.22259189996774
C          122.15242857648484      124.92854157380044      128.24885400563360
H          124.11487670776023      125.78911914066073      128.32638462096315
H          122.81591141064537      126.97801338480176      128.41805396383401
C          122.15085641643340      124.53193855380866      129.72430832259738
H          121.14299773317323      125.23214442772975      127.96494632906352
H          122.43349195628660      124.05952940957607      127.65452846638094
C          121.05563743081254      123.51583214762229      130.03138752031936
H          123.12166873162101      124.11270107873739      129.99373693921177
H          121.98157261364047      125.41487998516908      130.34372409407862
N          121.27647419906128      122.26026495188937      129.34345976252649
H          121.00933013253062      123.30375560402712      131.10426298671317
H          120.08148596266348      123.92802982276292      129.73419983566140
C          120.69991916669991      121.12022721359115      129.72919797481774
H          121.86128705603009      122.26049738388244      128.51539302614549
O          120.12691697136617      126.26098016690629      123.82589010644591
C          121.04208406207901      119.93740176911422      128.83778801364434
C          120.38591874019818      118.63461156397189      129.28402791841592
H          120.71887586570708      120.18964363662087      127.82460334583068
H          122.12876914118851      119.83364055102605      128.81340622108047
C          120.62910192222014      117.51261109773216      128.27819343088484
H          120.77050894769206      118.34709395746310      130.26377549018906
H          119.31053399254334      118.79226281717429      129.38298960801771
C          119.87709120035034      116.23427751940220      128.66286614768774
H          120.28200254195784      117.84571587279346      127.29742343674715
H          121.69904150795313      117.30204415292935      128.20474683325071
C          119.87383002460710      115.25473313729819      127.50360838229537
H          120.34175433047115      115.76962097618194      129.53177068068564
H          118.84609636536931      116.49563399259029      128.90149280327913
N          119.12803504086187      115.67423113366381      126.47416012395887
C          119.06456075765684      115.01205737025988      125.19076812289730
H          118.53455782277086      116.48122776475739      126.61825094560126
O          119.95757362471211      121.04717923979332      130.70356985777090
C          117.83157307827604      115.44697810343324      124.40108192050080
H          119.97811243152893      115.23189226802519      124.62363946137053
H          119.04340773150561      113.92898859341850      125.35696794145839
C          117.77961985725973      116.94169495285941      124.06554582406775
H          117.79246347205638      114.86681741865657      123.47677705332332
H          116.94677392342608      115.19919542988671      124.99061994719884
C          118.88953631879885      117.39364995605278      123.11902123163738
H          116.81055526798130      117.15241478160991      123.60807597375133
H          117.83304377741587      117.52253052117111      124.98610549365780
C          118.80983915530324      118.88539718031303      122.79090792163713
H          119.86275900498269      117.19192394073249      123.57223407329577
H          118.82813275547842      116.82222549149202      122.18998486318213
C          119.90551358878147      119.25962900909359      121.79640366222471
H          117.83565893688481      119.12240080105713      122.36132255317607
H          118.92695675775811      119.47347918183998      123.70315397978152
N          119.90798892048360      120.65986570338896      121.43444136839392
H          120.88703109639435      119.04252076858472      122.22792449438428
H          119.78614593537965      118.66298037929531      120.88583059831271
C          121.00026812938545      121.41264206142240      121.50782476025418
H          119.03427909079218      121.07501829455130      121.11900651699077
O          120.50769704208818      114.20767710704743      127.49517489045645
C          120.89837923933402      122.79397524451731      120.90648447802114
C          120.84527145285115      122.73446557499254      119.37493451749422
H          120.00033042876559      123.28257126783093      121.28185130954913
H          121.76845885600075      123.37211099024780      121.22146951317029
C          122.04302756891141      121.99287871663553      118.79151287713547
H          119.91933258749690      122.24937550244415      119.06592233022509
H          120.84356291844821      123.75169430612291      118.98072718004902
C          122.01422393587627      121.96125514773300      117.26313124282804
H          122.96205560760319      122.48627907237150      119.11216705439979
H          122.05713802683491      120.96827140661006      119.16756411000128
C          123.26401284610851      121.26782612893284      116.76371315636169
H          121.14607428825363      121.40637449791240      116.90831657275287
H          121.97487045737002      122.97382937968243      116.86561053150326
N          124.34773731394276      122.03798622757876      116.73043561750512
O          122.04856814432137      121.00592632156591      122.02719737241758
C          125.62573997625471      121.52812835155017      116.27900951620811
H          124.27593670360547      123.01741370821333      117.00388103604477
C          126.65332670464149      122.63697883820231      116.11582861492052
H          125.99307088785616      120.78542026457622      116.99798352270106
H          125.46827959835913      121.01370126287763      115.32442126518049
C          127.10971544018196      123.20038485372923      117.46151538111273
H          127.50855915534548      122.22567961714634      115.57659804444506
H          126.21598846121746      123.43372686446004      115.51050417423950
C          128.34663111038566      124.09297240811036      117.33284308711316
H          126.29119098802479      123.76406598129066      117.90962231396762
H          127.33558082269410      122.36986094339795      118.13252563644676
C          129.11917231645205      124.23158093194272      118.64546842998250
H          129.01650966970186      123.66632109758608      116.58225051778061
H          128.05178894000767      125.08322577800796      116.98048539547548
C          128.27295411954361      124.84305371718649      119.76673667053632
H          129.46316016985310      123.24512878626953      118.96832530803167
H          130.00391475662360      124.85460262226607      118.47924055612580
N          128.94445498059645      124.96214864967662      121.05251578080923
H          127.94658008170077      125.84578872030150      119.47463042018987
H          127.39438285516383      124.21790267500256      119.92413641962671
H          129.25376839667268      124.04376626387095      121.35684284129761
H          129.77402448165643      125.54110730271205      120.96164349136336
O          123.28441801552687      120.07471639296085      116.46873408830845
C          103.65655077004500      117.39461094244567      116.42148906016462
C          103.63350393282570      117.99278129475404      117.80881370182796
C          102.39413421626149      117.65582398898260      115.60042705972269
C          101.11020809285147      117.22461433120225      116.31165228593734
H          102.32436024393641      118.72036732355377      115.37085508254881
H          102.48229917862878      117.10950278778161      114.65836564811093
C          101.13850491133832      115.78306471074802      116.83031287651924
H          100.93374429723501      117.88709739535854      117.16054629531423
H          100.27492236999551      117.33868996791642      115.61853991452189
C          101.52046969510782      114.79359718568296      115.75110653712494
H          101.83400900391641      115.68629700021690      117.66227628146456
H          100.14646709711253      115.52203472299163      117.20105276089501
N          100.54061513172587      114.52163545505631      114.88539894117886
O          102.98256887007655      119.12789119922050      117.87379419068566
O          104.16881222034405      117.46574485820310      118.76230052371797
H          103.05746153480882      119.59858323625268      118.74829331047680
H          103.83672327166813      116.32320707463542      116.50403014615630
H          104.51724201077593      117.85323761691158      115.92658989265743
C          100.72292051562067      113.57879748579499      113.80345721623520
H           99.66746809089626      115.03503824554545      114.93407583795826
C           99.39644230643853      113.12544324669676      113.21095578370598
H          101.31796846295319      114.03849370440219      113.00478903949960
H          101.28540245943491      112.72647955292443      114.19993881323255
C           98.49187508201442      112.39743490847204      114.20384191529926
H           98.88720818584518      114.00251971778857      112.81550864475238
H           99.62253212253393      112.46052689976159      112.37451287732920
C           97.23966942114734      111.80673619487294      113.54155287544307
H           99.06687345298225      111.58558505567426      114.65578395648225
H           98.19531565782422      113.07915484919343      115.00205502519049
C           96.00643277064893      112.71755358445587      113.55782153315492
H           97.48195160267628      111.51620552999917      112.51641282151958
H           96.96009249026987      110.89004211028882      114.06599298036502
C           96.19291925583231      114.09279101066734      112.92738360996557
H           95.18805663454263      112.19993788507604      113.05059629617431
H           95.70417510542219      112.87702858713889      114.59462156325937
N           96.52284278384344      114.00581081606819      111.51832458447156
H           95.26359699478493      114.66620372128628      113.00915719573989
H           96.96388362002138      114.64913229998679      113.46998390694870