3258
 energy: -3427.625322762780 gnorm: 0.000727457213 xtb: 6.6.1 (8d0f1dd)
C          111.57613433607393       94.38738593371531      101.79016250858663
C          112.61020599233780       94.15036747386196      102.88355767555116
C          114.03722909571457       94.34846599458473      102.37830566842852
C          115.06713665127468       94.16699501079840      103.49016801288103
C          116.49542918932029       94.42232889152962      103.01668270941740
C          117.48464355858664       94.45199146530226      104.17941900108841
C          118.91936159250625       94.67160671594809      103.70790855865286
C          119.89469009978490       94.84441782181625      104.86868072058678
C          121.33597769655462       95.00574237552705      104.39157527110922
C          122.29276213074904       95.27591383526587      105.54901217403284
C          123.74790537611555       95.38916983399174      105.09991260920474
C          124.66938844316743       95.71280357805631      106.27259480612214
C          126.12570609460022       95.90110156627054      105.85635447540393
C          127.00168527539307       96.22743824767748      107.06406515499977
C          128.47392577047819       96.46289724184631      106.72297164845635
C          128.74815731360673       97.76003860714316      105.95945694039116
C          128.55189082878789       99.02171416644767      106.79868595285352
C          128.78736034744745      100.28057143060103      105.96633849416378
C          128.51942049307502      101.56426329690534      106.74944448197481
C          128.80341148604694      102.83355521951340      105.94445887322510
C          127.90089774111956      102.97937530744802      104.72147768413600
C          128.12095878598720      104.29764858791361      103.98394187066546
C          127.34987438466692      104.33573845235172      102.66630693833753
C          127.58590336961657      105.63066505748634      101.89314017926235
C          127.00236874834114      105.60480908674189      100.47986214214716
C          125.47748663156764      105.64360002415164      100.45680417690002
C          124.91724185932559      105.63344141276470       99.03584798417006
C          123.39508405311760      105.73457629389139       99.03973176057390
C          122.76949043014410      105.59839113491418       97.65377535268048
C          121.25286848250522      105.75771139650796       97.72456151912809
C          120.54477479768036      105.48273195789071       96.40067977055526
C          119.03381273843618      105.65331048898480       96.54445688649102
C          118.25854434661477      105.24683712598004       95.29421473313967
C          116.75468729447300      105.44949823474271       95.47451365877903
C          115.94178383396761      104.82335490897640       94.34362749038513
C          114.44618733977688      105.09940133750273       94.48807846077398
C          113.61408963717528      104.26685433389892       93.51512624790567
C          112.11874078262261      104.58978779754710       93.56897494899104
C          111.75335653777731      105.84065504548927       92.77315471327429
C          110.25047001543378      106.12813220499076       92.75491948292786
C          109.72278162435454      106.67855261258863       94.07814963408821
C          108.26086270051941      107.10537762389652       93.96628071401452
C          107.69174109727909      107.72520968296287       95.24486016000833
C          108.44056718361340      108.95745094212269       95.76010411022082
C          108.59067456362817      110.05968636046033       94.71322317332643
C          109.14070187615080      111.36700008250136       95.28638680830275
C          110.53297752803965      111.22130408315488       95.89965448257149
C          111.14143650237190      112.57254349767160       96.27297811848169
C          112.41186397359164      112.42112706420285       97.10541334018598
C          112.99641170289249      113.76314814165748       97.53922398488525
C          114.22528069995003      113.58033721835757       98.42661117470541
C          114.80263811851204      114.90566419230349       98.91783665513155
C          115.98820806016160      114.68840876258518       99.85448227432521
C          116.55288777458317      115.99454534129616      100.40832319847078
C          117.66745996766899      115.73717174007504      101.41924531433808
C          118.26108491571139      117.02066479034094      101.99518291334117
C          119.31191858502625      116.71272615570557      103.05903536361446
C          119.85009610189509      117.95057289690300      103.77518272742941
C          121.02564727005843      117.57286070637052      104.67385643815808
C          121.53292846686851      118.69717292526080      105.57580901833364
C          120.62336304830546      118.96077627818316      106.77546499891588
C          121.32182645813270      119.80523619083837      107.83916218443377
C          120.54261985732488      119.89825389984105      109.15086252045526
C          119.30509993281646      120.78886655823644      109.06924105521058
C          118.59963128557453      120.87024304676338      110.42093384571390
C          117.51214023944067      121.94082603043027      110.49023871059057
C          116.30608516673813      121.66413321888957      109.59530540701576
C          115.18331595482374      122.66218459040871      109.86968613935491
C          113.96901757669764      122.49771043241030      108.95598608187603
C          113.23332725811962      121.17371366533804      109.15465318744103
C          111.87668215490601      121.17374909158426      108.45424706844611
C          111.10023261506595      119.86879143003684      108.64668418113615
C          111.55661444195285      118.76721853519044      107.69516589143349
C          110.79095768314693      117.46254386921815      107.88472817375819
C          111.01244871893881      116.50731596537987      106.71534120329149
C          110.28272064815646      115.17514434226547      106.88842833152506
C          110.93212776763687      114.23712649423898      107.90541610413371
C          112.24414393594071      113.64159916087281      107.40347526648011
C          112.82500697821722      112.58420481036516      108.34035508278215
C          113.38367784295369      113.16763461516737      109.63515876816820
C          114.10176932862761      112.10597861112996      110.46372675346174
C          114.90070873760969      112.67835174668446      111.63271266238112
C          114.04729747075133      113.25362038620436      112.75996335286533
C          114.89138243283627      113.93638053092567      113.83899949029006
C          115.67511086298848      112.95168789154208      114.70259631530125
C          116.61211013905550      113.65852885624638      115.67993347678822
C          117.26411912439200      112.70535966040778      116.68319346883943
C          118.19769842837827      111.69584353180048      116.02149110450503
C          118.75184018435291      110.67342737283715      117.01004858996176
C          119.53687903529159      109.54831981747419      116.33190659755421
C          118.71611065700552      108.82608542939343      115.26291430556259
C          119.20643539303271      107.41170995618890      114.96947268615547
C          118.35236856703233      106.75889146675453      113.88671595597562
C          118.65777476007734      105.27938096704487      113.67434524951246
C          117.70484846562125      104.67397405012375      112.64680109953117
C          117.86386516162854      103.16400262736626      112.50816612075744
C          116.88110886123556      102.54052633198238      111.51474496670440
C          115.41350219097332      102.78214380659912      111.86862227539490
C          114.47448532993552      101.89202237146823      111.05800768825844
C          112.99356528010011      102.21223436367363      111.27322983362619
C          112.59120966073174      103.56250304490692      110.68428185988672
C          111.07882594023688      103.75832131536689      110.59634342008019
C          110.74293854287500      105.03673879312291      109.83342954438329
C          109.24510977778523      105.27675130818000      109.66620633935955
C          108.98214233449842      106.52791249598900      108.83188591997269
C          107.49764022932182      106.82266854575252      108.63666641441461
C          107.28455415797087      108.09145891971025      107.81465769042397
C          105.80931466056842      108.41726651148134      107.59826803573392
C          105.62492484067185      109.72573100298544      106.83382954511369
C          104.15594702811759      110.06563491850913      106.59739424149900
C          103.98793787585601      111.41483410969784      105.90367105578611
C          102.52450986491735      111.75962153221371      105.64327766861025
C          102.36593306824393      113.13280691536210      104.99678475022719
C          100.90992187182968      113.46013173888427      104.68144148640054
C          100.74838318122981      114.84138139756551      104.05370447709144
C           99.29720886203899      115.13609435758504      103.68750265556606
C           99.13068517331769      116.49059854019913      103.00496241528273
C           97.67440678432860      116.77449457243306      102.64731153658400
C           97.51821243049807      118.07497600712266      101.86487337819898
C           96.06243981814607      118.37894960597983      101.53581362218961
H           97.93446522088941      118.89659934880598      102.45215055614661
H           98.09267524302462      118.01036251798814      100.93723712015787
H           97.28460356286286      115.94508111150746      102.05194689404911
H           97.07998605892506      116.82868844973413      103.56213464613469
H           99.50559617664102      117.27991623611928      103.66218382807730
H           99.73569367606451      116.51468230723577      102.09368543228577
H           98.93237325754643      114.35216497404636      103.01920724831658
H           98.68304797295683      115.11057432393822      104.59009800793713
H          101.11328840785448      115.60383275680051      104.74655457610874
H          101.36524533318627      114.90139789352564      103.15288157383148
H          100.51452877890380      112.70749559754627      103.99466979686201
H          100.31831131485296      113.41005610312324      105.59792596615679
H          102.77386064660369      113.89685104444133      105.66335613925966
H          102.94694747580230      113.16183857098713      104.07150407265088
H          102.08468079512120      111.00035967751387      104.99071053474539
H          101.97157097396546      111.73751116513633      106.58481287714189
H          104.43765508766812      112.19639973881402      106.52187912010962
H          104.52673828794165      111.39912245012118      104.95290396984905
H          103.69563382394530      109.28347140143211      105.98680999169584
H          103.62808198840841      110.08237920790479      107.55360687700043
H          106.09591013055686      110.53850052405755      107.39312370935508
H          106.13710979883250      109.65456239123924      105.87080539925614
H          105.33389910517732      107.60263049109342      107.04466655362666
H          105.30640363400867      108.48836907180336      108.56551547638148
H          107.76716160740322      108.93210128856133      108.31998907659381
H          107.77342141510898      107.97549115912931      106.84375832873927
H          107.02175054640826      105.97762789168513      108.13158558574384
H          107.01476122035119      106.93323398095755      109.61039440457324
H          109.45833660988370      107.38620142544832      109.31279234879884
H          109.45379491144161      106.40743720889060      107.85306495693465
H          108.79010558331454      104.41141506270182      109.17653782042228
H          108.77486809813605      105.38121177044081      110.64675172163398
H          111.18964986161789      105.89118444408813      110.34804943914538
H          111.20377135279534      104.98334778063175      108.84341515978208
H          110.63069345331067      102.90469505071772      110.08008544319993
H          110.64715533410661      103.79545280461005      111.59936891684227
H          113.02041854530879      104.37135402546568      111.27900788306520
H          113.01003100095497      103.64150270312345      109.67731813380077
H          112.39772296555066      101.43193470859497      110.79036710896938
H          112.75939054041940      102.18710749875345      112.34060095530840
H          114.70793201339845      101.99262196859699      109.99521223443884
H          114.65590709564107      100.84946794221823      111.33271944757041
H          115.25543112939106      102.58158286283940      112.93131487463670
H          115.16604866152356      103.82775992486786      111.68502121377330
H          117.07880640943470      102.93579556855730      110.51557476426794
H          117.05948019896115      101.46257718542842      111.48024579812862
H          118.88454922882208      102.93867269967136      112.18567664005610
H          117.72553460236372      102.70415297667445      113.49090659525780
H          116.68380728905274      104.89848957257016      112.95768162453727
H          117.86876857145847      105.14727858425000      111.67581434657258
H          119.69142750933166      105.15594334904050      113.34434488342291
H          118.54901434515742      104.74846839729642      114.62419188533403
H          117.30002795714464      106.85856779127329      114.16485635791966
H          118.49039600061460      107.29347379675345      112.94328770470113
H          120.25217453806208      107.43510250852364      114.65720946848950
H          119.14124372807038      106.81581381424019      115.88322182833166
H          117.67909376794074      108.76410654725856      115.59878556630528
H          118.73048779737566      109.40086276122588      114.33446208832255
H          120.45148065214046      109.94702647826659      115.88581813787839
H          119.83437944058190      108.82984895741750      117.09842764747482
H          119.39650620147745      111.17543240530122      117.73805015240285
H          117.92072157675588      110.23098097186046      117.56601127581594
H          117.64367509914638      111.16589002844094      115.24866198877905
H          119.02509473340422      112.22321971717356      115.54163910341846
H          117.82387683351628      113.28805387836681      117.41913519011972
H          116.47944247404369      112.16644749260391      117.22231910140427
H          117.38928568866581      114.18063200725295      115.11715800119080
H          116.04362648636443      114.41364082888582      116.22985573241277
H          114.97068202616838      112.33108033114499      115.26141438977976
H          116.25873510377636      112.29446726096562      114.05858374543932
H          115.58524172710734      114.63114209735116      113.35765194245131
H          114.23915658550888      114.52849576709968      114.48719828996195
H          113.35477377409195      113.98611171074094      112.34100528141111
H          113.45059359961890      112.45863883732156      113.21455824544326
H          115.52717253902398      111.88024769162423      112.03664271087264
H          115.56184393846384      113.46253077707384      111.25337523861310
H          113.37879986403320      111.37670876596376      110.83241598833898
H          114.79536844996491      111.57099633537953      109.80819619076952
H          114.09072975466327      113.96530420453284      109.38857501014280
H          112.57412679239997      113.60815239238808      110.21878247522353
H          112.05666565924032      111.84486950733263      108.57571465610211
H          113.63325653881789      112.06469679896153      107.81832262444446
H          112.06033624163271      113.18440165587957      106.42767336578299
H          112.98564973676636      114.43197266494940      107.26232102114209
H          111.09748084733782      114.76946241506832      108.84274847456091
H          110.23982257843807      113.41922407625282      108.11264722012791
H          109.25331170173277      115.37939560071318      107.19585388799780
H          110.23914851349284      114.66535246507300      105.92293685981706
H          110.65093023759393      116.99152729303658      105.80339111780731
H          112.08239417755873      116.33356398580686      106.58585416115615
H          111.10430622458685      116.99168464453531      108.81831527746986
H          109.72262837637670      117.68289853388868      107.96081519233023
H          111.40028813828117      119.10815542265090      106.67040630697798
H          112.62484390054588      118.58021098054209      107.82384349045209
H          111.20519247332967      119.53541332167366      109.68177274609498
H          110.03736655782693      120.05545403695734      108.46986824303787
H          111.28280812729258      122.00260473902389      108.84557938568338
H          112.02172588327760      121.35924008762677      107.38689272284869
H          113.84563789011334      120.35753472751340      108.77081307886453
H          113.08228785151843      121.00294973728712      110.22369761931772
H          113.27494511868360      123.31884779106966      109.15849216083083
H          114.28288205834379      122.58757641209515      107.91286604093551
H          114.86110973144052      122.56076125013286      110.90988919076862
H          115.57766755395538      123.67533164999951      109.74945639085647
H          116.59831754970558      121.73012800926874      108.54529851108354
H          115.94747595289158      120.65064210903842      109.78067446078062
H          117.16510671002381      122.01308619394270      111.52496569728214
H          117.94289075708232      122.91016328307445      110.22597837171499
H          118.16483110269694      119.89582699239604      110.65871989046292
H          119.34655357826567      121.09017004113187      111.18780665589736
H          119.60626811214415      121.79266778615499      108.75729172688483
H          118.61858582823876      120.39801174935762      108.31709852909920
H          120.24607507782635      118.89369191132828      109.46361552369689
H          121.20457325328326      120.30004573464024      109.92262833488121
H          122.29639457997460      119.35531393149327      108.04798508961919
H          121.50605323402569      120.80998236635165      107.45048578060047
H          119.70950499857918      119.45567642700375      106.44573864381800
H          120.33823587485611      118.00418327672543      107.22111153934472
H          122.52111052497499      118.41229771994414      105.94804367003501
H          121.65651849645599      119.61368932976465      104.99413226517422
H          120.73076473668485      116.73053805954412      105.30443577728920
H          121.84643715062516      117.23207471547974      104.03877879063290
H          120.17584247399435      118.69121611939816      103.04034776748453
H          119.05480475596059      118.40168366418816      104.37079308904646
H          118.87552759370617      116.04175296928173      103.80360870318388
H          120.14402458022049      116.18299357156424      102.58905487627636
H          118.71184666494865      117.61047925708704      101.19315958085043
H          117.45933667743890      117.62131993609432      102.43088830973251
H          117.26674788958725      115.13643091686031      102.23976274800732
H          118.46040564832845      115.15475308645627      100.94441301386730
H          116.93587952450817      116.60623255802945       99.58760934097684
H          115.75095705396690      116.55903256110994      100.89144192701814
H          115.66653083213103      114.06000103798088      100.68744053766598
H          116.77695512681223      114.14987535742790       99.32397670180433
H          115.11561487130217      115.50856982043717       98.06165881451176
H          114.02557211703400      115.46351798338830       99.44649671868724
H          113.95124800309785      112.97087783850441       99.29139685350928
H          114.99236519098105      113.03254262599017       97.87424803720042
H          113.26556477790714      114.34940870346847       96.65701654653266
H          112.23588830230679      114.32567456938487       98.08728993291186
H          112.18061518333059      111.83730681398521       97.99943049632331
H          113.15975885628740      111.86580312147059       96.53469102128322
H          111.36126616533497      113.13970047980600       95.36477490569226
H          110.41071573406177      113.14668916032397       96.84677886216078
H          110.46803509877172      110.60371436073052       96.79702245860642
H          111.19233348051344      110.70980640073725       95.19409765221680
H          109.18309871009144      112.10775484777000       94.48286556927231
H          108.45126238919379      111.74691708388889       96.04467175351135
H          109.25652666156435      109.72171252549336       93.91690109005306
H          107.61331338685727      110.25902628680635       94.26484963078087
H          107.89185219024874      109.35615220318643       96.61793473366386
H          109.42560035357893      108.65676313547219       96.11689214194912
H          106.65036497486656      107.99920176396655       95.05212022425314
H          107.69178853053936      106.96870715774847       96.03553224348930
H          108.15724897516512      107.81744982722569       93.14464233453270
H          107.65637715600165      106.23054949743012       93.71050961184864
H          109.82156463495845      105.92591753779543       94.86183288322216
H          110.33312118019730      107.53833772055781       94.35866854725391
H          110.04682215871173      106.86283455474472       91.97053963108286
H          109.70934368146878      105.21519602815600       92.49381448572093
H          112.27706564360263      106.70657904233906       93.18335652986579
H          112.09556867922613      105.70666499369456       91.74314377227752
H          111.55744112592920      103.74612389329917       93.15938945989576
H          111.81686386124238      104.71371072077473       94.60955589192262
H          113.98057380659647      104.42197439741636       92.49702334743213
H          113.76099655142912      103.21176580218750       93.75706373903544
H          114.13725160015127      104.86132774509122       95.50942281425444
H          114.25833757869741      106.16262700685631       94.32649046173938
H          116.29121709299916      105.20993072462704       93.38292442682933
H          116.10902610546339      103.74304005025641       94.34144753220350
H          116.44606392727677      105.00107437317284       96.42251159802611
H          116.53826940358245      106.51929319088651       95.53144971532635
H          118.60644990411377      105.82811625817084       94.43663018641908
H          118.45644545329559      104.19398747705048       95.07490814246150
H          118.68932099032533      105.04215050529210       97.38152796069069
H          118.81242531064395      106.69633385966752       96.78373726421873
H          120.92175913408528      106.16038613417683       95.63050176774294
H          120.76646847698206      104.46214671067204       96.07624551435146
H          120.86296854990718      105.06693073038562       98.47587668245339
H          121.01546752699544      106.77049406946333       98.05644222474349
H          123.18845364256302      106.35340047272418       96.98375807038545
H          123.01534980907370      104.61724860738543       97.23897637390317
H          122.99589840474577      104.94653396266555       99.68330279914542
H          123.10315004028909      106.69588868132851       99.46771018475312
H          125.33750215487105      106.46875025688948       98.47013235744804
H          125.22064196702814      104.71066737990367       98.53438132962252
H          125.07868313429340      104.78460283586172      100.99941915704386
H          125.13932857022577      106.54774938020324      100.96863727871064
H          127.38062008509054      106.46750942150824       99.92583094215439
H          127.35114939488659      104.70657290152904       99.96353052213277
H          127.15370702647921      106.46591705413221      102.44855686225381
H          128.66255014679331      105.80549843125317      101.82205455424440
H          127.66428577452267      103.49067439310791      102.04750229786124
H          126.28526169292032      104.21780951314720      102.87383838780143
H          127.80818368586574      105.13061709020489      104.61727052102307
H          129.18783860277904      104.42088578805105      103.77970506480671
H          128.09493003797530      102.15946989963382      104.02731574603138
H          126.85605542064447      102.90911307867428      105.03363347705151
H          128.66322081768899      103.70169639593311      106.59387444811267
H          129.84819037290126      102.83069511329134      105.62201428793257
H          127.47658571573827      101.57591509068632      107.07180822543573
H          129.14412035645395      101.56819001883041      107.64687994907280
H          129.81846415653078      100.28672672762147      105.60251880387642
H          128.12986538113060      100.24305410913776      105.09578079116133
H          127.53594585184248       99.04538043624574      107.19706257027181
H          129.23865464646332       99.00513412524610      107.64876812766367
H          129.78032385805651       97.73911267148769      105.59891981394719
H          128.10172945670976       97.80921898563875      105.08105574119243
H          129.05227119283109       96.47785045371060      107.65086869048199
H          128.83456031278101       95.62032662719724      106.12679568073504
H          126.59798679983903       97.10748390989058      107.56503506330347
H          126.94064576538625       95.39345857268414      107.76888848658189
H          126.49225147883512       94.99174555439986      105.37274352245441
H          126.18096584640681       96.70964437004230      105.12532871030974
H          124.32217067785898       96.62945549907923      106.75438062343599
H          124.60606005444808       94.90885009218698      107.01036596760586
H          124.06088773853256       94.45016267352585      104.63577147796560
H          123.83631873187565       96.17330326344720      104.34423947411480
H          121.99824099288226       96.20414766053015      106.04491096415882
H          122.20512911864628       94.47159354667045      106.28347454537358
H          121.64742411115641       94.10035968887951      103.86401165751755
H          121.38795046531996       95.83187211376726      103.67846181090206
H          119.60941457694297       95.72639993853990      105.44681762430591
H          119.82810177353117       93.97982604809117      105.53365474106847
H          119.23209147236608       93.82270831934535      103.09405305354549
H          118.95494391753809       95.56261327021080      103.07812524640043
H          117.20455981815810       95.25810867556133      104.86217746374066
H          117.42179076455911       93.51452748018130      104.73702158158025
H          116.79070912861324       93.64784335857094      102.30410879315566
H          116.53331188998968       95.38035922398014      102.49343472860014
H          114.83845855705438       94.86372878998405      104.29807158646568
H          114.99167130595021       93.15542268990950      103.89634581395065
H          114.24000076242986       93.63935517941154      101.57137635491034
H          114.13016785974798       95.35466615416858      101.96298057393176
H          112.42495155282424       94.84536582178424      103.70524842548650
H          112.50166906955576       93.13648751659564      103.27646625451064
H          111.64267064932146       95.40796855277607      101.41939349483285
H          111.73772534530582       93.70789611650498      100.95559814799505
H          110.57055484611200       94.22639609262619      102.17252958103532
H           95.63187911395394      117.58840512093026      100.92472136539888
H           95.47406848556598      118.46402492894291      102.44665263265259
H           95.97868178881845      119.31462430295329      100.98656488316108
C          112.18813033288482      124.00725342268186      122.55930740768282
C          112.67722681951980      124.06727697151609      121.11663368335905
C          112.22233763851919      122.87629681666553      120.27286158276767
C          110.71615900013650      122.84974303211791      120.01529493283053
C          110.31186720631257      121.76339494735056      119.01778448372104
C          110.36490537255521      120.35453426959684      119.60595905163670
C          110.33489915895292      119.26489381223557      118.53291327923661
C          111.65778701100700      119.09006278928288      117.78360322552999
C          112.76162703200275      118.46408641464444      118.63484074705566
C          114.03446006184174      118.22944460974983      117.82459236696553
C          115.13634474728120      117.55502242538087      118.63910286348424
C          116.39130062757256      117.29835498791128      117.80726563788080
C          117.46942931406164      116.55945603718058      118.59471701298213
C          118.73356350548296      116.30527745449888      117.77483495585325
C          119.80509760067898      115.61236334158993      118.61333570437121
C          121.11441619954097      115.33591284463509      117.87355010819451
C          121.00379678685364      114.22012849008992      116.83874157594640
C          122.35399743666036      113.86366876221723      116.22129378546241
C          122.21205289976817      112.83595791034887      115.10143114806520
C          123.55843305557028      112.41187416239485      114.52191074206223
C          123.43917389466385      111.62677867939257      113.21582805715171