      -----------------------------------------------------------      
     |                   =====================                   |     
     |                           x T B                           |     
     |                   =====================                   |     
     |                         S. Grimme                         |     
     |          Mulliken Center for Theoretical Chemistry        |     
     |                    University of Bonn                     |     
      -----------------------------------------------------------      

   * xtb version 6.6.1 (8d0f1dd) compiled by 'stahn@M-Bot' on 2023-08-01

   xtb is free software: you can redistribute it and/or modify it under
   the terms of the GNU Lesser General Public License as published by
   the Free Software Foundation, either version 3 of the License, or
   (at your option) any later version.
   
   xtb is distributed in the hope that it will be useful,
   but WITHOUT ANY WARRANTY; without even the implied warranty of
   MERCHANTABILITY or FITNESS FOR A PARTICULAR PURPOSE.  See the
   GNU Lesser General Public License for more details.
   
   Cite this work as:
   * C. Bannwarth, E. Caldeweyher, S. Ehlert, A. Hansen, P. Pracht,
     J. Seibert, S. Spicher, S. Grimme, WIREs Comput. Mol. Sci., 2020, 11,
     e01493. DOI: 10.1002/wcms.1493
   
   for GFN2-xTB:
   * C. Bannwarth, S. Ehlert and S. Grimme., J. Chem. Theory Comput., 2019,
     15, 1652-1671. DOI: 10.1021/acs.jctc.8b01176
   for GFN1-xTB:
   * S. Grimme, C. Bannwarth, P. Shushkov, J. Chem. Theory Comput., 2017,
     13, 1989-2009. DOI: 10.1021/acs.jctc.7b00118
   for GFN0-xTB:
   * P. Pracht, E. Caldeweyher, S. Ehlert, S. Grimme, ChemRxiv, 2019, preprint.
     DOI: 10.26434/chemrxiv.8326202.v1
   for GFN-FF:
   * S. Spicher and S. Grimme, Angew. Chem. Int. Ed., 2020, 59, 15665-15673.
     DOI: 10.1002/anie.202004239
   
   for ALPB and GBSA implicit solvation:
   * S. Ehlert, M. Stahn, S. Spicher, S. Grimme, J. Chem. Theory Comput.,
     2021, 17, 4250-4261. DOI: 10.1021/acs.jctc.1c00471
   
   for DFT-D4:
   * E. Caldeweyher, C. Bannwarth and S. Grimme, J. Chem. Phys., 2017,
     147, 034112. DOI: 10.1063/1.4993215
   * E. Caldeweyher, S. Ehlert, A. Hansen, H. Neugebauer, S. Spicher,
     C. Bannwarth and S. Grimme, J. Chem. Phys., 2019, 150, 154122.
     DOI: 10.1063/1.5090222
   * E. Caldeweyher, J.-M. Mewes, S. Ehlert and S. Grimme, Phys. Chem. Chem. Phys.
     2020, 22, 8499-8512. DOI: 10.1039/D0CP00502A
   
   for sTDA-xTB:
   * S. Grimme and C. Bannwarth, J. Chem. Phys., 2016, 145, 054103.
     DOI: 10.1063/1.4959605
   
   in the mass-spec context:
   * V. Asgeirsson, C. Bauer and S. Grimme, Chem. Sci., 2017, 8, 4879.
     DOI: 10.1039/c7sc00601b
   * J. Koopman and S. Grimme, ACS Omega 2019, 4, 12, 15120-15133.
     DOI: 10.1021/acsomega.9b02011
   
   for metadynamics refer to:
   * S. Grimme, J. Chem. Theory Comput., 2019, 155, 2847-2862
     DOI: 10.1021/acs.jctc.9b00143
   
   for SPH calculations refer to:
   * S. Spicher and S. Grimme, J. Chem. Theory Comput., 2021, 17, 1701-1714
     DOI: 10.1021/acs.jctc.0c01306
   
   with help from (in alphabetical order)
   P. Atkinson, C. Bannwarth, F. Bohle, G. Brandenburg, E. Caldeweyher
   M. Checinski, S. Dohm, S. Ehlert, S. Ehrlich, I. Gerasimov, C. Hölzer
   A. Katbashev, J. Koopman, C. Lavigne, S. Lehtola, F. März, M. Müller,
   F. Musil, H. Neugebauer, J. Pisarek, C. Plett, P. Pracht, F. Pultar,
   J. Seibert, P. Shushkov, S. Spicher, M. Stahn, M. Steiner, T. Strunk,
   J. Stückrath, T. Rose, and J. Unsleber
   
 * started run on 2024/10/03 at 21:20:31.649     

           -------------------------------------------------
          |                Calculation Setup                |
           -------------------------------------------------

          program call               : /home/abt-grimme/AK-bin/xtb input.xyz --input input.inp --opt
          hostname                   : boar110.thch.uni-bonn.de
          coordinate file            : input.xyz
          omp threads                :                     8

   ID    Z sym.   atoms
    1    6 C      1-120, 363-482, 725-844, 1087-1206, 1449-1568, 1811-1930,
                  2173-2292, 2535-2654, 2897-3016
    2    1 H      121-362, 483-724, 845-1086, 1207-1448, 1569-1810,
                  1931-2172, 2293-2534, 2655-2896, 3017-3258

molecular fragmentation (1/2 indicates fragments):
111111111111111111111111111111111111111111111111111111111111111111111111
111111111111111111111111111111111111111111111111111111111111111111111111
111111111111111111111111111111111111111111111111111111111111111111111111
111111111111111111111111111111111111111111111111111111111111111111111111
111111111111111111111111111111111111111111111111111111111111111111111111
112222222222222222222222222222222222222222222222222222222222222222222222
222222222222222222222222222222222222222222222222222222222222222222222222
222222222222222222222222222222222222222222222222222222222222222222222222
222222222222222222222222222222222222222222222222222222222222222222222222
222222222222222222222222222222222222222222222222222222222222222222222222
222222222222222222222222222222222222222222222222222222222222222222222222
222222222222222222222222222222222222222222222222222222222222222222222222
222222222222222222222222222222222222222222222222222222222222222222222222
222222222222222222222222222222222222222222222222222222222222222222222222
222222222222222222222222222222222222222222222222222222222222222222222222
222222222222222222222222222222222222222222222222222222222222222222222222
222222222222222222222222222222222222222222222222222222222222222222222222
222222222222222222222222222222222222222222222222222222222222222222222222
222222222222222222222222222222222222222222222222222222222222222222222222
222222222222222222222222222222222222222222222222222222222222222222222222
222222222222222222222222222222222222222222222222222222222222222222222222
222222222222222222222222222222222222222222222222222222222222222222222222
222222222222222222222222222222222222222222222222222222222222222222222222
222222222222222222222222222222222222222222222222222222222222222222222222
222222222222222222222222222222222222222222222222222222222222222222222222
222222222222222222222222222222222222222222222222222222222222222222222222
222222222222222222222222222222222222222222222222222222222222222222222222
222222222222222222222222222222222222222222222222222222222222222222222222
222222222222222222222222222222222222222222222222222222222222222222222222
222222222222222222222222222222222222222222222222222222222222222222222222
222222222222222222222222222222222222222222222222222222222222222222222222
222222222222222222222222222222222222222222222222222222222222222222222222
222222222222222222222222222222222222222222222222222222222222222222222222
222222222222222222222222222222222222222222222222222222222222222222222222
222222222222222222222222222222222222222222222222222222222222222222222222
222222222222222222222222222222222222222222222222222222222222222222222222
222222222222222222222222222222222222222222222222222222222222222222222222
222222222222222222222222222222222222222222222222222222222222222222222222
222222222222222222222222222222222222222222222222222222222222222222222222
222222222222222222222222222222222222222222222222222222222222222222222222
222222222222222222222222222222222222222222222222222222222222222222222222
222222222222222222222222222222222222222222222222222222222222222222222222
222222222222222222222222222222222222222222222222222222222222222222222222
222222222222222222222222222222222222222222222222222222222222222222222222
222222222222222222222222222222222222222222222222222222222222222222222222
222222222222222222
# atoms in fragment 1/2:   362  2896
 fragment masses (1/2) :     1685.21    13481.68
CMA distance (Bohr)    :  14.562
constraining FC (au)   :  0.0500

           -------------------------------------------------
          |                 G F N 2 - x T B                 |
           -------------------------------------------------

        Reference                      10.1021/acs.jctc.8b01176
      * Hamiltonian:
        H0-scaling (s, p, d)           1.850000    2.230000    2.230000
        zeta-weighting                 0.500000
      * Dispersion:
        s8                             2.700000
        a1                             0.520000
        a2                             5.000000
        s9                             5.000000
      * Repulsion:
        kExp                           1.500000    1.000000
        rExp                           1.000000
      * Coulomb:
        alpha                          2.000000
        third order                    shell-resolved
        anisotropic                    true
        a3                             3.000000
        a5                             4.000000
        cn-shift                       1.200000
        cn-exp                         4.000000
        max-rad                        5.000000


          ...................................................
          :                      SETUP                      :
          :.................................................:
          :  # basis functions                6498          :
          :  # atomic orbitals                6498          :
          :  # shells                         4338          :
          :  # electrons                      6498          :
          :  max. iterations                   250          :
          :  Hamiltonian                  GFN2-xTB          :
          :  restarted?                      false          :
          :  GBSA solvation                  false          :
          :  PC potential                    false          :
          :  electronic temp.          300.0000000     K    :
          :  accuracy                    1.0000000          :
          :  -> integral cutoff          0.2500000E+02      :
          :  -> integral neglect         0.1000000E-07      :
          :  -> SCF convergence          0.1000000E-05 Eh   :
          :  -> wf. convergence          0.1000000E-03 e    :
          :  Broyden damping             0.4000000          :
          ...................................................

 iter      E             dE          RMSdq      gap      omega  full diag
   1  -3473.5507354 -0.347355E+04  0.244E+00   11.31       0.0  T
   2  -3478.6518721 -0.510114E+01  0.134E+00   11.43       1.0  T
   3  -3478.8585683 -0.206696E+00  0.597E-01   11.44       1.0  T
   4  -3478.8789846 -0.204163E-01  0.753E-02   11.47       1.0  T
   5  -3478.8799436 -0.958981E-03  0.389E-02   11.46       1.0  T
   6  -3478.8801578 -0.214196E-03  0.677E-03   11.46       1.0  T
   7  -3478.8801754 -0.176391E-04  0.121E-03   11.46       1.4  T
   8  -3478.8801765 -0.104845E-05  0.384E-04   11.46       4.6  T
   9  -3478.8801765 -0.632854E-07  0.142E-04   11.46      12.3  T
  10  -3478.8801765 -0.389809E-08  0.420E-05   11.46      41.7  T

   *** convergence criteria satisfied after 10 iterations ***

         #    Occupation            Energy/Eh            Energy/eV
      -------------------------------------------------------------
         1        2.0000           -0.6259466             -17.0329
       ...           ...                  ...                  ...
      3243        2.0000           -0.4020625             -10.9407
      3244        2.0000           -0.4019713             -10.9382
      3245        2.0000           -0.4019276             -10.9370
      3246        2.0000           -0.4017850             -10.9331
      3247        2.0000           -0.4016948             -10.9307
      3248        2.0000           -0.4016266             -10.9288
      3249        2.0000           -0.4012866             -10.9196 (HOMO)
      3250                          0.0199258               0.5422 (LUMO)
      3251                          0.0207581               0.5649
      3252                          0.0211442               0.5754
      3253                          0.0227926               0.6202
      3254                          0.0230111               0.6262
       ...                                ...                  ...
      6498                          0.3896940              10.6041
      -------------------------------------------------------------
                  HL-Gap            0.4212123 Eh           11.4618 eV
             Fermi-level           -0.1906804 Eh           -5.1887 eV

 SCC (total)                   0 d,  0 h, 13 min, 35.471 sec
 SCC setup                      ...        0 min,  0.435 sec (  0.053%)
 Dispersion                     ...        0 min,  3.758 sec (  0.461%)
 classical contributions        ...        0 min,  0.127 sec (  0.016%)
 integral evaluation            ...        0 min,  6.203 sec (  0.761%)
 iterations                     ...        9 min, 38.451 sec ( 70.935%)
 molecular gradient             ...        3 min, 37.819 sec ( 26.711%)
 printout                       ...        0 min,  8.677 sec (  1.064%)

         :::::::::::::::::::::::::::::::::::::::::::::::::::::
         ::                     SUMMARY                     ::
         :::::::::::::::::::::::::::::::::::::::::::::::::::::
         :: total energy           -3427.619604920228 Eh    ::
         :: gradient norm              0.018640164631 Eh/a0 ::
         :: HOMO-LUMO gap             11.461770899876 eV    ::
         ::.................................................::
         :: SCC energy             -3478.880176528335 Eh    ::
         :: -> isotropic ES            0.416910097393 Eh    ::
         :: -> anisotropic ES          1.119453790476 Eh    ::
         :: -> anisotropic XC          1.948955598834 Eh    ::
         :: -> dispersion             -4.062097842987 Eh    ::
         :: repulsion energy          50.617848456565 Eh    ::
         :: add. restraining           0.000000000000 Eh    ::
         :: total charge              -0.000000000013 e     ::
         :::::::::::::::::::::::::::::::::::::::::::::::::::::

      ----------------------------------------------------------- 
     |              Fast Inertial Relaxation Engine              |
      ----------------------------------------------------------- 

          ...................................................
          :                      SETUP                      :
          :.................................................:
          :   energy convergence        0.5000000E-05 Eh    :
          :   grad. convergence         0.1000000E-02 Eh/a0 :
          :   optimization log               true           :
          :   writing optlog all                1     steps :
          :   Hessian reset                    20     steps :
          :   time step scaling                 5     steps :
          :   maximium step len.        1.0000000     a0    :
          :   initial time step         0.2500000     fs    :
          :   maximum time step         1.2500000     fs    :
          :   power reset thr           0.0000000     au    :
          :   alpha parameter           0.1000000           :
          :   BFGS update                   false           :
          :   preconditioning               false           :
          ...................................................

........................................................................
.............................. CYCLE    1 ..............................
........................................................................

 iter      E             dE          RMSdq      gap      omega  full diag
   1  -3478.8837358 -0.347888E+04  0.269E-04   11.46       0.0  T
   2  -3478.8837358 -0.297064E-07  0.154E-04   11.46      11.4  T
   3  -3478.8837358 -0.568889E-09  0.500E-05   11.46      35.0  T
     SCC iter.                  ...        2 min, 54.040 sec
     gradient                   ...        3 min, 37.246 sec
 * total energy  : -3427.6196440 Eh     change    :  -0.3905368E-04 Eh
   gradient norm :     0.0171118 Eh/a0  converged?    E=F G=F D=F
   time step     :     0.2500000 fs     power     :   0.1983736E-08
   step length   :     0.0021846 a0     speed     :   0.2113706E-03

........................................................................
.............................. CYCLE    2 ..............................
........................................................................

 iter      E             dE          RMSdq      gap      omega  full diag
   1  -3478.8889152 -0.347889E+04  0.389E-04   11.46       0.0  T
   2  -3478.8889153 -0.619334E-07  0.222E-04   11.46       7.9  T
   3  -3478.8889153 -0.135560E-08  0.723E-05   11.46      24.2  T
     SCC iter.                  ...        2 min, 53.060 sec
     gradient                   ...        3 min, 38.346 sec
 * total energy  : -3427.6196950 Eh     change    :  -0.5101581E-04 Eh
   gradient norm :     0.0149119 Eh/a0  converged?    E=F G=F D=F
   time step     :     0.2500000 fs     power     :   0.2519383E-08
   step length   :     0.0031872 a0     speed     :   0.3083743E-03

........................................................................
.............................. CYCLE    3 ..............................
........................................................................

 iter      E             dE          RMSdq      gap      omega  full diag
   1  -3478.8954868 -0.347890E+04  0.494E-04   11.46       0.0  T
   2  -3478.8954869 -0.994614E-07  0.283E-04   11.46       6.2  T
   3  -3478.8954869 -0.216733E-08  0.915E-05   11.46      19.1  T
     SCC iter.                  ...        2 min, 54.297 sec
     gradient                   ...        3 min, 36.731 sec
 * total energy  : -3427.6197498 Eh     change    :  -0.5483467E-04 Eh
   gradient norm :     0.0121618 Eh/a0  converged?    E=F G=F D=F
   time step     :     0.2500000 fs     power     :   0.2607284E-08
   step length   :     0.0040599 a0     speed     :   0.3928168E-03

........................................................................
.............................. CYCLE    4 ..............................
........................................................................

 iter      E             dE          RMSdq      gap      omega  full diag
   1  -3478.9031569 -0.347890E+04  0.578E-04   11.46       0.0  T
   2  -3478.9031570 -0.134917E-06  0.331E-04   11.46       5.3  T
   3  -3478.9031570 -0.302998E-08  0.106E-04   11.46      16.5  T
     SCC iter.                  ...        2 min, 52.993 sec
     gradient                   ...        3 min, 36.585 sec
 * total energy  : -3427.6197999 Eh     change    :  -0.5011372E-04 Eh
   gradient norm :     0.0090544 Eh/a0  converged?    E=F G=F D=F
   time step     :     0.2500000 fs     power     :   0.2245561E-08
   step length   :     0.0047682 a0     speed     :   0.4613449E-03

........................................................................
.............................. CYCLE    5 ..............................
........................................................................

 iter      E             dE          RMSdq      gap      omega  full diag
   1  -3478.9115662 -0.347891E+04  0.637E-04   11.46       0.0  T
   2  -3478.9115663 -0.160918E-06  0.365E-04   11.46       4.8  T
   3  -3478.9115663 -0.362388E-08  0.116E-04   11.46      15.1  T
     SCC iter.                  ...        2 min, 50.770 sec
     gradient                   ...        3 min, 36.262 sec
 * total energy  : -3427.6198379 Eh     change    :  -0.3791905E-04 Eh
   gradient norm :     0.0059519 Eh/a0  converged?    E=F G=F D=F
   time step     :     0.2500000 fs     power     :   0.1515895E-08
   step length   :     0.0052823 a0     speed     :   0.5110953E-03

........................................................................
.............................. CYCLE    6 ..............................
........................................................................

 iter      E             dE          RMSdq      gap      omega  full diag
   1  -3478.9211586 -0.347892E+04  0.735E-04   11.46       0.0  T
   2  -3478.9211588 -0.206348E-06  0.421E-04   11.46       4.2  T
   3  -3478.9211588 -0.466662E-08  0.130E-04   11.46      13.5  T
     SCC iter.                  ...        2 min, 47.599 sec
     gradient                   ...        3 min, 36.189 sec
 * total energy  : -3427.6198600 Eh     change    :  -0.2216417E-04 Eh
   gradient norm :     0.0038035 Eh/a0  converged?    E=F G=F D=F
   time step     :     0.2750000 fs     power     :   0.4820260E-09
   step length   :     0.0061550 a0     speed     :   0.5413915E-03

........................................................................
.............................. CYCLE    7 ..............................
........................................................................

 iter      E             dE          RMSdq      gap      omega  full diag
   1  -3478.9308695 -0.347893E+04  0.771E-04   11.46       0.0  T
   2  -3478.9308697 -0.204104E-06  0.444E-04   11.46       3.9  T
   3  -3478.9308697 -0.495083E-08  0.126E-04   11.46      13.9  T
     SCC iter.                  ...        2 min, 53.240 sec
     gradient                   ...        3 min, 35.662 sec
 * total energy  : -3427.6198613 Eh     change    :  -0.1251779E-05 Eh
   gradient norm :     0.0051245 Eh/a0  converged?    E=T G=F D=F
   time step     :     0.3025000 fs     power     :  -0.4961659E-09
   step length   :     0.0065874 a0     speed     :   0.5267527E-03

........................................................................
.............................. CYCLE    8 ..............................
........................................................................
 * reset velocities

 iter      E             dE          RMSdq      gap      omega  full diag
   1  -3478.9307461 -0.347893E+04  0.137E-05   11.46       0.0  T
   2  -3478.9307461 -0.134605E-09  0.737E-06   11.46     237.6  T
   3  -3478.9307461  0.500222E-11  0.330E-06   11.46     530.9  T
     SCC iter.                  ...        2 min, 53.828 sec
     gradient                   ...        3 min, 36.527 sec
 * total energy  : -3427.6198618 Eh     change    :  -0.5608367E-06 Eh
   gradient norm :     0.0050579 Eh/a0  converged?    E=T G=F D=T
   time step     :     0.1512500 fs     power     :   0.4877108E-10
   step length   :     0.0001099 a0     speed     :   0.1757793E-04

........................................................................
.............................. CYCLE    9 ..............................
........................................................................

 iter      E             dE          RMSdq      gap      omega  full diag
   1  -3478.9305014 -0.347893E+04  0.274E-05   11.46       0.0  T
   2  -3478.9305014 -0.164619E-09  0.160E-05   11.46     109.6  T
   3  -3478.9305014  0.727596E-11  0.409E-06   11.46     428.4  T
     SCC iter.                  ...        2 min, 55.103 sec
     gradient                   ...        3 min, 35.854 sec
 * total energy  : -3427.6198629 Eh     change    :  -0.1095661E-05 Eh
   gradient norm :     0.0049361 Eh/a0  converged?    E=T G=F D=T
   time step     :     0.1512500 fs     power     :   0.9456362E-10
   step length   :     0.0002184 a0     speed     :   0.3492721E-04

........................................................................
.............................. CYCLE   10 ..............................
........................................................................

 iter      E             dE          RMSdq      gap      omega  full diag
   1  -3478.9301410 -0.347893E+04  0.402E-05   11.46       0.0  T
   2  -3478.9301410 -0.357431E-09  0.234E-05   11.46      74.8  T
   3  -3478.9301410 -0.164619E-09  0.607E-06   11.46     288.4  T
     SCC iter.                  ...        2 min, 54.928 sec
     gradient                   ...        3 min, 37.061 sec
 * total energy  : -3427.6198645 Eh     change    :  -0.1571689E-05 Eh
   gradient norm :     0.0047587 Eh/a0  converged?    E=T G=F D=T
   time step     :     0.1512500 fs     power     :   0.1353023E-09
   step length   :     0.0003243 a0     speed     :   0.5185727E-04

........................................................................
.............................. CYCLE   11 ..............................
........................................................................

 iter      E             dE          RMSdq      gap      omega  full diag
   1  -3478.9296730 -0.347893E+04  0.527E-05   11.46       0.0  T
   2  -3478.9296730 -0.800810E-09  0.307E-05   11.46      57.0  T
   3  -3478.9296730 -0.309228E-10  0.792E-06   11.46     221.2  T
     SCC iter.                  ...        2 min, 53.637 sec
     gradient                   ...        3 min, 36.639 sec
 * total energy  : -3427.6198665 Eh     change    :  -0.1975152E-05 Eh
   gradient norm :     0.0045308 Eh/a0  converged?    E=T G=F D=T
   time step     :     0.1512500 fs     power     :   0.1691970E-09
   step length   :     0.0004263 a0     speed     :   0.6817271E-04

........................................................................
.............................. CYCLE   12 ..............................
........................................................................

 iter      E             dE          RMSdq      gap      omega  full diag
   1  -3478.9291082 -0.347893E+04  0.645E-05   11.46       0.0  T
   2  -3478.9291082 -0.111231E-08  0.376E-05   11.46      46.6  T
   3  -3478.9291082 -0.636646E-11  0.960E-06   11.46     182.6  T
     SCC iter.                  ...        2 min, 53.398 sec
     gradient                   ...        3 min, 37.398 sec
 * total energy  : -3427.6198688 Eh     change    :  -0.2296258E-05 Eh
   gradient norm :     0.0042600 Eh/a0  converged?    E=T G=F D=T
   time step     :     0.1512500 fs     power     :   0.1949256E-09
   step length   :     0.0005233 a0     speed     :   0.8369043E-04

........................................................................
.............................. CYCLE   13 ..............................
........................................................................

 iter      E             dE          RMSdq      gap      omega  full diag
   1  -3478.9284608 -0.347893E+04  0.753E-05   11.46       0.0  T
   2  -3478.9284608 -0.148520E-08  0.439E-05   11.46      39.9  T
   3  -3478.9284608 -0.150067E-10  0.111E-05   11.46     158.3  T
     SCC iter.                  ...        2 min, 50.640 sec
     gradient                   ...        3 min, 36.386 sec
 * total energy  : -3427.6198713 Eh     change    :  -0.2516666E-05 Eh
   gradient norm :     0.0039565 Eh/a0  converged?    E=T G=F D=T
   time step     :     0.1512500 fs     power     :   0.2117442E-09
   step length   :     0.0006143 a0     speed     :   0.9824416E-04

........................................................................
.............................. CYCLE   14 ..............................
........................................................................

 iter      E             dE          RMSdq      gap      omega  full diag
   1  -3478.9276685 -0.347893E+04  0.945E-05   11.46       0.0  T
   2  -3478.9276685 -0.232285E-08  0.552E-05   11.46      31.7  T
   3  -3478.9276685 -0.118234E-10  0.137E-05   11.46     128.0  T
     SCC iter.                  ...        2 min, 52.680 sec
     gradient                   ...        3 min, 37.730 sec
 * total energy  : -3427.6198742 Eh     change    :  -0.2914883E-05 Eh
   gradient norm :     0.0035985 Eh/a0  converged?    E=T G=F D=T
   time step     :     0.1663750 fs     power     :   0.2197793E-09
   step length   :     0.0007775 a0     speed     :   0.1130376E-03

........................................................................
.............................. CYCLE   15 ..............................
........................................................................

 iter      E             dE          RMSdq      gap      omega  full diag
   1  -3478.9267314 -0.347893E+04  0.116E-04   11.46       0.0  T
   2  -3478.9267314 -0.336513E-08  0.679E-05   11.46      25.8  T
   3  -3478.9267314 -0.754881E-10  0.164E-05   11.46     106.8  T
     SCC iter.                  ...        2 min, 45.198 sec
     gradient                   ...        3 min, 37.335 sec
 * total energy  : -3427.6198774 Eh     change    :  -0.3216967E-05 Eh
   gradient norm :     0.0032023 Eh/a0  converged?    E=T G=F D=T
   time step     :     0.1830125 fs     power     :   0.2167952E-09
   step length   :     0.0009659 a0     speed     :   0.1276595E-03

........................................................................
.............................. CYCLE   16 ..............................
........................................................................

 iter      E             dE          RMSdq      gap      omega  full diag
   1  -3478.9256701 -0.347893E+04  0.140E-04   11.46       0.0  T
   2  -3478.9256701 -0.454520E-08  0.817E-05   11.46      21.4  T
   3  -3478.9256701 -0.125965E-09  0.190E-05   11.46      92.3  T
     SCC iter.                  ...        2 min, 48.246 sec
     gradient                   ...        3 min, 37.837 sec
 * total energy  : -3427.6198808 Eh     change    :  -0.3375215E-05 Eh
   gradient norm :     0.0028088 Eh/a0  converged?    E=T G=F D=F
   time step     :     0.2013138 fs     power     :   0.2018705E-09
   step length   :     0.0011780 a0     speed     :   0.1415469E-03

........................................................................
.............................. CYCLE   17 ..............................
........................................................................

 iter      E             dE          RMSdq      gap      omega  full diag
   1  -3478.9245414 -0.347892E+04  0.163E-04   11.46       0.0  T
   2  -3478.9245414 -0.557884E-08  0.957E-05   11.46      18.3  T
   3  -3478.9245414 -0.146429E-09  0.209E-05   11.46      83.9  T
     SCC iter.                  ...        3 min,  0.649 sec
     gradient                   ...        3 min, 36.889 sec
 * total energy  : -3427.6198842 Eh     change    :  -0.3358324E-05 Eh
   gradient norm :     0.0024943 Eh/a0  converged?    E=T G=F D=F
   time step     :     0.2214451 fs     power     :   0.1768812E-09
   step length   :     0.0014093 a0     speed     :   0.1539425E-03

........................................................................
.............................. CYCLE   18 ..............................
........................................................................

 iter      E             dE          RMSdq      gap      omega  full diag
   1  -3478.9234568 -0.347892E+04  0.184E-04   11.46       0.0  T
   2  -3478.9234568 -0.614136E-08  0.109E-04   11.46      16.1  T
   3  -3478.9234568 -0.178716E-09  0.214E-05   11.46      81.9  T
     SCC iter.                  ...        2 min, 50.311 sec
     gradient                   ...        3 min, 35.376 sec
 * total energy  : -3427.6198873 Eh     change    :  -0.3184288E-05 Eh
   gradient norm :     0.0023538 Eh/a0  converged?    E=T G=F D=F
   time step     :     0.2435896 fs     power     :   0.1480483E-09
   step length   :     0.0016503 a0     speed     :   0.1638790E-03

........................................................................
.............................. CYCLE   19 ..............................
........................................................................

 iter      E             dE          RMSdq      gap      omega  full diag
   1  -3478.9225885 -0.347892E+04  0.201E-04   11.46       0.0  T
   2  -3478.9225885 -0.564160E-08  0.119E-04   11.46      14.8  T
   3  -3478.9225885 -0.155069E-09  0.198E-05   11.46      88.5  T
     SCC iter.                  ...        2 min, 51.955 sec
     gradient                   ...        3 min, 41.282 sec
 * total energy  : -3427.6198904 Eh     change    :  -0.3013728E-05 Eh
   gradient norm :     0.0024146 Eh/a0  converged?    E=T G=F D=F
   time step     :     0.2679486 fs     power     :   0.1255231E-09
   step length   :     0.0018892 a0     speed     :   0.1705474E-03

........................................................................
.............................. CYCLE   20 ..............................
........................................................................

 iter      E             dE          RMSdq      gap      omega  full diag
   1  -3478.9221409 -0.347892E+04  0.213E-04   11.46       0.0  T
   2  -3478.9221409 -0.419277E-08  0.126E-04   11.46      13.9  T
   3  -3478.9221409 -0.141881E-09  0.165E-05   11.46     106.0  T
     SCC iter.                  ...        2 min, 57.678 sec
     gradient                   ...        3 min, 36.452 sec
 * total energy  : -3427.6198934 Eh     change    :  -0.3053079E-05 Eh
   gradient norm :     0.0025716 Eh/a0  converged?    E=T G=F D=F
   time step     :     0.2947435 fs     power     :   0.1184182E-09
   step length   :     0.0021257 a0     speed     :   0.1744469E-03
 * RMSD in coord.:     0.0005424 a0     energy gain  -0.2884856E-03 Eh

........................................................................
.............................. CYCLE   21 ..............................
........................................................................

 iter      E             dE          RMSdq      gap      omega  full diag
   1  -3478.9222331 -0.347892E+04  0.171E-04   11.46       0.0  T
   2  -3478.9222331 -0.150567E-08  0.101E-04   11.46      17.4  T
   3  -3478.9222331 -0.782165E-10  0.105E-05   11.46     167.3  T
     SCC iter.                  ...        2 min, 52.347 sec
     gradient                   ...        3 min, 43.936 sec
 * total energy  : -3427.6198961 Eh     change    :  -0.2648575E-05 Eh
   gradient norm :     0.0026438 Eh/a0  converged?    E=T G=F D=F
   time step     :     0.2500000 fs     power     :   0.1296482E-09
   step length   :     0.0018054 a0     speed     :   0.1746827E-03

........................................................................
.............................. CYCLE   22 ..............................
........................................................................

 iter      E             dE          RMSdq      gap      omega  full diag
   1  -3478.9227826 -0.347892E+04  0.165E-04   11.46       0.0  T
   2  -3478.9227826 -0.108594E-08  0.968E-05   11.46      18.1  T
   3  -3478.9227826 -0.568434E-10  0.101E-05   11.46     173.2  T
     SCC iter.                  ...        2 min, 54.348 sec
     gradient                   ...        3 min, 36.472 sec
 * total energy  : -3427.6198990 Eh     change    :  -0.2934689E-05 Eh
   gradient norm :     0.0025884 Eh/a0  converged?    E=T G=F D=F
   time step     :     0.2500000 fs     power     :   0.1462276E-09
   step length   :     0.0018195 a0     speed     :   0.1760470E-03

........................................................................
.............................. CYCLE   23 ..............................
........................................................................

 iter      E             dE          RMSdq      gap      omega  full diag
   1  -3478.9237438 -0.347892E+04  0.165E-04   11.46       0.0  T
   2  -3478.9237438 -0.154887E-08  0.958E-05   11.46      18.3  T
   3  -3478.9237438 -0.600267E-10  0.114E-05   11.46     154.3  T
     SCC iter.                  ...        2 min, 53.897 sec
     gradient                   ...        3 min, 41.919 sec
 * total energy  : -3427.6199021 Eh     change    :  -0.3141621E-05 Eh
   gradient norm :     0.0023942 Eh/a0  converged?    E=T G=F D=F
   time step     :     0.2500000 fs     power     :   0.1589682E-09
   step length   :     0.0018526 a0     speed     :   0.1792474E-03

........................................................................
.............................. CYCLE   24 ..............................
........................................................................

 iter      E             dE          RMSdq      gap      omega  full diag
   1  -3478.9250478 -0.347893E+04  0.169E-04   11.46       0.0  T
   2  -3478.9250478 -0.254022E-08  0.974E-05   11.46      18.0  T
   3  -3478.9250478 -0.654836E-10  0.135E-05   11.46     129.8  T
     SCC iter.                  ...        2 min, 52.887 sec
     gradient                   ...        3 min, 36.522 sec
 * total energy  : -3427.6199054 Eh     change    :  -0.3250273E-05 Eh
   gradient norm :     0.0020844 Eh/a0  converged?    E=T G=F D=F
   time step     :     0.2500000 fs     power     :   0.1610110E-09
   step length   :     0.0019024 a0     speed     :   0.1840644E-03

........................................................................
.............................. CYCLE   25 ..............................
........................................................................

 iter      E             dE          RMSdq      gap      omega  full diag
   1  -3478.9266029 -0.347893E+04  0.174E-04   11.46       0.0  T
   2  -3478.9266029 -0.365253E-08  0.998E-05   11.46      17.5  T
   3  -3478.9266029 -0.791260E-10  0.159E-05   11.46     110.0  T
     SCC iter.                  ...        2 min, 50.347 sec
     gradient                   ...        3 min, 36.911 sec
 * total energy  : -3427.6199085 Eh     change    :  -0.3094760E-05 Eh
   gradient norm :     0.0017174 Eh/a0  converged?    E=T G=F D=F
   time step     :     0.2500000 fs     power     :   0.1494853E-09
   step length   :     0.0019615 a0     speed     :   0.1897809E-03

........................................................................
.............................. CYCLE   26 ..............................
........................................................................

 iter      E             dE          RMSdq      gap      omega  full diag
   1  -3478.9284651 -0.347893E+04  0.195E-04   11.46       0.0  T
   2  -3478.9284651 -0.555019E-08  0.112E-04   11.46      15.7  T
   3  -3478.9284651 -0.178716E-09  0.197E-05   11.46      88.9  T
     SCC iter.                  ...        2 min, 51.091 sec
     gradient                   ...        3 min, 37.154 sec
 * total energy  : -3427.6199114 Eh     change    :  -0.2961653E-05 Eh
   gradient norm :     0.0013792 Eh/a0  converged?    E=T G=F D=F
   time step     :     0.2750000 fs     power     :   0.1234870E-09
   step length   :     0.0022317 a0     speed     :   0.1963017E-03

........................................................................
.............................. CYCLE   27 ..............................
........................................................................

 iter      E             dE          RMSdq      gap      omega  full diag
   1  -3478.9304410 -0.347893E+04  0.210E-04   11.46       0.0  T
   2  -3478.9304410 -0.661112E-08  0.120E-04   11.46      14.6  T
   3  -3478.9304410 -0.178716E-09  0.213E-05   11.46      82.1  T
     SCC iter.                  ...        2 min, 50.964 sec
     gradient                   ...        3 min, 39.180 sec
 * total energy  : -3427.6199140 Eh     change    :  -0.2572902E-05 Eh
   gradient norm :     0.0013033 Eh/a0  converged?    E=T G=F D=F
   time step     :     0.3025000 fs     power     :   0.9057209E-10
   step length   :     0.0025203 a0     speed     :   0.2015333E-03

........................................................................
.............................. CYCLE   28 ..............................
........................................................................

 iter      E             dE          RMSdq      gap      omega  full diag
   1  -3478.9321691 -0.347893E+04  0.210E-04   11.46       0.0  T
   2  -3478.9321691 -0.538148E-08  0.121E-04   11.46      14.5  T
   3  -3478.9321691 -0.171894E-09  0.185E-05   11.46      94.5  T
     SCC iter.                  ...        2 min, 54.903 sec
     gradient                   ...        3 min, 44.276 sec
 * total energy  : -3427.6199162 Eh     change    :  -0.2143946E-05 Eh
   gradient norm :     0.0015264 Eh/a0  converged?    E=T G=F D=F
   time step     :     0.3327500 fs     power     :   0.6806851E-10
   step length   :     0.0027746 a0     speed     :   0.2016965E-03

........................................................................
.............................. CYCLE   29 ..............................
........................................................................

 iter      E             dE          RMSdq      gap      omega  full diag
   1  -3478.9333073 -0.347893E+04  0.198E-04   11.46       0.0  T
   2  -3478.9333073 -0.268165E-08  0.114E-04   11.46      15.4  T
   3  -3478.9333073 -0.220552E-09  0.126E-05   11.46     139.4  T
     SCC iter.                  ...        2 min, 50.711 sec
     gradient                   ...        3 min, 40.654 sec
 * total energy  : -3427.6199183 Eh     change    :  -0.2136866E-05 Eh
   gradient norm :     0.0017583 Eh/a0  converged?    E=T G=F D=F
   time step     :     0.3660250 fs     power     :   0.6662138E-10
   step length   :     0.0029861 a0     speed     :   0.1973385E-03

........................................................................
.............................. CYCLE   30 ..............................
........................................................................

 iter      E             dE          RMSdq      gap      omega  full diag
   1  -3478.9336312 -0.347893E+04  0.186E-04   11.46       0.0  T
   2  -3478.9336312 -0.103773E-08  0.108E-04   11.46      16.2  T
   3  -3478.9336312 -0.200998E-09  0.870E-06   11.46     201.3  T
     SCC iter.                  ...        2 min, 48.733 sec
     gradient                   ...        3 min, 38.196 sec
 * total energy  : -3427.6199209 Eh     change    :  -0.2654259E-05 Eh
   gradient norm :     0.0017835 Eh/a0  converged?    E=T G=F D=F
   time step     :     0.4026275 fs     power     :   0.7973634E-10
   step length   :     0.0032198 a0     speed     :   0.1934371E-03

........................................................................
.............................. CYCLE   31 ..............................
........................................................................

 iter      E             dE          RMSdq      gap      omega  full diag
   1  -3478.9330389 -0.347893E+04  0.187E-04   11.46       0.0  T
   2  -3478.9330389 -0.230875E-08  0.110E-04   11.46      15.9  T
   3  -3478.9330389 -0.178716E-09  0.111E-05   11.46     157.7  T
     SCC iter.                  ...        2 min, 47.334 sec
     gradient                   ...        3 min, 42.920 sec
 * total energy  : -3427.6199243 Eh     change    :  -0.3321642E-05 Eh
   gradient norm :     0.0015525 Eh/a0  converged?    E=T G=F D=F
   time step     :     0.4428903 fs     power     :   0.9039347E-10
   step length   :     0.0035368 a0     speed     :   0.1931666E-03

........................................................................
.............................. CYCLE   32 ..............................
........................................................................

 iter      E             dE          RMSdq      gap      omega  full diag
   1  -3478.9316315 -0.347893E+04  0.201E-04   11.46       0.0  T
   2  -3478.9316315 -0.597129E-08  0.119E-04   11.46      14.8  T
   3  -3478.9316315 -0.238288E-09  0.190E-05   11.46      92.1  T
     SCC iter.                  ...        2 min, 48.790 sec
     gradient                   ...        3 min, 40.133 sec
 * total energy  : -3427.6199279 Eh     change    :  -0.3595642E-05 Eh
   gradient norm :     0.0012492 Eh/a0  converged?    E=T G=F D=F
   time step     :     0.4871793 fs     power     :   0.8409257E-10
   step length   :     0.0039602 a0     speed     :   0.1966276E-03

........................................................................
.............................. CYCLE   33 ..............................
........................................................................

 iter      E             dE          RMSdq      gap      omega  full diag
   1  -3478.9299269 -0.347893E+04  0.203E-04   11.46       0.0  T
   2  -3478.9299269 -0.805721E-08  0.120E-04   11.46      14.6  T
   3  -3478.9299269 -0.221007E-09  0.230E-05   11.46      76.1  T
     SCC iter.                  ...        2 min, 51.538 sec
     gradient                   ...        3 min, 42.927 sec
 * total energy  : -3427.6199313 Eh     change    :  -0.3401532E-05 Eh
   gradient norm :     0.0013101 Eh/a0  converged?    E=T G=F D=F
   time step     :     0.5358972 fs     power     :   0.6756714E-10
   step length   :     0.0044515 a0     speed     :   0.2009265E-03

........................................................................
.............................. CYCLE   34 ..............................
........................................................................

 iter      E             dE          RMSdq      gap      omega  full diag
   1  -3478.9288743 -0.347893E+04  0.179E-04   11.46       0.0  T
   2  -3478.9288743 -0.381942E-08  0.106E-04   11.46      16.5  T
   3  -3478.9288743 -0.786713E-10  0.134E-05   11.46     131.1  T
     SCC iter.                  ...        2 min, 50.754 sec
     gradient                   ...        3 min, 41.483 sec
 * total energy  : -3427.6199347 Eh     change    :  -0.3479332E-05 Eh
   gradient norm :     0.0015669 Eh/a0  converged?    E=T G=F D=F
   time step     :     0.5894869 fs     power     :   0.6807813E-10
   step length   :     0.0049176 a0     speed     :   0.2017880E-03

........................................................................
.............................. CYCLE   35 ..............................
........................................................................

 iter      E             dE          RMSdq      gap      omega  full diag
   1  -3478.9291839 -0.347893E+04  0.182E-04   11.46       0.0  T
   2  -3478.9291839 -0.722139E-09  0.107E-04   11.46      16.4  T
   3  -3478.9291839 -0.140972E-09  0.630E-06   11.46     278.2  T
     SCC iter.                  ...        2 min, 49.982 sec
     gradient                   ...        3 min, 36.441 sec
 * total energy  : -3427.6199392 Eh     change    :  -0.4473676E-05 Eh
   gradient norm :     0.0015015 Eh/a0  converged?    E=T G=F D=F
   time step     :     0.6484356 fs     power     :   0.8585863E-10
   step length   :     0.0054485 a0     speed     :   0.2032456E-03

........................................................................
.............................. CYCLE   36 ..............................
........................................................................

 iter      E             dE          RMSdq      gap      omega  full diag
   1  -3478.9310222 -0.347893E+04  0.243E-04   11.46       0.0  T
   2  -3478.9310222 -0.727869E-08  0.141E-04   11.46      12.5  T
   3  -3478.9310222 -0.227374E-09  0.218E-05   11.46      80.4  T
     SCC iter.                  ...        2 min, 47.922 sec
     gradient                   ...        3 min, 46.204 sec
 * total energy  : -3427.6199447 Eh     change    :  -0.5466070E-05 Eh
   gradient norm :     0.0011375 Eh/a0  converged?    E=F G=F D=F
   time step     :     0.7132792 fs     power     :   0.8969572E-10
   step length   :     0.0061915 a0     speed     :   0.2099684E-03

........................................................................
.............................. CYCLE   37 ..............................
........................................................................

 iter      E             dE          RMSdq      gap      omega  full diag
   1  -3478.9335028 -0.347893E+04  0.280E-04   11.46       0.0  T
   2  -3478.9335028 -0.137711E-07  0.163E-04   11.46      10.8  T
   3  -3478.9335028 -0.372438E-09  0.315E-05   11.46      55.6  T
     SCC iter.                  ...        2 min, 46.163 sec
     gradient                   ...        3 min, 39.895 sec
 * total energy  : -3427.6199500 Eh     change    :  -0.5335559E-05 Eh
   gradient norm :     0.0012277 Eh/a0  converged?    E=F G=F D=F
   time step     :     0.7846071 fs     power     :   0.7389831E-10
   step length   :     0.0071278 a0     speed     :   0.2197456E-03

........................................................................
.............................. CYCLE   38 ..............................
........................................................................

 iter      E             dE          RMSdq      gap      omega  full diag
   1  -3478.9346394 -0.347893E+04  0.243E-04   11.46       0.0  T
   2  -3478.9346394 -0.624232E-08  0.143E-04   11.46      12.2  T
   3  -3478.9346394 -0.351974E-09  0.217E-05   11.46      80.8  T
     SCC iter.                  ...        3 min,  1.411 sec
     gradient                   ...        3 min, 41.433 sec
 * total energy  : -3427.6199558 Eh     change    :  -0.5756466E-05 Eh
   gradient norm :     0.0013624 Eh/a0  converged?    E=F G=F D=F
   time step     :     0.8630678 fs     power     :   0.7987478E-10
   step length   :     0.0080342 a0     speed     :   0.2251703E-03

........................................................................
.............................. CYCLE   39 ..............................
........................................................................

 iter      E             dE          RMSdq      gap      omega  full diag
   1  -3478.9336056 -0.347893E+04  0.272E-04   11.46       0.0  T
   2  -3478.9336056 -0.899081E-08  0.159E-04   11.46      11.0  T
   3  -3478.9336056 -0.399268E-09  0.276E-05   11.46      63.5  T
     SCC iter.                  ...        2 min, 52.723 sec
     gradient                   ...        3 min, 36.090 sec
 * total energy  : -3427.6199628 Eh     change    :  -0.7026936E-05 Eh
   gradient norm :     0.0010544 Eh/a0  converged?    E=F G=F D=F
   time step     :     0.9493746 fs     power     :   0.8571849E-10
   step length   :     0.0091354 a0     speed     :   0.2327582E-03

........................................................................
.............................. CYCLE   40 ..............................
........................................................................

 iter      E             dE          RMSdq      gap      omega  full diag
   1  -3478.9320560 -0.347893E+04  0.301E-04   11.46       0.0  T
   2  -3478.9320561 -0.106015E-07  0.175E-04   11.46      10.0  T
   3  -3478.9320561 -0.346972E-09  0.266E-05   11.46      65.9  T
     SCC iter.                  ...        2 min, 53.624 sec
     gradient                   ...        3 min, 40.717 sec
 * total energy  : -3427.6199699 Eh     change    :  -0.7081499E-05 Eh
   gradient norm :     0.0012879 Eh/a0  converged?    E=F G=F D=F
   time step     :     1.0443120 fs     power     :   0.7543671E-10
   step length   :     0.0105263 a0     speed     :   0.2438144E-03

........................................................................
.............................. CYCLE   41 ..............................
........................................................................

 iter      E             dE          RMSdq      gap      omega  full diag
   1  -3478.9330994 -0.347893E+04  0.300E-04   11.46       0.0  T
   2  -3478.9330994 -0.452701E-08  0.175E-04   11.46      10.0  T
   3  -3478.9330994 -0.326963E-09  0.131E-05   11.46     133.7  T
     SCC iter.                  ...        2 min, 50.973 sec
     gradient                   ...        3 min, 37.635 sec
 * total energy  : -3427.6199786 Eh     change    :  -0.8694389E-05 Eh
   gradient norm :     0.0011615 Eh/a0  converged?    E=F G=F D=F
   time step     :     1.1487432 fs     power     :   0.9231770E-10
   step length   :     0.0119460 a0     speed     :   0.2515436E-03

........................................................................
.............................. CYCLE   42 ..............................
........................................................................

 iter      E             dE          RMSdq      gap      omega  full diag
   1  -3478.9356162 -0.347894E+04  0.378E-04   11.46       0.0  T
   2  -3478.9356163 -0.198970E-07  0.220E-04   11.46       8.0  T
   3  -3478.9356163 -0.663931E-09  0.348E-05   11.46      50.4  T
     SCC iter.                  ...        2 min, 48.681 sec
     gradient                   ...        3 min, 37.083 sec
 * total energy  : -3427.6199883 Eh     change    :  -0.9706034E-05 Eh
   gradient norm :     0.0012274 Eh/a0  converged?    E=F G=F D=F
   time step     :     1.2500000 fs     power     :   0.8681318E-10
   step length   :     0.0137034 a0     speed     :   0.2651754E-03
 * RMSD in coord.:     0.0017363 a0     energy gain  -0.9487832E-04 Eh

........................................................................
.............................. CYCLE   43 ..............................
........................................................................

 iter      E             dE          RMSdq      gap      omega  full diag
   1  -3478.9356555 -0.347894E+04  0.568E-05   11.46       0.0  T
   2  -3478.9356555 -0.791260E-10  0.335E-05   11.46      52.3  T
   3  -3478.9356555 -0.700311E-10  0.214E-06   11.46     818.9  T
     SCC iter.                  ...        2 min, 56.639 sec
     gradient                   ...        3 min, 38.715 sec
 * total energy  : -3427.6199902 Eh     change    :  -0.1881967E-05 Eh
   gradient norm :     0.0012467 Eh/a0  converged?    E=T G=F D=F
   time step     :     0.2500000 fs     power     :   0.9823900E-10
   step length   :     0.0026521 a0     speed     :   0.2566079E-03

........................................................................
.............................. CYCLE   44 ..............................
........................................................................

 iter      E             dE          RMSdq      gap      omega  full diag
   1  -3478.9352778 -0.347894E+04  0.572E-05   11.46       0.0  T
   2  -3478.9352778 -0.350610E-09  0.333E-05   11.46      52.6  T
   3  -3478.9352778 -0.268301E-10  0.472E-06   11.46     370.9  T
     SCC iter.                  ...        2 min, 53.984 sec
     gradient                   ...        3 min, 36.761 sec
 * total energy  : -3427.6199922 Eh     change    :  -0.2052884E-05 Eh
   gradient norm :     0.0011555 Eh/a0  converged?    E=T G=F D=F
   time step     :     0.2500000 fs     power     :   0.1074551E-09
   step length   :     0.0025915 a0     speed     :   0.2507391E-03

........................................................................
.............................. CYCLE   45 ..............................
........................................................................

 iter      E             dE          RMSdq      gap      omega  full diag
   1  -3478.9345814 -0.347893E+04  0.688E-05   11.46       0.0  T
   2  -3478.9345814 -0.977707E-09  0.399E-05   11.46      43.9  T
   3  -3478.9345814  0.109139E-10  0.845E-06   11.46     207.4  T
     SCC iter.                  ...        2 min, 49.924 sec
     gradient                   ...        3 min, 38.091 sec
 * total energy  : -3427.6199943 Eh     change    :  -0.2129081E-05 Eh
   gradient norm :     0.0010118 Eh/a0  converged?    E=T G=F D=F
   time step     :     0.2500000 fs     power     :   0.1097972E-09
   step length   :     0.0025646 a0     speed     :   0.2481432E-03

........................................................................
.............................. CYCLE   46 ..............................
........................................................................

 iter      E             dE          RMSdq      gap      omega  full diag
   1  -3478.9337205 -0.347893E+04  0.776E-05   11.46       0.0  T
   2  -3478.9337205 -0.147111E-08  0.450E-05   11.46      38.9  T
   3  -3478.9337205  0.145519E-10  0.108E-05   11.46     162.8  T
     SCC iter.                  ...        2 min, 52.896 sec
     gradient                   ...        3 min, 38.236 sec
 * total energy  : -3427.6199964 Eh     change    :  -0.2090033E-05 Eh
   gradient norm :     0.0009181 Eh/a0  converged?    E=T G=T D=F
   time step     :     0.2500000 fs     power     :   0.1059104E-09
   step length   :     0.0025670 a0     speed     :   0.2483688E-03

   *** GEOMETRY OPTIMIZATION CONVERGED AFTER 46 CYCLES ***

------------------------------------------------------------------------
 total energy gain   :        -0.0003915 Eh       -0.2457 kcal/mol
 total RMSD          :         0.0021248 a0        0.0011 Å
 total power (kW/mol):        -0.0223463 (step)   -0.0001 (real)
------------------------------------------------------------------------

 FIRE (total)                  0 d,  5 h, 14 min,  5.545 sec
 setup                          ...        0 min,  0.120 sec (  0.001%)
 velocities                     ...        0 min,  0.003 sec (  0.000%)
 propagation                    ...        0 min,  0.005 sec (  0.000%)
 singlepoint calculation        ...      314 min,  4.591 sec ( 99.995%)
 log and printout               ...        0 min,  0.762 sec (  0.004%)
 preconditioner                 ...        0 min,  0.000 sec (  0.000%)
 model hessian                  ...        0 min,  0.000 sec (  0.000%)
 hessian update                 ...        0 min,  0.000 sec (  0.000%)

================
 final structure:
================
3258
 xtb: 6.6.1 (8d0f1dd)
C          111.57671316883290       94.38838488012979      101.79061245478056
C          112.61059199005676       94.15133394337347      102.88414083579667
C          114.03756014492562       94.34909437222294      102.37827787153427
C          115.06749592070543       94.16713832168959      103.49022005570527
C          116.49574702651252       94.42299567279551      103.01640526105510
C          117.48477784250832       94.45234425323873      104.17950234331141
C          118.91954840790210       94.67196485131647      103.70762046531166
C          119.89476637607206       94.84469592119073      104.86874028658363
C          121.33604853005555       95.00643430988374      104.39119903641296
C          122.29279218323485       95.27630403123226      105.54898558463371
C          123.74799518758425       95.38944554379771      105.09953178154545
C          124.66932446555400       95.71260066950028      106.27268355185414
C          126.12565086535506       95.90126263511803      105.85621393644965
C          127.00129251013962       96.22727082246072      107.06444990475897
C          128.47347129623836       96.46322680964636      106.72314073477732
C          128.74743845967265       97.76016594025781      105.95944612275866
C          128.55129298768759       99.02178212023414      106.79899692742046
C          128.78674989011134      100.28051658878819      105.96621270575491
C          128.51908022348945      101.56420141696114      106.74974300193985
C          128.80361603767184      102.83350187037331      105.94448799809965
C          127.90075349547821      102.97907888882388      104.72138883444333
C          128.12103588206224      104.29743058550834      103.98360036196374
C          127.34974949244140      104.33507144026613      102.66582073740300
C          127.58582441962824      105.63032249535900      101.89280839249778
C          127.00239641545072      105.60432923287826      100.47942795107700
C          125.47736862740703      105.64338584472655      100.45636922969327
C          124.91749795098777      105.63345960965685       99.03510013953012
C          123.39517529667259      105.73465285645983       99.03932052426812
C          122.76958810385028      105.59820181816738       97.65321142690189
C          121.25284698621554      105.75787139599987       97.72427782233156
C          120.54493105426823      105.48252245322546       96.40016145286006
C          119.03381927764865      105.65321692117065       96.54412756601836
C          118.25856931522223      105.24682595555979       95.29363784053420
C          116.75468499653664      105.45015223454739       95.47424412626577
C          115.94182437820085      104.82336827695731       94.34349105334358
C          114.44620970173587      105.09974398016708       94.48842226017139
C          113.61426752098222      104.26720363109894       93.51513957908610
C          112.11882791329292      104.58990868806634       93.56931557129448
C          111.75363915702519      105.84105224282494       92.77370726894328
C          110.25077385208762      106.12807166907193       92.75524088556648
C          109.72333399920494      106.67903523310645       94.07847005607087
C          108.26128382614027      107.10572624313443       93.96612923290661
C          107.69169079985092      107.72513213348604       95.24476863346337
C          108.44067512838463      108.95739821032835       95.76062861103804
C          108.59051096243543      110.05979758564742       94.71365477956297
C          109.13983671233531      111.36726059193192       95.28712551544410
C          110.53216846181084      111.22139728999397       95.90074225369837
C          111.14062722889652      112.57297026831893       96.27360521095584
C          112.41135212372807      112.42137668397119       97.10593457282280
C          112.99571721828180      113.76376042869977       97.53952856981817
C          114.22479149651114      113.58056079520026       98.42688562827853
C          114.80199192968956      114.90614434775637       98.91821783204540
C          115.98784891385193      114.68868545107638       99.85475253007708
C          116.55192895884547      115.99518824230563      100.40887328294757
C          117.66645620510884      115.73760307865213      101.42001633352741
C          118.26022037652506      117.02156693868807      101.99519057953299
C          119.31098332066027      116.71315123758477      103.05923677161185
C          119.84930468539754      117.95119359400202      103.77529250849980
C          121.02509954116358      117.57294062006315      104.67375482475069
C          121.53256141346259      118.69758544814556      105.57542736322793
C          120.62287702012652      118.96108986071924      106.77523597725390
C          121.32163412120903      119.80612836968739      107.83853339782817
C          120.54255813714937      119.89903991919053      109.15053087967183
C          119.30466572905362      120.78944114678120      109.06822860340314
C          118.59935903684033      120.87057926224438      110.42025602888009
C          117.51172687402038      121.94137605558400      110.48938385318584
C          116.30549558935971      121.66380506394017      109.59464088727724
C          115.18275614497092      122.66201348861847      109.86964002924124
C          113.96906951136118      122.49784475262562      108.95517832609316
C          113.23306876291902      121.17392289288759      109.15454328003534
C          111.87658300519803      121.17456170204255      108.45327698298260
C          111.09968163741669      119.86962739464722      108.64591377195272
C          111.55675294696020      118.76787653854115      107.69442308663626
C          110.79114099199261      117.46294184254980      107.88487627693897
C          111.01315549847649      116.50814098112775      106.71484728692327
C          110.28273974725522      115.17614320025106      106.88798652551137
C          110.93184198361190      114.23813665107220      107.90580895693694
C          112.24404316554524      113.64258362937187      107.40326003975434
C          112.82448186418824      112.58453943946209      108.34018431729319
C          113.38344114829958      113.16885789178527      109.63490954542259
C          114.10103173743839      112.10617301699935      110.46319735476646
C          114.90062466687237      112.67839275674629      111.63229657427414
C          114.04674496595068      113.25395478220760      112.75964191389421
C          114.89144308228715      113.93710279898151      113.83843717707995
C          115.67473580328230      112.95135365365489      114.70193810489604
C          116.61176936908898      113.65872756695563      115.67946712013513
C          117.26327026440121      112.70539932002995      116.68335457671725
C          118.19675357948121      111.69579715741064      116.02071829944950
C          118.75059663260160      110.67338532246639      117.00994121080736
C          119.53611706606107      109.54846844967690      116.33148627874320
C          118.71479873664705      108.82627113693361      115.26235899584580
C          119.20584995661784      107.41156958761802      114.96962914267785
C          118.35134164098842      106.75883945538490      113.88670087495066
C          118.65739893142548      105.27908264144452      113.67472696523208
C          117.70406456912350      104.67428486576051      112.64668209754753
C          117.86372500998924      103.16399954672050      112.50857087996467
C          116.88109608304592      102.54068196027468      111.51445141273973
C          115.41318679491498      102.78317687974787      111.86816828755458
C          114.47461406263160      101.89195515706123      111.05748868120945
C          112.99352771048292      102.21206383704244      111.27304598185239
C          112.59161714439979      103.56276068921231      110.68387993947898
C          111.07874978729271      103.75790975687046      110.59618966691242
C          110.74327721381582      105.03676654898233      109.83307458501704
C          109.24494320920377      105.27635154876731      109.66613823037873
C          108.98236197857278      106.52794439267926      108.83162559361956
C          107.49731372435646      106.82224236887573      108.63668185537843
C          107.28464397940330      108.09142814677726      107.81444193129362
C          105.80884688918240      108.41681940466255      107.59835214172621
C          105.62490442933685      109.72563421752339      106.83362869896918
C          104.15537271103192      110.06518338027116      106.59752308863756
C          103.98788301819731      111.41471261490584      105.90347871960471
C          102.52391690502499      111.75922878034208      105.64338735429207
C          102.36597118905564      113.13278340644491      104.99664549108530
C          100.90948455680137      113.45990764223886      104.68137774215820
C          100.74856520433070      114.84164563738371      104.05369866289354
C           99.29701121889831      115.13608945737963      103.68726024931384
C           99.13111891250625      116.49112032273072      103.00485971641346
C           97.67449742334347      116.77475642236560      102.64693749240939
C           97.51877059235574      118.07533886970657      101.86388724588905
C           96.06268621173439      118.37924981784531      101.53520552113211
H           97.93565834870597      118.89624531730708      102.45129326652621
H           98.09283928440691      118.00922528611677      100.93648866646744
H           97.28558042085322      115.94503694574551      102.05194443326920
H           97.08033417918789      116.82887009144630      103.56177012902711
H           99.50598783579751      117.27960699110157      103.66263333090714
H           99.73601361298107      116.51435036387200      102.09405525387004
H           98.93321914046685      114.35232125802342      103.01883978945251
H           98.68305833585687      115.11012634512649      104.58981379566283
H          101.11338786136272      115.60361285539514      104.74674018815232
H          101.36516775051621      114.90074881553508      103.15323927189499
H          100.51512681439809      112.70772874214668      103.99434432170248
H          100.31818652539593      113.40951895360419      105.59781141968627
H          102.77411171404145      113.89652623872038      105.66309784768758
H          102.94643105317441      113.16074838578999      104.07153264573520
H          102.08499423149372      111.00046207117705      104.99069147687320
H          101.97150291716693      111.73713606414262      106.58492779390222
H          104.43781872981688      112.19603407020180      106.52148572919845
H          104.52606735701667      111.39813723008913      104.95286397291017
H          103.69597478273552      109.28350545182498      105.98682122004861
H          103.62810971628724      110.08209998209931      107.55371644436299
H          106.09603095956106      110.53819985168589      107.39273256329234
H          106.13654957712708      109.65381157446065      105.87081989634034
H          105.33435793526967      107.60269193596426      107.04448260863720
H          105.30648449707989      108.48810774050538      108.56550011369811
H          107.76725983923235      108.93189312243980      108.31963572758508
H          107.77303898984799      107.97502123795992      106.84380473224272
H          107.02233728652936      105.97775220972851      108.13116181698011
H          107.01489014799955      106.93299881550122      109.61022345213181
H          109.45848062399232      107.38607974040103      109.31240885303292
H          109.45355900898427      106.40721243347110      107.85302865976287
H          108.79075391027558      104.41164856144758      109.17593192359516
H          108.77510167002571      105.38109175313403      110.64641910250072
H          111.18999078489882      105.89101430972818      110.34754225237951
H          111.20363784333726      104.98318529679713      108.84320144892750
H          110.63137597831863      102.90495592449371      110.07936138236772
H          110.64739294879823      103.79546633039442      111.59885025580181
H          113.02068554664879      104.37171600381896      111.27813064671211
H          113.00993526871761      103.64135250226431      109.67697541699181
H          112.39839799264594      101.43266805316850      110.78916907432411
H          112.75984726524592      102.18723230683743      112.34004335142215
H          114.70820725840528      101.99252283840531      109.99506282721714
H          114.65595372586216      100.85032684909648      111.33361876366709
H          115.25511023447899      102.58280500251740      112.93048280442559
H          115.16638362526813      103.82853738298249      111.68328242828535
H          117.07914781907090      102.93611314476739      110.51581878387937
H          117.05880019406655      101.46305630558901      111.48089016887148
H          118.88422021350819      102.93964385798482      112.18633361772382
H          117.72463584383121      102.70507865393057      113.49111157540851
H          116.68340398905592      104.89874320667904      112.95785543901445
H          117.86846413468959      105.14738816004167      111.67610954137471
H          119.69063986882888      105.15571660639989      113.34464708926642
H          118.54771200755822      104.74890088522305      114.62434627241305
H          117.29956248713036      106.85785040183544      114.16582999478437
H          118.48921781618435      107.29339632524189      112.94368532387830
H          120.25123092312344      107.43552670080155      114.65731457261816
H          119.13994873240161      106.81610701119993      115.88319017378780
H          117.67811663835045      108.76415782508172      115.59831658615286
H          118.72956983456476      109.40048370410724      114.33394994104678
H          120.44991933740118      109.94721301334414      115.88490527898321
H          119.83306465929429      108.82987505900694      117.09762218482166
H          119.39506946054760      111.17563858204437      117.73702513974526
H          117.91950479502417      110.23086109211972      117.56506631029053
H          117.64265686920923      111.16609738063757      115.24794479332391
H          119.02416610563249      112.22322891915992      115.54175415525958
H          117.82368348465468      113.28775313172443      117.41841178545158
H          116.47894623568668      112.16664276226774      117.22241076637960
H          117.38906094144157      114.17961710139372      115.11653807013656
H          116.04309723098645      114.41345902896182      116.22882252921703
H          114.97039824396140      112.33109794776205      115.26054777927671
H          116.25834862550931      112.29452171937676      114.05790778624629
H          115.58575186488190      114.63052288031068      113.35700202266807
H          114.23991844564398      114.52896552961653      114.48684695872190
H          113.35456318249665      113.98610771789741      112.34061603925971
H          113.45079169593309      112.45908554873103      113.21454830915860
H          115.52570109253834      111.87969486593371      112.03650216149748
H          115.56149993260698      113.46213038996120      111.25283928578618
H          113.37821921980060      111.37722109587075      110.83196609139048
H          114.79463359259097      111.57192010229168      109.80784071884497
H          114.09121616788912      113.96479476924284      109.38761706691727
H          112.57421183930163      113.60913718783168      110.21843347254249
H          112.05617554365497      111.84568961712391      108.57606527759529
H          113.63267628107677      112.06538120524155      107.81855381455597
H          112.05982424863426      113.18516982582146      106.42806702270006
H          112.98529496716218      114.43248328889987      107.26337639168236
H          111.09791960479372      114.77047826866038      108.84259214250336
H          110.23978902582317      113.42027650384681      108.11326797771784
H          109.25382473286376      115.38038846560167      107.19589035477830
H          110.23944005380403      114.66571173634367      105.92319920832151
H          110.65036388192235      116.99192211252955      105.80393010434412
H          112.08264642705474      116.33399627090520      106.58536186131921
H          111.10479008067942      116.99193029143332      108.81817047401137
H          109.72292853827815      117.68260069155613      107.96044169594224
H          111.39944247296144      119.10779557533019      106.66992530212279
H          112.62444756043621      118.58042879138773      107.82352012239181
H          111.20431660104664      119.53573438356278      109.68083780754972
H          110.03711044527739      120.05541668957679      108.46829089564594
H          111.28224130381905      122.00257690115812      108.84448783071139
H          112.02214775169830      121.35883634995021      107.38634872212674
H          113.84473193730770      120.35730537577278      108.77088184027106
H          113.08138156947820      121.00301822069373      110.22350650593812
H          113.27502568429520      123.31842254661180      109.15727481175001
H          114.28335666728310      122.58533521077366      107.91251807171081
H          114.86017393987871      122.56065911879050      110.90966806660178
H          115.57756767506199      123.67418647529115      109.74885366626519
H          116.59722291818133      121.73014934120586      108.54495282142506
H          115.94746643597097      120.65002156323956      109.78007316277615
H          117.16520052304676      122.01376259027749      111.52410313131951
H          117.94256500421263      122.90957962200596      110.22395991399443
H          118.16513230230439      119.89584605611732      110.65873254603919
H          119.34640638853827      121.09079465046149      111.18668318771566
H          119.60618943525792      121.79277500846911      108.75773622560881
H          118.61851342041572      120.39830429290438      108.31633049536617
H          120.24655742462518      118.89442374239999      109.46449842297729
H          121.20421191276107      120.30168126087287      109.92185020042372
H          122.29638387469602      119.35712034752764      108.04739408919657
H          121.50375467428900      120.81050429209515      107.44984795401072
H          119.70951304256521      119.45620050603921      106.44558839157916
H          120.33722143560693      118.00459413307728      107.22116507279299
H          122.52082447474315      118.41318270005065      105.94719684815607
H          121.65423922441889      119.61347489286211      104.99365000656596
H          120.73059715941540      116.73020951499765      105.30432966192613
H          121.84553277101340      117.23256341327649      104.03849207410305
H          120.17587808138292      118.69026476900517      103.04031091223469
H          119.05443882228001      118.40246423135792      104.37094529083275
H          118.87471241464257      116.04157265968314      103.80365876995388
H          120.14300763293544      116.18381468152414      102.58912661583568
H          118.71181332729881      117.60943337439709      101.19315622481186
H          117.45867308983971      117.62232159755759      102.43038867582557
H          117.26575615020171      115.13697637226912      102.24097743710203
H          118.45912673420609      115.15507193234743      100.94528884226945
H          116.93563320538985      116.60550421539324       99.58840773468847
H          115.74997329821203      116.55936716619358      100.89180320688909
H          115.66694995254029      114.05918794371692      100.68746876109671
H          116.77651888990087      114.15098337593251       99.32373014257898
H          115.11570750147200      115.50761973303949       98.06221076581643
H          114.02513069679492      115.46403601269948       99.44675372028020
H          113.95123497768000      112.97013732143527       99.29148244452961
H          114.99169141233557      113.03351547892547       97.87407198856998
H          113.26566248977726      114.34866826638705       96.65752339370603
H          112.23542398666356      114.32634778424507       98.08750894445383
H          112.18101054365523      111.83705590002697       98.00012030623144
H          113.15907400328297      111.86668519592655       96.53489799066858
H          111.36153107214929      113.13843245843111       95.36545050928856
H          110.41025865006809      113.14767662855716       96.84699787945388
H          110.46784832954228      110.60325413185546       96.79799043748930
H          111.19125939660543      110.71061656028319       95.19494619854066
H          109.18379430059485      112.10703380954683       94.48352786311484
H          108.44957395728630      111.74751151356577       96.04451823910225
H          109.25669887829342      109.72169828636633       93.91817358550300
H          107.61306417813735      110.25862783777976       94.26629416665179
H          107.89230625261307      109.35553770274448       96.61898756843378
H          109.42566524086601      108.65647334632693       96.11753895014115
H          106.65087061717733      107.99982068752547       95.05181603639987
H          107.69143948989597      106.96882178394638       96.03573710909734
H          108.15814592915459      107.81822427148535       93.14540943082115
H          107.65695825267279      106.23103614226147       93.71073407618928
H          109.82207413824754      105.92680555736386       94.86265964270871
H          110.33362221197470      107.53894196115259       94.35864753751534
H          110.04714500222221      106.86280730998895       91.97149569179922
H          109.70974265234977      105.21506929821973       92.49534220729974
H          112.27736234606259      106.70682874249187       93.18402915982671
H          112.09566266549659      105.70642236491575       91.74420987298812
H          111.55801190732613      103.74659791200045       93.15914444520757
H          111.81675481756947      104.71305183885787       94.61006924992969
H          113.98050224077549      104.42390025242065       92.49773334923552
H          113.76158264145890      103.21222389760197       93.75659519432384
H          114.13736008664524      104.86187649128729       95.51009228641232
H          114.25857056306357      106.16284580334664       94.32695208415770
H          116.29087605600812      105.21051587996821       93.38356048636157
[...]
  3011   6 C     3012   6 C                                       1.5265715
  3012   6 C     3013   6 C                                       1.5264049
  3013   6 C     3014   6 C                                       1.5265582
  3014   6 C     3015   6 C                                       1.5264444
  3015   6 C     3016   6 C                                       1.5237468
  3015   6 C     3017   1 H                                       1.0924420
  3015   6 C     3018   1 H                                       1.0930979
  3014   6 C     3019   1 H                                       1.0922383
  3014   6 C     3020   1 H                                       1.0925218
  3013   6 C     3021   1 H                                       1.0926958
  3013   6 C     3022   1 H                                       1.0920677
  3012   6 C     3023   1 H                                       1.0931110
  3012   6 C     3024   1 H                                       1.0922985
  3011   6 C     3025   1 H                                       1.0926205
  3011   6 C     3026   1 H                                       1.0931845
  3010   6 C     3027   1 H                                       1.0926236
  3010   6 C     3028   1 H                                       1.0923856
  3009   6 C     3029   1 H                                       1.0929120
  3009   6 C     3030   1 H                                       1.0923333
  3008   6 C     3031   1 H                                       1.0931033
  3008   6 C     3032   1 H                                       1.0923524
  3007   6 C     3033   1 H                                       1.0927876
  3007   6 C     3034   1 H                                       1.0938159
  3006   6 C     3035   1 H                                       1.0925145
  3006   6 C     3036   1 H                                       1.0923089
  3005   6 C     3037   1 H                                       1.0925502
  3005   6 C     3038   1 H                                       1.0933982
  3004   6 C     3039   1 H                                       1.0919758
  3004   6 C     3040   1 H                                       1.0924900
  3003   6 C     3041   1 H                                       1.0926839
  3003   6 C     3042   1 H                                       1.0927534
  3002   6 C     3043   1 H                                       1.0917759
  3002   6 C     3044   1 H                                       1.0923502
  3001   6 C     3045   1 H                                       1.0929798
  3001   6 C     3046   1 H                                       1.0915514
  3000   6 C     3047   1 H                                       1.0931838
  3000   6 C     3048   1 H                                       1.0923910
  2999   6 C     3049   1 H                                       1.0923964
  2999   6 C     3050   1 H                                       1.0933027
  2998   6 C     3051   1 H                                       1.0911926
  2998   6 C     3052   1 H                                       1.0935719
  2997   6 C     3053   1 H                                       1.0925202
  2997   6 C     3054   1 H                                       1.0915473
  2996   6 C     3055   1 H                                       1.0919348
  2996   6 C     3056   1 H                                       1.0930892
  2995   6 C     3057   1 H                                       1.0924537
  2995   6 C     3058   1 H                                       1.0920423
  2994   6 C     3059   1 H                                       1.0922708
  2994   6 C     3060   1 H                                       1.0927727
  2993   6 C     3061   1 H                                       1.0922805
  2993   6 C     3062   1 H                                       1.0924866
  2992   6 C     3063   1 H                                       1.0926844
  2992   6 C     3064   1 H                                       1.0926678
  2991   6 C     3065   1 H                                       1.0929214
  2991   6 C     3066   1 H                                       1.0914792
  2990   6 C     3067   1 H                                       1.0916417
  2990   6 C     3068   1 H                                       1.0922134
  2989   6 C     3069   1 H                                       1.0929788
  2989   6 C     3070   1 H                                       1.0927584
  2988   6 C     3071   1 H                                       1.0914272
  2988   6 C     3072   1 H                                       1.0935390
  2987   6 C     3073   1 H                                       1.0927226
  2987   6 C     3074   1 H                                       1.0917675
  2986   6 C     3075   1 H                                       1.0916204
  2986   6 C     3076   1 H                                       1.0929695
  2985   6 C     3077   1 H                                       1.0921152
  2985   6 C     3078   1 H                                       1.0931648
  2984   6 C     3079   1 H                                       1.0920289
  2984   6 C     3080   1 H                                       1.0928051
  2983   6 C     3081   1 H                                       1.0915708
  2983   6 C     3082   1 H                                       1.0914783
  2982   6 C     3083   1 H                                       1.0919975
  2982   6 C     3084   1 H                                       1.0929412
  2981   6 C     3085   1 H                                       1.0920125
  2981   6 C     3086   1 H                                       1.0935271
  2980   6 C     3087   1 H                                       1.0923715
  2980   6 C     3088   1 H                                       1.0934624
  2979   6 C     3089   1 H                                       1.0918291
  2979   6 C     3090   1 H                                       1.0915217
  2978   6 C     3091   1 H                                       1.0932600
  2978   6 C     3092   1 H                                       1.0917678
  2977   6 C     3093   1 H                                       1.0919486
  2977   6 C     3094   1 H                                       1.0916874
  2976   6 C     3095   1 H                                       1.0926530
  2976   6 C     3096   1 H                                       1.0921835
  2975   6 C     3097   1 H                                       1.0931261
  2975   6 C     3098   1 H                                       1.0920764
  2974   6 C     3099   1 H                                       1.0922030
  2974   6 C     3100   1 H                                       1.0930450
  2973   6 C     3101   1 H                                       1.0928091
  2973   6 C     3102   1 H                                       1.0923397
  2972   6 C     3103   1 H                                       1.0920648
  2972   6 C     3104   1 H                                       1.0922392
  2971   6 C     3105   1 H                                       1.0925769
  2971   6 C     3106   1 H                                       1.0926539
  2970   6 C     3107   1 H                                       1.0918331
  2970   6 C     3108   1 H                                       1.0916938
  2969   6 C     3109   1 H                                       1.0927947
  2969   6 C     3110   1 H                                       1.0928707
  2968   6 C     3111   1 H                                       1.0917934
  2968   6 C     3112   1 H                                       1.0916505
  2967   6 C     3113   1 H                                       1.0926010
  2967   6 C     3114   1 H                                       1.0931570
  2966   6 C     3115   1 H                                       1.0919729
  2966   6 C     3116   1 H                                       1.0921125
  2965   6 C     3117   1 H                                       1.0920861
  2965   6 C     3118   1 H                                       1.0934042
  2964   6 C     3119   1 H                                       1.0921179
  2964   6 C     3120   1 H                                       1.0927908
  2963   6 C     3121   1 H                                       1.0920594
  2963   6 C     3122   1 H                                       1.0933123
  2962   6 C     3123   1 H                                       1.0921010
  2962   6 C     3124   1 H                                       1.0925372
  2961   6 C     3125   1 H                                       1.0928015
  2961   6 C     3126   1 H                                       1.0932340
  2960   6 C     3127   1 H                                       1.0925083
  2960   6 C     3128   1 H                                       1.0911207
  2959   6 C     3129   1 H                                       1.0929489
  2959   6 C     3130   1 H                                       1.0931248
  2958   6 C     3131   1 H                                       1.0933371
  2958   6 C     3132   1 H                                       1.0922026
  2957   6 C     3133   1 H                                       1.0919178
  2957   6 C     3134   1 H                                       1.0893739
  2956   6 C     3135   1 H                                       1.0917084
  2956   6 C     3136   1 H                                       1.0925652
  2955   6 C     3137   1 H                                       1.0930639
  2955   6 C     3138   1 H                                       1.0910749
  2954   6 C     3139   1 H                                       1.0928595
  2954   6 C     3140   1 H                                       1.0929425
  2953   6 C     3141   1 H                                       1.0916489
  2953   6 C     3142   1 H                                       1.0931051
  2952   6 C     3143   1 H                                       1.0924567
  2952   6 C     3144   1 H                                       1.0908960
  2951   6 C     3145   1 H                                       1.0931487
  2951   6 C     3146   1 H                                       1.0928904
  2950   6 C     3147   1 H                                       1.0922411
  2950   6 C     3148   1 H                                       1.0914305
  2949   6 C     3149   1 H                                       1.0930801
  2949   6 C     3150   1 H                                       1.0928489
  2948   6 C     3151   1 H                                       1.0921661
  2948   6 C     3152   1 H                                       1.0921627
  2947   6 C     3153   1 H                                       1.0930610
  2947   6 C     3154   1 H                                       1.0928941
  2946   6 C     3155   1 H                                       1.0921952
  2946   6 C     3156   1 H                                       1.0904009
  2945   6 C     3157   1 H                                       1.0930820
  2945   6 C     3158   1 H                                       1.0929875
  2944   6 C     3159   1 H                                       1.0931583
  2944   6 C     3160   1 H                                       1.0923794
  2943   6 C     3161   1 H                                       1.0902835
  2943   6 C     3162   1 H                                       1.0927579
  2942   6 C     3163   1 H                                       1.0926214
  2942   6 C     3164   1 H                                       1.0927192
  2941   6 C     3165   1 H                                       1.0920449
  2941   6 C     3166   1 H                                       1.0927017
  2940   6 C     3167   1 H                                       1.0922533
  2940   6 C     3168   1 H                                       1.0900172
  2939   6 C     3169   1 H                                       1.0926012
  2939   6 C     3170   1 H                                       1.0929949
  2938   6 C     3171   1 H                                       1.0918573
  2938   6 C     3172   1 H                                       1.0932121
  2937   6 C     3173   1 H                                       1.0911108
  2937   6 C     3174   1 H                                       1.0925386
  2936   6 C     3175   1 H                                       1.0927626
  2936   6 C     3176   1 H                                       1.0929906
  2935   6 C     3177   1 H                                       1.0924426
  2935   6 C     3178   1 H                                       1.0925212
  2934   6 C     3179   1 H                                       1.0923010
  2934   6 C     3180   1 H                                       1.0921770
  2933   6 C     3181   1 H                                       1.0922037
  2933   6 C     3182   1 H                                       1.0927140
  2932   6 C     3183   1 H                                       1.0917039
  2932   6 C     3184   1 H                                       1.0921836
  2931   6 C     3185   1 H                                       1.0921149
  2931   6 C     3186   1 H                                       1.0927536
  2930   6 C     3187   1 H                                       1.0916903
  2930   6 C     3188   1 H                                       1.0925930
  2929   6 C     3189   1 H                                       1.0921363
  2929   6 C     3190   1 H                                       1.0927336
  2928   6 C     3191   1 H                                       1.0918340
  2928   6 C     3192   1 H                                       1.0927532
  2927   6 C     3193   1 H                                       1.0922374
  2927   6 C     3194   1 H                                       1.0926757
  2926   6 C     3195   1 H                                       1.0919931
  2926   6 C     3196   1 H                                       1.0927804
  2925   6 C     3197   1 H                                       1.0923906
  2925   6 C     3198   1 H                                       1.0925921
  2924   6 C     3199   1 H                                       1.0921439
  2924   6 C     3200   1 H                                       1.0928097
  2923   6 C     3201   1 H                                       1.0925655
  2923   6 C     3202   1 H                                       1.0924896
  2922   6 C     3203   1 H                                       1.0922384
  2922   6 C     3204   1 H                                       1.0928847
  2921   6 C     3205   1 H                                       1.0926622
  2921   6 C     3206   1 H                                       1.0925588
  2920   6 C     3207   1 H                                       1.0922771
  2920   6 C     3208   1 H                                       1.0928342
  2919   6 C     3209   1 H                                       1.0925244
  2919   6 C     3210   1 H                                       1.0929800
  2918   6 C     3211   1 H                                       1.0924593
  2918   6 C     3212   1 H                                       1.0923754
  2917   6 C     3213   1 H                                       1.0921229
  2917   6 C     3214   1 H                                       1.0932010
  2916   6 C     3215   1 H                                       1.0929741
  2916   6 C     3216   1 H                                       1.0917209
  2915   6 C     3217   1 H                                       1.0917865
  2915   6 C     3218   1 H                                       1.0915575
  2914   6 C     3219   1 H                                       1.0928404
  2914   6 C     3220   1 H                                       1.0919430
  2913   6 C     3221   1 H                                       1.0917540
  2913   6 C     3222   1 H                                       1.0923830
  2912   6 C     3223   1 H                                       1.0925127
  2912   6 C     3224   1 H                                       1.0921114
  2911   6 C     3225   1 H                                       1.0922581
  2911   6 C     3226   1 H                                       1.0925622
  2910   6 C     3227   1 H                                       1.0925907
  2910   6 C     3228   1 H                                       1.0914166
  2909   6 C     3229   1 H                                       1.0926114
  2909   6 C     3230   1 H                                       1.0929344
  2908   6 C     3231   1 H                                       1.0930962
  2908   6 C     3232   1 H                                       1.0916059
  2907   6 C     3233   1 H                                       1.0915997
  2907   6 C     3234   1 H                                       1.0929627
  2906   6 C     3235   1 H                                       1.0931396
  2906   6 C     3236   1 H                                       1.0928059
  2905   6 C     3237   1 H                                       1.0914102
  2905   6 C     3238   1 H                                       1.0927324
  2904   6 C     3239   1 H                                       1.0927403
  2904   6 C     3240   1 H                                       1.0929025
  2903   6 C     3241   1 H                                       1.0923036
  2903   6 C     3242   1 H                                       1.0916783
  2902   6 C     3243   1 H                                       1.0910617
  2902   6 C     3244   1 H                                       1.0931175
  2901   6 C     3245   1 H                                       1.0928627
  2901   6 C     3246   1 H                                       1.0934214
  2900   6 C     3247   1 H                                       1.0930370
  2900   6 C     3248   1 H                                       1.0900807
  2899   6 C     3249   1 H                                       1.0914546
  2899   6 C     3250   1 H                                       1.0931381
  2898   6 C     3251   1 H                                       1.0927707
  2898   6 C     3252   1 H                                       1.0929151
  2897   6 C     3253   1 H                                       1.0861551 (min)
  2897   6 C     3254   1 H                                       1.0881309
  2897   6 C     3255   1 H                                       1.0880352
  3016   6 C     3256   1 H                                       1.0878316
  3016   6 C     3257   1 H                                       1.0875758
  3016   6 C     3258   1 H                                       1.0879228

 * 2 distinct bonds (by element types)

   Z      Z             #   av. dist./Å        max./Å        min./Å
   1 H    6 C        2178     1.0923241     1.0943659     1.0861551
   6 C    6 C        1071     1.5273012     1.5327221     1.5221938


optimized geometry written to: xtbopt.xyz


           -------------------------------------------------
          | TOTAL ENERGY            -3427.619996438125 Eh   |
          | GRADIENT NORM               0.000918193448 Eh/α |
          | HOMO-LUMO GAP              11.461390801604 eV   |
           -------------------------------------------------

------------------------------------------------------------------------
 * finished run on 2024/10/04 at 02:55:40.075     
------------------------------------------------------------------------
 total:
 * wall-time:     0 d,  5 h, 35 min,  8.414 sec
 *  cpu-time:     1 d,  6 h, 21 min, 22.960 sec
 * ratio c/w:     5.435 speedup
 SCF:
 * wall-time:     0 d,  0 h, 13 min, 35.595 sec
 *  cpu-time:     0 d,  1 h, 29 min,  7.772 sec
 * ratio c/w:     6.557 speedup
 ANC optimizer:
 * wall-time:     0 d,  5 h, 20 min, 47.541 sec
 *  cpu-time:     1 d,  4 h, 51 min, 12.988 sec
 * ratio c/w:     5.397 speedup

