3795
 energy: -5103.628070096413 gnorm: 0.000892518105 xtb: 6.6.1 (8d0f1dd)
C          114.16225612510082      103.17783566718703       97.38154389379623
C          114.52815630337108      102.37761844306003       98.60781735472094
C          115.12199922040736      104.35656240583936       97.16522453760136
C          114.96141267316403      105.43451147098074       98.23253176492892
H          116.14753232987310      103.98192085668673       97.16466065218400
H          114.91885433655405      104.79072583142383       96.18514618169097
C          115.91402087192741      106.61230267222678       98.00569676003276
H          113.93133095620871      105.79785152568471       98.22696904521406
H          115.15083065849957      105.00443377984870       99.21861463488179
C          115.80870192051472      107.58278114993082       99.16735249202577
H          116.93911724656489      106.23931644677860       97.96032778901045
H          115.67266551513490      107.11735206885909       97.07132879463302
N          115.27190689991798      108.76849837061731       98.87824880415246
O          115.51048364523918      101.53489921682076       98.40233202412789
O          113.97222369601980      102.50103520910312       99.68497830810071
H          115.67115419598110      100.91716491428139       99.17879942971190
H          113.13858730923377      103.53673535182678       97.49612141317795
H          114.21864231224811      102.50838443110337       96.52342096295415
C          115.01519105034734      109.76277292116391       99.90104327448645
H          114.91094713063072      108.94677898745530       97.94719115636764
C          114.96041609994079      111.16840398783197       99.32180110489014
H          114.06702231683906      109.52560113106396      100.39625632217675
H          115.81682372924313      109.68900898247608      100.64059652989445
C          114.80669245444408      112.23599966906178      100.41039556021768
H          115.88207485644091      111.35797798747947       98.76874247390857
H          114.13376000597236      111.22678914985173       98.61192289465357
C          113.68135997088444      111.98321745567844      101.41579068115954
H          115.74311900412744      112.30338952989094      100.96651108283557
H          114.63147414291140      113.19359918343743       99.92085032071982
C          112.31743865824713      111.77690023172801      100.75929664252595
H          113.91238807197072      111.11349162698053      102.03021496570298
H          113.62285076262955      112.84106194114140      102.08775716138284
C          111.29027514860374      111.25600284572424      101.75268027671574
H          111.96625550239168      112.71487207750445      100.32555852129779
H          112.39112277736324      111.04291658861227       99.95796165135715
N          110.98908626566656      112.24133272469653      102.76714149984794
H          110.36256069474418      110.96972763363949      101.23974173198860
H          111.67448586148868      110.35604381501589      102.24836272145951
C          110.21010385993873      111.96277822095482      103.81584749583892
H          111.42488610895590      113.15000370159274      102.68834472348102
O          116.19368286856056      107.28900216430027      100.29783503863278
C          110.10811265939414      113.08212856497759      104.83335548621325
C          111.14344178596249      112.88359767522468      105.94707839268123
H          110.27431421235218      114.03755123022179      104.33591106260336
H          109.10698239886938      113.06867168200382      105.26564113736356
C          112.57177382518910      112.81143313253914      105.41093960645050
H          111.05828193777977      113.72299751841312      106.63985536955056
H          110.91038866916730      111.96630140321658      106.48998760226279
C          113.59518305536491      112.79724785990059      106.54694492008828
H          112.67815117949888      111.91267921158426      104.80391147123883
H          112.75205994051447      113.67612861023063      104.76927898895377
C          115.03182711856347      112.88650646191329      106.05416547967612
H          113.42920826390929      113.65043264787926      107.20815166313207
H          113.48220474363731      111.88977891194168      107.14308401894367
N          115.38050873483417      111.97653113263880      105.13810393161548
C          116.65644482856248      111.99509245793365      104.44880047931976
H          114.69451222466039      111.31764424172991      104.78596357451657
O          109.64041988927069      110.88442578038514      103.95513701545453
C          116.92516554424709      110.64696124836759      103.78883623859704
H          116.64214294403014      112.78815542853901      103.68982311570959
H          117.43556904843173      112.24354609208876      105.17461378826356
C          118.20181658314905      110.65874012316188      102.95019579029423
H          116.99210543083049      109.88349463545299      104.56201236559222
H          116.07532729104383      110.39787051432725      103.15109460651543
C          118.47000759964153      109.32856951596244      102.24096086924500
H          118.11567599456497      111.44347428450372      102.19683400646466
H          119.05680616465391      110.89483309456288      103.58574250824677
C          119.02259888727968      108.26969483612051      103.19113728397396
H          117.55235271292761      108.96281086458387      101.77750113645806
H          119.19767789097621      109.49433894138078      101.44336835778735
C          119.25062351171664      106.92031961051177      102.50891934228144
N          118.00269949000001      106.21167612146890      102.30862602602051
H          119.75400701742892      107.07132618517890      101.54662797477030
H          119.87515012524550      106.27394755537105      103.13225867583598
C          117.86717787703819      104.88906982065703      102.46679288946500
H          117.26106896304621      106.71677294131248      101.84139775351456
O          115.80889276099616      113.73201763383706      106.48815404508575
C          116.44717610887861      104.40528339920995      102.22377444156494
C          116.22580126537368      102.90288791496890      102.38895091217297
H          115.78213183420951      104.95472143429411      102.88881778205223
H          116.18004303234565      104.69833934647100      101.20501209921606
C          116.34470894812419      102.37479242986355      103.82085782118423
H          115.23883203432342      102.65686466663927      101.98902529706818
H          116.96083510133823      102.38164719974097      101.77289539020285
C          115.25004343450495      102.85888008749515      104.78017604516201
H          116.28181398738818      101.28472609647199      103.77415515428572
H          117.32850988086341      102.63952096522287      104.20664887482035
C          115.42443010731273      104.30396552361917      105.20138791834620
H          114.27018511128401      102.75847994520808      104.31084393387528
H          115.26218216858531      102.24041110144877      105.67899003355564
N          116.59160514243993      104.57743857017175      105.78763462717151
C          117.14052653607786      105.91568378198571      105.86054301650823
H          117.22853170933560      103.80548013254332      106.01638059038221
H          119.97274252892711      108.62969744901997      103.58936380723163
H          118.33249531623002      108.13086873370366      104.02143167980147
O          118.79696825371637      104.15914534347293      102.80312165245665
O          114.54656363441619      105.14811315179404      105.00750315235655
C          118.00093098792230      106.12426908377213      107.10221899147881
H          117.76272385611402      106.06834121643483      104.96998592700963
H          116.30844621339664      106.62000077492661      105.81363097105849
C          118.97619409738664      107.28902698557185      106.92332053963781
H          117.37193054586953      106.28328218644670      107.97532641013453
H          118.57513257556865      105.21270200281732      107.26336022558253
C          118.32628672412675      108.67350018294034      106.97454770647401
H          119.72833323527642      107.23406948782124      107.70897857615118
H          119.48474659177913      107.16618523330415      105.96619295465794
C          117.93801308122669      109.08201575659612      108.39268231241202
H          119.02573029200249      109.40969539010075      106.57577508481465
H          117.43748384026702      108.69025871991211      106.34386090196631
C          117.58229322123577      110.56816639219412      108.48290108764583
H          117.07675624691694      108.50573810460247      108.72720229721594
H          118.76145715438406      108.89051150885014      109.08071729541521
N          116.93382237698830      110.87195705271488      109.74380331910525
H          118.49249659285950      111.16595915967689      108.37997325161992
H          116.88835710632155      110.84628672725061      107.68922279755486
C          117.52819744124427      110.76406627932241      110.93582805098067
H          115.95685868533019      111.15196240484217      109.69948021939445
C          116.59739431207022      110.96294750840657      112.11867516786508
C          117.09113667553366      112.03915530380807      113.08199765300643
H          115.59620744174026      111.20852472513653      111.76871166740094
H          116.53825846747476      110.02018417876607      112.66703511716466
C          116.17562088659969      112.10892462720508      114.30055692341526
H          118.11014629875382      111.81213062757470      113.39946619083831
H          117.11097751988945      113.00979705968179      112.57893254564866
C          116.47200813491584      113.32873555630995      115.17555045513572
H          115.13865017045829      112.12298227951959      113.96527382594637
H          116.31581558928806      111.20862836897486      114.90104725070506
C          116.24838504143976      114.63537898075668      114.45573004810954
H          115.83967807007043      113.30674521719334      116.06356939521953
H          117.51609349136884      113.28713128706161      115.49005477683387
N          115.01723660589461      114.92469202917874      114.02615149312305
C          113.74569134349697      114.30307966277091      114.32776559460014
H          114.93606930563595      115.81033745258216      113.54054263448342
O          118.71829662691300      110.50381132041883      111.07696109087230
C          112.71832686788856      115.39315748293151      114.62509206067382
H          113.41152268825775      113.70276839500110      113.47352548035018
H          113.84951717197048      113.64643381846572      115.19174517048576
C          111.33495967879715      114.83283171604768      114.94646693692997
H          113.06888058750714      115.98544439725744      115.47405018950516
H          112.64461741823564      116.06116189664749      113.76315071243162
C          110.34702239682666      115.98387126686154      115.10965199664447
H          111.00517303353925      114.16703009843619      114.14788450776916
H          111.38394760688119      114.24610879368940      115.86593861863901
C          108.93441129887181      115.54666108780167      115.48265976687875
H          110.71992858223706      116.65038100397950      115.88848545553206
H          110.29955544374100      116.55286750062186      114.17889994197101
C          108.03296520823992      116.77045760186132      115.52976191880551
H          108.55158668052410      114.83704380053848      114.74874217649334
H          108.93823941806552      115.05553878091878      116.45773643047252
N          106.67518620839790      116.42725173319707      115.90991805986395
H          108.40772801090694      117.49516914603780      116.26074810418193
H          108.03670661444566      117.26636885944973      114.55307341764140
O          117.16846261087126      115.43738774163903      114.24997015646829
C          105.78852696373384      117.36950624722240      116.22854639672920
H          106.41368877896173      115.44527426160593      115.87675308085845
C          104.40756415847140      116.87991131758810      116.62797109815918
C          103.58136480658875      116.51904575290288      115.38775271317034
H          104.49524147605645      116.01927306949197      117.29301449085204
H          103.92083570676409      117.69404200981221      117.16524888225813
C          102.11109298617812      116.22038194445550      115.69659653722891
H          103.62360417189721      117.35074368238219      114.68147831021045
H          104.02857232469123      115.64932512738991      114.90196608744255
C          101.34428608584159      117.47366330192989      116.12552651831373
H          101.64426550983887      115.82205916689765      114.79434597139360
H          102.03667502504796      115.47238861215818      116.48886168278064
C           99.86785898114027      117.21013747388326      116.34354299922057
H          101.74052013651379      117.86550097034390      117.06310403812112
H          101.44606139697684      118.24608758946709      115.36115117261815
N           99.17352796534917      116.95965796133045      115.23416272217153
O          106.07570677770902      118.56755461781077      116.21084590867274
C           97.74924602528800      116.71029404552296      115.20056453093075
H           99.65763319864899      116.90399990002111      114.34095693414895
C           97.41145475203004      115.56438341737586      114.25065990047629
H           97.42106248621720      116.47048195734881      116.21450058119277
H           97.22782876433055      117.62250338500814      114.88191208772228
C           95.91467984895597      115.26521863745825      114.26154950152954
H           97.73992831602327      115.84164013651370      113.24909262353339
H           97.96725536879160      114.67726844152418      114.55705482016535
C           95.51003608043395      114.07414393896103      113.38925817187118
H           95.60931620979778      115.05958894897427      115.29061248649784
H           95.36928615578547      116.15191751757133      113.93197412588555
C           95.69326603129380      114.31122388886493      111.88384008858158
H           96.07894810142949      113.19458273403130      113.69251994705982
H           94.45799956399591      113.86621340050424      113.58778851186626
C           96.99997692536165      113.73640581816723      111.34280852122909
H           94.86705998819663      113.85795861172070      111.33420391151743
H           95.67246930568551      115.38275812673159      111.67866155101520
N           97.21975971776095      114.16980046737541      109.97873570170327
H           97.84225591554309      114.06393296157660      111.96192875135696
H           96.97143967459645      112.64342799545807      111.34032342304015
C           97.79257748592327      113.42126755344522      109.03544732831939
H           96.95073751546410      115.12160417659167      109.75674060366480
O           99.36503730304116      117.23669883461206      117.46935639398372
C           97.98061990783712      114.12092280228352      107.70310226960552
C           97.27184237263707      113.37765895108261      106.56974830397014
H           97.59928902316534      115.13807162024301      107.77753576005178
H           99.05282983028475      114.16240214222663      107.49855411853353
C           97.27948163864046      114.16614970041911      105.26108202946945
H           97.74621469561977      112.40653438119395      106.41943111659900
H           96.23409995916583      113.19929087649946      106.86019412146544
C           98.68902461094763      114.38097549459150      104.69666289270596
H           96.68796369048917      113.62327689036361      104.52136367011188
H           96.81027260968787      115.13976272048492      105.41977727407219
C           98.58039817445261      115.17412379602247      103.41355144260176
H           99.29626978382103      114.94581391704207      105.40375974710541
H           99.14497140864263      113.41198552652340      104.49661879067520
N           98.44196638870710      114.43968162274005      102.31801860938033
C           98.11639757048015      114.94477666236587      100.99824971620177
H           98.51922454974112      113.43109851956486      102.40747392251512
O           98.15359854814551      112.26048716363434      109.22525175409461
C           98.66300731483211      114.02678127873432       99.91122070560213
H           97.02487300428761      115.00460684426436      100.90626772941877
H           98.51849221476193      115.95244815376589      100.89188786570698
C          100.18405708224302      114.07145567145304       99.77542014317785
H           98.35222509983204      113.00450474912532      100.13817113105658
H           98.20985305647611      114.31203999930922       98.96089354166132
C          100.70322293717662      115.39844730636443       99.22573704713227
H          100.65095010059102      113.87090136385504      100.74049503657739
H          100.48987370668897      113.27639226574505       99.09317273621841
C          102.17870734044342      115.29202234631435       98.84728829755709
H          100.12616124522455      115.67659358907355       98.34092878878059
H          100.57711756344987      116.19011189792103       99.96667831509406
C          102.71160763149220      116.62227013729509       98.32253603239282
H          102.75781595681710      114.96921576973618       99.71472867398205
H          102.29856615189040      114.53957312589536       98.06612551505182
N          104.07707554106318      116.50805364670501       97.86075058685516
H          102.08416732373759      116.96356969108498       97.49105103188813
H          102.68772585677728      117.38383785374086       99.10575320644762
C          105.05657566734997      117.32243333128193       98.23532835204807
H          104.26390345359506      115.79515784276497       97.15464204045431
O           98.56890700180281      116.41344516800511      103.43404321547463
C          106.38791646291580      117.08681940838397       97.55565439652415
C          106.37859988130165      117.72128310473711       96.15945649892014
H          107.17340797020620      117.52789949311151       98.16888931860578
H          106.56840878312467      116.01638388823994       97.46079869461677
C          107.73057924784472      117.61660188035593       95.44989208432236
H          105.62412230479971      117.20933018442906       95.55905164975792
H          106.09144853785848      118.77245384414663       96.23991323741727
C          108.79778462517743      118.51711228409015       96.07494493833595
H          108.07708962518990      116.58345908472154       95.48020710672041
H          107.60142554239759      117.90396855633676       94.40404764192940
C          110.09689131505941      118.45493562528935       95.28778677791621
H          108.44794616953008      119.55023423221991       96.07107907425012
H          108.99107746529600      118.19900953247370       97.09846489890141
N          110.93473594280242      117.49732588897409       95.69681526991161
O          104.89687360897562      118.23070275847248       99.06111809494888
C          112.25035855853704      117.27738509827698       95.13657665495155
H          110.64101272564932      116.85923742540729       96.43323794204944
C          112.51479650708244      115.79481218335002       94.88466460545165
H          112.31349687196035      117.85362349772703       94.21007540404730
H          113.00323848597688      117.67029689994598       95.83219604427487
C          113.95876485191663      115.55425354567856       94.44784684544410
H          112.29840746982768      115.24327964662488       95.80043977353637
H          111.83401725948764      115.43717585185475       94.11069678240584
C          114.28275129121735      114.07212530813530       94.24270886009060
H          114.12767584437479      116.09056149813418       93.51216128626629
H          114.63779981778849      115.97153930946320       95.19360327538823
C          114.54601990384474      113.33342369677339       95.55521462500691
H          113.45996951469233      113.59669124898076       93.70774149568373
H          115.17502740615923      113.99051176476780       93.61895124412833
C          114.88397738011862      111.86067411274888       95.32651889903924
H          115.38980328981035      113.80556352634328       96.05974673747970
H          113.67390128156576      113.40155320749297       96.20643178486304
N          113.69621793646107      111.09022212789942       95.02085405891978
H          115.60519338715297      111.76967192879751       94.50628552716299
H          115.32743583687726      111.41489297273174       96.22013788034704
C          113.46728146650956      109.86400475551898       95.49403963578114
H          113.02293804729594      111.51379399798998       94.39687550862405
O          110.34541994719690      119.22964392838544       94.36657644869157
C          112.12531684454149      109.26834999381614       95.11373859176186
C          111.18750357959230      109.27632160950532       96.32727029074087
H          111.68347617939060      109.83357151026169       94.29361436554127
H          112.28460052430712      108.23741324615004       94.79388791122302
C          110.88815959915445      110.69339200919767       96.80859355957006
H          110.25294531623338      108.77876252370741       96.05911833936234
H          111.64436573130091      108.70510031601212       97.13848565969529
C          109.99331007476636      110.69150147436019       98.04894656081183
H          111.82367075924449      111.20004191134035       97.05223678011727
H          110.39926266111965      111.25546392099542       96.01197121124218
C          108.60991631723068      110.14765568997299       97.74692584042016
H          110.44976525787904      110.09311110312846       98.83637201664207
H          109.87212567747787      111.71945766976479       98.39864056057964
N          108.27414535058551      109.06171067692790       98.44188639337419
C          106.99065143938043      108.40249353050059       98.32710852620130
H          108.96519069297290      108.61538976078673       99.04169657552525
O          114.26452808542922      109.26439255304567       96.21506480123386
C          107.14490708368534      106.88782096724174       98.37935949943849
H          106.34623474714232      108.73415686310155       99.14816384243271
H          106.53823204268723      108.71452111915107       97.38247355541661
C          105.80600697531207      106.15698797769694       98.27439817075253
H          107.79406066311580      106.56487324766630       97.56283840157508
H          107.64213795055321      106.62043311327311       99.31419498165354
C          104.81315708123587      106.51671872418501       99.38353114736653
H          105.35301594670752      106.37134544527669       97.30507318810776
H          106.00571017396419      105.08386763429169       98.31088046170781
C          103.71141215019807      105.46415651188828       99.49655863999978
H          105.33379810908632      106.59110966692697      100.34104002053688
H          104.35949178201956      107.48706087745055       99.17753323388879
C          102.68638555530198      105.79383908854851      100.57860960309802
H          103.19170675279594      105.37852422328368       98.54170202042232
H          104.15728246003745      104.49460828454015       99.72885932340768
N          103.27499902982390      105.73772677954865      101.89990815188925
H          102.27844271943439      106.79741952250336      100.43970328865329
H          101.86066927565858      105.07466036275260      100.52618044248398
C          103.09745168170993      106.66828509272908      102.84021546654594
H          103.86731832965272      104.93299451413671      102.08581808092131
O          107.85143405293900      110.69485592122494       96.94452416873644
C          103.77995164335508      106.37880398893444      104.16416482162933
C          102.76708301134580      106.41482099059940      105.31185391458941
H          104.27312844215308      105.40817189699192      104.12158878822925
H          104.53381742818205      107.15018304902001      104.32370987905863
C          103.41945879739164      106.24159850053253      106.68434708089922
H          102.22902020170436      107.36453369980585      105.27649620691417
H          102.03976459682957      105.61419887182747      105.16042481012049
C          104.16403978588789      107.49738602548643      107.15025428436316
H          102.64682502957967      106.00192026216199      107.41779838046446
H          104.11725424226940      105.40292388067196      106.64649324617048
C          104.92269294804271      107.19518683450747      108.42860683385854
H          104.88476064203354      107.79995306506137      106.39079908695621
H          103.45389624083410      108.30617257530935      107.31679603461831
N          104.25883599726556      107.48103646329068      109.54674273943300
O          102.43025864737550      107.68822422530296      102.66256136017590
C          104.72308838504789      107.21401239279017      110.88916398445636
H          103.37430176181093      107.97317178328210      109.48420520610553
C          103.62365142181231      106.54407187108092      111.71098361187978
H          105.60455657935229      106.57275769316202      110.83031506074272
H          105.01298238708277      108.15485138028475      111.36763703966452
C          103.39308578870506      105.09776332137538      111.27525137676039
H          103.91176005115291      106.57917215325406      112.76249749739974
H          102.70365624756407      107.12008346989543      111.58297781316008
C          102.10611433412437      104.50995491349670      111.84635198516258
H          103.33580026583162      105.06133990508296      110.18478512337090
H          104.24636590196974      104.49636307863035      111.58917596371064
C          101.84337885982403      103.06167841743624      111.42476793375087
H          102.13263062697631      104.56078909262246      112.93518712730356
H          101.26961975728931      105.12542755490358      111.50532846495041
C          102.59149072763235      101.99701985780229      112.23841927958034
H          100.77526957013637      102.86443695155974      111.53695501656462
H          102.10137520835946      102.92748974577748      110.37421139153020
N          103.92583152652797      101.73744297307569      111.71507964600131
H          102.59370487623620      102.28666895404037      113.30374640182426
H          102.03570917243100      101.05706006399446      112.15792854843643
H          104.56638612773691      102.48251496307850      111.96880214775160
H          104.29890517396620      100.89454321295953      112.13691293001715
O          106.04839543237055      106.69890519371870      108.40817676137534
C          102.41384603761915      117.36961686002191      120.32854604372801
C          103.47827126556058      116.57585138471356      121.04137038851049
C          101.02136994065211      117.08585814287395      120.91890986028469
C          100.70824607886037      117.87757230639522      122.18882941739290
H          100.28039831210235      117.32677032315051      120.15334642565608
H          100.93343146818654      116.01918549473785      121.13910357573944
C          100.71135220011999      119.39524831400338      121.95728270404565
H           99.71926362615365      117.56975635499933      122.53655577347894
H          101.42379874700126      117.62350136273500      122.97180498421775
C           99.84144086038634      120.14144063474261      122.95245479522669
H          101.72672729154641      119.78825718242858      122.03105019789648
H          100.32654644185233      119.61547725689120      120.95964290489100
N          100.25274350352151      120.10456946543664      124.21697150802888
O          103.81067357696229      115.49746853742722      120.38152366330917
O          103.98325421831545      116.91031490384711      122.09942048967203
H          104.42662561961883      114.87319447112220      120.86037552588479
H          102.41793889300833      117.06335153723462      119.28334907695040
H          102.63789697348915      118.43313651668302      120.39855660372837
C           99.56583959283381      120.78636474653594      125.29318197617445
H          100.95462100757597      119.43014664423220      124.51839272119392
C          100.57570397122004      121.31888708406319      126.30569973848687
H           98.97879564318892      121.59549351370629      124.85129665406140
H           98.87743018296928      120.09271605844387      125.79007614022258
C          101.46173014146711      122.42459380179069      125.73322186643408
H          100.03441872306365      121.69578428231146      127.17398876607722
H          101.19685937390709      120.48210466167085      126.63077217013057
C          102.54483632231228      122.83188067891251      126.72962863744719
H          101.92313683729419      122.07126985456979      124.80962786974263
H          100.84647154578282      123.29068514073884      125.48179230745571
C          103.48056288650537      123.91015518385548      126.18634968333824
H          102.06996203464942      123.19780578890393      127.64183896296171
H          103.12953777926508      121.94896222338249      126.99463645471120
C          104.54480999749697      124.26642653597918      127.22652659639832
H          103.96425070828664      123.55691715528117      125.27456928312368
H          102.90668669129721      124.80456879887528      125.93645083659459
N          105.46356261537008      125.28737327586391      126.76995016218110
H          104.06770522369793      124.65660871099394      128.12800989766095
H          105.12050794851305      123.37364383966677      127.48649465780137