3536
 energy: -3716.263867752395 gnorm: 0.000691456451 xtb: 6.6.1 (8d0f1dd)
C           57.78253429367795       56.99740419967376       70.02228120915112
C           56.26381910490954       57.05001250451710       69.87910824285001
C           55.80499542632264       55.97067467502174       68.90022288814939
C           55.77032279145193       58.41497806950254       69.38148197359742
C           56.20601200690018       59.63030890278417       70.20952420487330
C           55.58162068909676       59.57582975394548       71.60487463387746
C           55.80684173081636       60.94618683561673       69.51744991614213
C           56.84407970823275       61.60668542483969       68.59484832887770
C           57.14372375169096       60.76380858575255       67.35734363864465
C           58.17303835630395       61.94616397345159       69.28234716951027
C           58.09206860548057       62.78185552452659       70.56361554307064
C           57.38145060916396       64.11328850410375       70.31812118335834
C           59.49772203714718       63.07201924235637       71.11491451985222
C           60.36451215966089       61.84734106435398       71.43223404996345
C           59.72061749983913       60.95744345933036       72.49319299065965
C           61.76994346373207       62.28002943386139       71.88554179120064
C           62.85553758473063       61.28462211337428       71.45060381667184
C           64.11940311733230       61.46367306392415       72.28976681833730
C           63.17316486753329       61.45975539449827       69.95717308212549
C           63.58321785561208       60.17663446438561       69.21688682949075
C           64.20697112584210       60.55892553387979       67.87636656827200
C           62.35749585522674       59.27146202437868       69.03628407606359
C           62.51631584044946       57.99242982008756       68.19983574745996
C           61.17944971088203       57.25270793474812       68.23433539352267
C           63.65387558672160       57.09371586409905       68.69507519287900
C           63.87624261451901       55.83912176014019       67.82410511246712
C           63.55276407204536       54.56626127818663       68.60596225695583
C           65.31104649934464       55.76570010542662       67.28606716463845
C           65.60312982886708       56.77405602200896       66.16369191524051
C           65.04052047690404       56.27736225831593       64.83466105068625
C           67.11629700173593       57.01199828578970       66.07796828829129
C           67.60960876673937       57.97683389109294       64.98874466111697
C           69.13771678302344       57.99368770123424       65.01895454821381
C           67.03912426673462       59.38491089146309       65.18972251448695
C           67.32464324747561       60.37835350382708       64.05451484693725
C           66.93494202324447       61.78327139779167       64.51670952232365
C           66.57958268372275       59.99584295036718       62.76121663693120
C           67.48822116396538       59.80854393811023       61.53892136595756
C           68.05793563571365       61.15071395533344       61.08748483536319
C           66.69838290973829       59.15254790155889       60.39927044768199
C           67.55624216384022       58.54125125005218       59.28064400495303
C           66.71887545085468       58.43148542581294       58.00792331467686
C           68.09017104705715       57.16821639893793       59.70616025052214
C           69.17594401491819       56.58926262112018       58.78898161977664
C           69.39772074823163       55.11468656092415       59.12301219024557
C           70.49321017089905       57.38334042408084       58.88407280147597
C           70.91318713145284       58.04098848161796       57.56358300555380
C           71.40339816726569       56.98223881137166       56.57537804348686
C           72.02721700165267       59.07596333790510       57.77418941093000
C           71.61888808662796       60.34610886294665       58.52987918538754
C           70.63496140917617       61.19242278572634       57.72543881667360
C           72.86103507731053       61.18448850141828       58.87905308894432
C           72.69448745235701       62.03904365420156       60.14897592430574
C           73.27222757466794       63.43919415516369       59.93762084136942
C           73.37907702395793       61.39465744705822       61.36402665511574
C           72.87200584884665       59.99609631140967       61.74312713910717
C           71.48451822636977       60.07010474433706       62.37387595637401
C           73.87658601384108       59.33168723163064       62.69477262420398
C           73.52618273037525       57.90607910125264       63.14912510651110
C           74.53075222629546       57.46352925287641       64.21314741521938
C           73.51743834246638       56.94239283762619       61.95675197107565
C           73.08184968952601       55.49825222630270       62.24917586101355
C           73.28529015615027       54.66098200507435       60.98543356696668
C           71.62220651744055       55.46271275809220       62.71804520262319
C           71.00863765999846       54.07162088971955       62.93696723035356
C           69.53555921870168       54.23255321182189       63.31078958647969
C           71.78041658658456       53.30942459845397       64.02061536351991
C           71.23460173433439       51.92950848412683       64.41873053466094
C           72.05368420146218       51.41639094853947       65.60421130826767
C           71.29296508027835       50.95251921394522       63.24005293214928
C           70.64127758976859       49.58173959036630       63.47111647468427
C           70.93804691671475       48.68920506012262       62.26448525443057
C           69.12129759295230       49.68360299131619       63.69440754053657
C           68.67987983742313       49.54709235450385       65.15779206890328
C           68.78783598891678       48.08965669754588       65.60782792488881
C           67.23421610887438       50.02588347711587       65.35289432591216
C           67.03935887908447       51.54495392223407       65.27525515758613
C           67.52302654521304       52.21990179642411       66.55853889308584
C           65.56703897991912       51.90305445589695       65.03367780459334
C           65.04824641862419       51.60724488011983       63.62018494179948
C           65.57527870617197       52.64118887130286       62.62716631269614
C           63.51377416640462       51.60698763441739       63.59938144050403
C           62.87068950020705       50.37618788538583       64.25422152478129
C           62.79443072381965       49.22013216395348       63.25783753459255
C           61.46661433885721       50.70137438204583       64.78200979663930
C           61.44165364517161       51.57492055596081       66.04426418831792
C           61.85647010649993       50.77498552766372       67.27663333842349
C           60.04780841107689       52.18360176285746       66.23713803426406
C           60.01130527183334       53.32217086663913       67.25285446065364
C           58.65547915872498       54.01516947225669       67.26586393545237
H           58.10126495282821       55.98785674590277       70.27545429161708
H           58.25974848476166       57.28289151181823       69.08753380897986
H           58.13386542770829       57.65968601971903       70.80951473205570
H           58.65122362850246       54.83591142580577       67.97854786423053
H           58.42299277392105       54.41647467206268       66.28165670665756
H           57.87232295553355       53.31215014482316       67.54006301081731
H           59.70531586256531       52.58086388218145       65.27920838289272
H           59.34761657340966       51.40156481066039       66.54010180863058
H           60.91775576358736       51.20958651825225       63.98557065711424
H           60.93884336941846       49.76853498172697       64.99561493191116
H           63.49215200998081       50.04794226738812       65.09283865736968
H           63.77871505001248       48.99256317575083       62.85509997288369
H           62.41071363271868       48.32192707716582       63.73770583816273
H           62.13354211567863       49.47405551954455       62.43165126447211
H           63.17264688254127       52.51404268672311       64.10092445596979
H           63.16996580743660       51.66430056759503       62.56434989331567
H           64.96495569832435       51.36558710299582       65.76936210868998
H           65.42930518751962       52.97038661473615       65.22632406174013
H           62.15383513661968       52.39785667032224       65.91731306312784
H           62.82924750390247       50.30915861247897       67.13523652781164
H           61.92072743881741       51.41567851196793       68.15278386649237
H           61.12940354440206       49.99084843608436       67.47818887079646
H           65.39972373818999       50.62029928072031       63.30324203866902
H           65.21388317590551       53.63414540976358       62.88706818232330
H           66.66197108272129       52.66582418301098       62.62035375743119
H           65.23931787241099       52.40925891369358       61.62059213500950
H           67.63142014041837       51.93913819495179       64.44569308174627
H           67.47247477586073       53.30284887132682       66.46386805888724
H           66.90308485739406       51.92177845828581       67.40247592340729
H           68.55254002411570       51.95055241916963       66.78173559374959
H           66.61472894925424       49.53572839336101       64.59927704144290
H           66.88009176917896       49.68638765589661       66.33017383531727
H           69.33954663790774       50.14861136984497       65.78892967073600
H           68.56490432592972       47.99676035731346       66.66899701535128
H           68.08200729763837       47.47161793327604       65.05577614588711
H           69.78783815098321       47.69773694168586       65.43736705681010
H           68.77203394745676       50.63494058999900       63.29158894604694
H           68.62221452883193       48.89775877606903       63.12510354066845
H           71.10378387038156       49.11555214743635       64.34559773232310
H           70.51163698154602       49.12294052315917       61.36236602348951
H           72.01087837702877       48.58196828175114       62.11557505022174
H           70.51466081957571       47.69698709015545       62.40542865684404
H           70.80597567931109       51.40801378196335       62.37548530033719
H           72.34401010610493       50.79745684081772       62.97827296607395
H           70.19786862759548       52.04038227021167       64.74284336851754
H           73.09473588124257       51.27933906451489       65.31669315442812
H           72.01923934422831       52.12853756262400       66.42680995835640
H           71.67438046433534       50.46549505590803       65.96908608478691
H           72.81293504853252       53.17552661616968       63.69053701983037
H           71.80362211710369       53.93534979521253       64.91787597615483
H           71.05860617915715       53.51829436077585       61.99520589555856
H           69.43547118847567       54.62674758634964       64.32011118958786
H           69.03755261444185       54.91549545450786       62.62568020838396
H           69.01977542511349       53.27799884671628       63.26333894931449
H           71.54251040261872       56.01437382390991       63.65717251968854
H           71.01835576874225       55.99104976122623       61.97498769471749
H           73.72528697186914       55.09001627534158       63.03328991573675
H           73.12976118641591       53.60388185834114       61.18322402055030
H           72.59137913684496       54.97114145137270       60.20708196978364
H           74.29897731338832       54.78443040739422       60.60883397941764
H           72.85025791587391       57.33636426669408       61.18829262118238
H           74.52663450425227       56.92086919017779       61.53523270938522
H           72.53602001406044       57.92551564626450       63.60968289983354
H           74.25540917229809       56.50085598294704       64.63555789039400
H           75.52834421857214       57.38021260678430       63.78589307369666
H           74.56711126831779       58.18723986674526       65.02499797015365
H           74.85644041276925       59.30636455331801       62.20915956630801
H           73.97201813653980       59.96203240714634       63.58364331738681
H           72.81385636150813       59.39846519649803       60.83169055631767
H           70.82046068097551       60.68395327526891       61.77294802445952
H           71.04496035716619       59.07884269682063       62.45207781280235
H           71.54200290622664       60.50557657992790       63.37010870442537
H           74.44974768716006       61.33317302497010       61.14940784066523
H           73.26021177374312       62.05515377775860       62.22733164259483
H           71.62694273912679       62.15350139772553       60.36203605955547
H           73.14950125354815       64.04570498033948       60.83277786205011
H           74.33425092246927       63.38225569223362       59.70717796587878
H           72.76910212282527       63.94223026207045       59.11432890003080
H           73.72540894447414       60.53016323753891       59.00822609430727
H           73.08534769738885       61.83325973096189       58.02953436110477
H           71.13027305129040       60.05358766199748       59.46242061965754
H           70.41652348523716       62.11722116037360       58.25468307213416
H           71.05505140631841       61.44625404774749       56.75377508408400
H           69.69694759316877       60.66723607939579       57.56301498610845
H           72.84020278350465       58.58680714173258       58.31927275240518
H           72.42387230344170       59.36904894925418       56.79811111824429
H           70.04314202172318       58.54103017931975       57.12722732990762
H           72.31968161868210       56.52145678861485       56.94094884710221
H           70.66120146291217       56.20098017912729       56.43808356998699
H           71.61203250216977       57.42867456576960       55.60484926234682
H           70.38976109248954       58.15050011793454       59.65200785784381
H           71.30121582405621       56.72135826503285       59.20480003917731
H           68.81012463703830       56.63693838256252       57.76031839749867
H           70.15156765600048       54.67913353476608       58.47061927171919
H           69.72658642416728       54.99632737233944       60.15327829717120
H           68.47491651863578       54.55252031987725       58.99317519429469
H           68.49229701075102       57.23437716170101       60.72050106081761
H           67.24711877053466       56.47247481695543       59.73835126371813
H           68.40259717456752       59.20317648693366       59.07699824036137
H           67.29894884535906       58.02677220414952       57.18225850767825
H           65.86423267237579       57.77859401580866       58.17329735235896
H           66.35184054586543       59.41296847129131       57.71438096810407
H           66.06734068723122       58.36170308756232       60.80945223089963
H           66.03321699841484       59.90708529962424       59.97210307960434
H           68.31619902032597       59.15032894695462       61.82484038685557
H           68.73064551498433       61.02951393594167       60.24177171950483
H           67.24977956532972       61.81223538076856       60.78302248390433
H           68.60693933820392       61.63402861479244       61.89205372600565
H           66.02910788518984       59.06809030937286       62.92673420732294
H           65.84228028136739       60.76513592129284       62.52262279778797
H           68.40032607845224       60.38316358246920       63.85703479300341
H           67.10652818265804       62.51114316583433       63.72689185741103
H           65.88299697978606       61.81429026079000       64.79519257090290
H           67.52177337475364       62.08049036994524       65.38419033636185
H           65.95605424276707       59.32357226623229       65.30559767705404
H           67.44542294961676       59.78813037713680       66.12162883616027
H           67.29820049646153       57.59548767146368       64.01268884686931
H           69.53952739611263       58.60747369814367       64.21822795909387
H           69.49800036027862       58.38994992980132       65.96693568292827
H           69.53036228534422       56.98640274376362       64.89902809369310
H           67.46206055595566       57.38764096416313       67.04596439779863
H           67.59929188719684       56.04346443986805       65.91595760012157
H           65.10982122491301       57.71551690291808       66.41993694364923
H           65.06616716839426       57.06350695352183       64.08470350994337
H           65.62308499838596       55.43232779680391       64.47213817417529
H           64.00634962320132       55.96024899220897       64.94767954292105
H           66.00330746886375       55.92826142159745       68.11657818542635
H           65.49804471759860       54.75825589173690       66.90632274683148
H           63.20174020565236       55.88386915466363       66.96423852530127
H           62.54186664232228       54.60566777896686       69.00433023032981
H           63.63324900771158       53.68998827872363       67.96527469007263
H           64.24604080580083       54.44459221717039       69.43655758673107
H           64.57569638737623       57.67571959483469       68.72195843487104
H           63.43764237278499       56.79234814364843       69.72284397290051
H           62.72271175371375       58.27111968775081       67.16138457581681
H           61.17209347327000       56.40131578176933       67.56060387075254
H           60.96793227873244       56.89641976115036       69.24076957217301
H           60.37659680042247       57.92309630113812       67.93578843325989
H           61.99681136330212       58.97802330760295       70.02515963672361
H           61.56880254777299       59.86957263478752       68.56889415919814
H           64.33536408515897       59.65287863767904       69.81646372705052
H           63.47305430792066       61.05713332409889       67.24585535349581
H           65.04417833008877       61.23832433529564       68.02463431080601
H           64.57931280830485       59.68418550339889       67.35182791705458
H           62.30443764549464       61.87875044818278       69.44493410121801
H           63.97829693589799       62.19331385918098       69.86642224559181
H           62.47947633555766       60.27231243998888       71.62624468170715
H           63.92110601573778       61.24765603599100       73.33768656895982
H           64.90469698594767       60.79382709501886       71.94641136894424
H           64.48382290097670       62.48668951779167       72.21501182606977
H           62.01453341073347       63.26023401811887       71.46954928533488
H           61.77929020387377       62.38091801086537       72.97294663318060
H           60.47981557206629       61.26000149098213       70.51810416912363
H           59.48846531022348       61.53572848971218       73.38572194897471
H           58.80069444436032       60.51006544259610       72.12621612188303
H           60.39746439166775       60.15332441754249       72.77456641070489
H           60.02761534851180       63.68646405009137       70.38097726042960
H           59.39627043572176       63.66876540700509       72.02598723392531
H           57.53033728951624       62.22783019381055       71.32042536864351
H           57.39407522431281       64.72263379520668       71.21972495287018
H           57.87903467551772       64.66836082383284       69.52495042758945
H           56.34402987090039       63.96144785780157       70.03218752452626
H           58.68408422964098       61.00921953732875       69.50653804521815
H           58.79384664860137       62.48654299209998       68.56152837910095
H           56.38804887064529       62.54145420230034       68.24836684457395
H           56.22296872471074       60.47234692663517       66.85838015134983
H           57.75181453043955       61.33117984145368       66.65561849819589
H           57.69773694494120       59.86859122105282       67.62579661618206
H           54.89801677596676       60.77418933413425       68.93469035516755
H           55.55116829355507       61.67530675093470       70.28891867965291
H           57.29191104747007       59.61261567053548       70.32122510445548
H           55.88481414283994       58.67708730415701       72.13615931795826
H           55.88893390101492       60.43375111808813       72.20108602203248
H           54.49556336992178       59.58045638893766       71.53344272151401
H           56.11983288471531       58.53901878461593       68.35674678844873
H           54.67677281319379       58.39384687654344       69.35532554427154
H           55.81641200909653       56.83986466120882       70.85697833371530
H           54.72466050569251       55.98786260567041       68.78678449712221
H           56.25516360328060       56.12842491340990       67.92268532032215
H           56.09243792256405       54.98197164058328       69.25068353264480
H           60.22972784350126       52.94396580027993       68.25330424325551
H           60.78548435261111       54.04991502507607       66.99863597915709
C           68.35027763573257       64.57886612496979       59.22977315783437
C           67.92847766003959       64.07196031054923       57.85083247371622
C           68.88187702569500       64.62585975282420       56.79375054882424
C           66.47547440940777       64.47482984987982       57.57493530432390
C           65.85389652368598       63.87253110794367       56.30830056858886
C           64.58470873446416       64.64661742461217       55.95180541902393
C           65.52185630662072       62.38230910864046       56.46903519082820
C           65.53214216149203       61.62564266438650       55.13109558643990
C           64.53684469152664       60.46691606186224       55.14820142104254
C           66.94769507457634       61.11815165112874       54.82296821529510
C           67.24953001983684       60.91845301845780       53.32997435002905
C           68.39770272120036       59.92355537261147       53.17165130460157
C           67.58719006551927       62.27160171109037       52.69305696783623
C           67.77988881635980       62.27460282674506       51.17069454738651
C           68.40883500911178       63.60929760445313       50.76383308567158
C           66.46185524812668       62.03761867890896       50.41120203831444
C           66.55959330203181       61.00636967702475       49.27952986313932
C           67.57609246170585       61.43613899381322       48.22147309318129
C           65.19920472653982       60.81368645409289       48.59423727092060
C           64.13526684323644       60.03883540643883       49.38712491719494
C           64.43597648971991       58.54309694481418       49.36840858957915
C           62.76662114748899       60.35178948880808       48.76747591505214
C           61.52683391876364       59.68187148607687       49.37727676334421
C           60.30950477158900       60.15534658940165       48.58243436857248
C           61.37353346030307       60.01169722741991       50.86611759315014
C           60.17258537599464       59.32690553990577       51.54766211578973
C           59.22169478702668       60.36814489812265       52.13265187454723
C           60.60417630415310       58.34998274465048       52.64745984844985
C           61.26164804856793       57.06417438100618       52.13523711293884
C           60.25424730401497       56.20641833003480       51.36961949746966
C           61.81735196105911       56.22680156575000       53.29519001154583
C           62.97449641067107       56.83794696764503       54.09038024100838
C           64.20768768560797       57.03781265797691       53.20904185775960
C           63.36047962793036       55.94791161291121       55.28162588687491
C           62.26066704115270       55.68372715198949       56.31554993570303
C           61.73452430693957       56.97990807053684       56.92835544770832
C           62.72810448308978       54.69364501044574       57.39597626579399
C           63.95051672755942       55.11346688105304       58.23029017156423
C           65.22255360715400       54.45244075479411       57.70359239899459
C           63.75643157314499       54.74348664558480       59.70753318805070
C           62.78083664776027       55.67033086687248       60.44638371791850
C           63.48859363862410       56.94962883998476       60.88148883680167
C           62.17011113952515       54.93455349110509       61.64291071723543
C           61.14153826925224       55.71518257524669       62.47360737120581
C           60.65914964550123       54.80979582369653       63.60552910351993
C           59.97442893712751       56.19004041790537       61.60344038013075
C           58.88405166832444       57.00890017018123       62.30619245538163
C           57.74953187286869       57.26016449364197       61.31044676876897
C           59.39803070883607       58.35817035375923       62.83815963841710
C           59.81722572083066       58.40388918178814       64.31234019125230
C           58.65158163043576       58.03905595245663       65.23046610486492
C           60.28967504074934       59.81362266293478       64.69700807958330
C           61.51293668790424       60.38017976200241       63.96240948226635
C           62.75474984140116       59.52805030490686       64.20249815718799
C           61.71742114191783       61.82149801662175       64.44960285595756
C           62.78003977329193       62.64945665342686       63.71725190089241
C           63.00652651813729       63.94892997110470       64.49281492050908
C           62.38376019299436       62.94085690926045       62.25832732223576
C           63.49108943399257       62.64121605204183       61.24350678965388
C           64.68802216081623       63.56916022243947       61.44850769034836
C           62.99672407329678       62.79206105864931       59.79875298032696
C           61.96745737290194       61.76658267094501       59.29987898122027
C           62.55135238974962       60.35649678288194       59.29114438968707
C           61.52195742160710       62.19907373859205       57.89522311708194
C           60.47448486399146       61.32335646375507       57.19451525780602
C           60.33485034077058       61.78738271462108       55.74533064267073
C           59.13318813552004       61.39151716212324       57.93076100297832
C           57.97093286537643       60.59841798924339       57.31377240637541
C           56.71459613809753       60.86046471040686       58.14435518868694
C           58.30468688057338       59.10280945849526       57.25377980914218
C           57.17875064276461       58.18365407886266       56.76161694188011
C           57.50903364385176       56.73708868400990       57.12230454887465
C           56.94530343190947       58.33112235254085       55.25350367830136
C           55.60486457754424       57.74561333036178       54.76842629438502
C           55.82199153935769       56.46280766980131       53.96516300320398
C           54.82266899042102       58.73877280642625       53.89745497591745
C           54.34384142652514       60.01846535875168       54.59205525404681
C           53.32409430755619       59.71352554915270       55.68874771310667
C           53.70175660343748       60.98204335069420       53.58185585649544
C           54.59610481270260       61.45867882430709       52.43163044259852
C           55.89584128902870       62.07403953095361       52.95034897853994
C           53.88710238769190       62.50695281214043       51.56087464125853
C           52.51852918217189       62.12487023590066       50.98749527919394
C           52.58996996720215       60.83764312447034       50.16775832648680
C           51.98591241955329       63.24947678055676       50.08842632747576
C           51.64532788373587       64.57692307607158       50.77728362663476
C           50.45755208153735       64.42305909942725       51.72301353828792
C           51.34957716844430       65.62564314367076       49.69703802156220
C           51.21845723749830       67.06400339459222       50.19799090951709
C           52.52452296734866       67.62805747019017       50.74232821284701
H           67.70167616060640       64.18240753805192       60.00704260215569
H           69.37168513194401       64.27925746436324       59.45548255106829
H           68.29891802709814       65.66541238318442       59.26533293269026
H           53.31131649567791       67.55256512967090       49.99414199330432
H           52.40389564329794       68.67643215727819       51.00528390930129
H           52.83944026893655       67.08755032484925       51.63153796915189
H           52.15277386480133       65.59895174734717       48.95589993684627
H           50.42313347877089       65.34521148030942       49.18779877570968
H           52.73471138070533       63.44332327650718       49.31607845693869
H           51.08526539082688       62.89243614584927       49.58371498852851
H           51.81584701434554       61.96759227235699       51.81073217693056
H           53.29655101076172       60.94731595260539       49.34844354841616
H           52.90487836395601       59.99879459842087       50.78217627312531
H           51.61553437863859       60.59965815867559       49.74453815131506
H           53.76996406607206       63.41265756973059       52.15802232320134
H           54.54939735035175       62.75321935271442       50.72546937027762
H           52.82198500943460       60.48690124521328       53.16526468326236
H           53.35249377761297       61.86292329594708       54.12736157849501
H           52.51379754601350       64.90876348616554       51.35158580456601
H           50.25609789828550       65.35387617946091       52.24892106478689
H           49.56554004613873       64.14851213050984       51.16383001634737