3536
 energy: -3716.242823925514 gnorm: 0.000959777395 xtb: 6.6.1 (8d0f1dd)
C           57.78354517956099       56.99780396584642       70.02253868969858
C           56.26476944754326       57.05035630942642       69.87998926358036
C           55.80521625712686       55.97092145907855       68.90101342090597
C           55.77069229604881       58.41525412195560       69.38200993805219
C           56.20685531996796       59.63044686478487       70.21057880920957
C           55.58178375947045       59.57586981120036       71.60541996526487
C           55.80728436819484       60.94613673426736       69.51815099047275
C           56.84468013106604       61.60717325462939       68.59587087824360
C           57.14410746030134       60.76414748235234       67.35792399047064
C           58.17389568024220       61.94581993998190       69.28327370993958
C           58.09201458294267       62.78140223348681       70.56474579618781
C           57.38133099117896       64.11255309254703       70.31839312472086
C           59.49806600992293       63.07154459653646       71.11477692868296
C           60.36454000976048       61.84637764121754       71.43128729431284
C           59.72077086187063       60.95703965931018       72.49277829687480
C           61.76971612551898       62.27931866072805       71.88507749223143
C           62.85501224821296       61.28369090947299       71.45042719264026
C           64.11885576193784       61.46356138130952       72.28884586985922
C           63.17277900251725       61.45957237948979       69.95705323198497
C           63.58358267625969       60.17661807528467       69.21709871188212
C           64.20709665998983       60.55917385708306       67.87640885462368
C           62.35757058100510       59.27172685305430       69.03637442428131
C           62.51684047929597       57.99286007763215       68.19951642129048
C           61.17966304929747       57.25293435793187       68.23492210690092
C           63.65421401723462       57.09381607427033       68.69473136759419
C           63.87631079243795       55.83948628676434       67.82304661530404
C           63.55354242165860       54.56653790928075       68.60522583116223
C           65.31177910033816       55.76582813896184       67.28621012564611
C           65.60429517568602       56.77444992413921       66.16413314138390
C           65.04220763860364       56.27702948690860       64.83458563018054
C           67.11746107232409       57.01240611257426       66.07820214667983
C           67.61014139644092       57.97662312112207       64.98794023203911
C           69.13829300882578       57.99422285343620       65.01921044045778
C           67.03935823446004       59.38473949494118       65.18966681985002
C           67.32538899299820       60.37864269849020       64.05497931985599
C           66.93499728219058       61.78331598194217       64.51690198750930
C           66.58022919201223       59.99597884421195       62.76147988723390
C           67.48952043154755       59.80885262954023       61.53939795017632
C           68.05840589203494       61.15120708505630       61.08742970553673
C           66.69895521150380       59.15275568762203       60.39991417542289
C           67.55681491119574       58.54136776250741       59.28108428361521
C           66.71900270725209       58.43185289961705       58.00831077961778
C           68.09020950483992       57.16799255514200       59.70662543128478
C           69.17597226430335       56.58944538005297       58.78872155022123
C           69.39809378845077       55.11486625741212       59.12349167681258
C           70.49298947611128       57.38402360126917       58.88377190269577
C           70.91233043338100       58.04182600878845       57.56285654188397
C           71.40286920961383       56.98250095699908       56.57549364646571
C           72.02686531569077       59.07601833358873       57.77444231685699
C           71.61835317014410       60.34600337651023       58.53037858194546
C           70.63471535122537       61.19245336809060       57.72518326378002
C           72.86059029218195       61.18439116772470       58.87926588542651
C           72.69380168294055       62.03865689961479       60.14937219715758
C           73.27185760175642       63.43831996861462       59.93751264272898
C           73.37933411993647       61.39437821464897       61.36388747237512
C           72.87275788868457       59.99562798508430       61.74259618816307
C           71.48522920036129       60.07008948498676       62.37394772515439
C           73.87700125621213       59.33143439877372       62.69460639818815
C           73.52567555115333       57.90617142199161       63.14918090587986
C           74.53092102273509       57.46314208567623       64.21197177164566
C           73.51714028856709       56.94272583755754       61.95643783761454
C           73.08191216178503       55.49855773892149       62.24912580813913
C           73.28493690245369       54.66110293167564       60.98557291383815
C           71.62228668241816       55.46338971097050       62.71848452184138
C           71.00895596447195       54.07194322393725       62.93676764043816
C           69.53561579139971       54.23298367550281       63.31127491387884
C           71.78059947981708       53.30975713001162       64.02059086593596
C           71.23395044069136       51.93007794104093       64.41869452199553
C           72.05349805765235       51.41666209485727       65.60345321279306
C           71.29306590790047       50.95329916025174       63.23965071889162
C           70.64170853294453       49.58246754898832       63.47117468350253
C           70.93809954475641       48.68962132702999       62.26476086897580
C           69.12153141798917       49.68434686095384       63.69426019227309
C           68.68040954279813       49.54767050619126       65.15791009382043
C           68.78799404808353       48.09026493865949       65.60725796522829
C           67.23457537618546       50.02610443925428       65.35309366077213
C           67.04035925563619       51.54539487869381       65.27506381068663
C           67.52334937621129       52.22048575975051       66.55839716096786
C           65.56761645255291       51.90341836473783       65.03456734615460
C           65.04904130496739       51.60720775482849       63.62104787863193
C           65.57542960423942       52.64177322239852       62.62780079578769
C           63.51424308078907       51.60693400025880       63.59982712896396
C           62.87147651877338       50.37572893573278       64.25480507611019
C           62.79477936654932       49.21919188782913       63.25860982975566
C           61.46719919066151       50.70139430249115       64.78242114336854
C           61.44280174779357       51.57508432843095       66.04506005011167
C           61.85660308660037       50.77462364703663       67.27722870736011
C           60.04825801464062       52.18336113825853       66.23715949045261
C           60.01185895403707       53.32202618735168       67.25317299703882
C           58.65548410077448       54.01457569022836       67.26541377725952
H           58.10132470599552       55.98823904405186       70.27597834355284
H           58.26002479459938       57.28274454224507       69.08711420350309
H           58.13416851443534       57.66066545568499       70.80902993499977
H           58.65119953250682       54.83569753257667       67.97741645756918
H           58.42224551925047       54.41504931666261       66.28072466871703
H           57.87251799455481       53.31140824326813       67.53958478233572
H           59.70527844797199       52.58041329069211       65.27914122556250
H           59.34835817111650       51.40146155507733       66.54026755167564
H           60.91845772087137       51.20970252518263       63.98584386935255
H           60.93978454874370       49.76873532722507       64.99584311723994
H           63.49256782085684       50.04825944029059       65.09268130187778
H           63.77886717606302       48.99188790527550       62.85562988924945
H           62.41138031855036       48.32151447183867       63.73918284717507
H           62.13318521925414       49.47244724029686       62.43243566208179
H           63.17287231911646       52.51354724335842       64.10170473021493
H           63.17024959104702       51.66457823017431       62.56478631002222
H           64.96573014451793       51.36540788772872       65.76931435930899
H           65.42908959796193       52.97063210006001       65.22603636483694
H           62.15378352842119       52.39816958901532       65.91717966634070
H           62.82876783299231       50.30896447403295       67.13464361556984
H           61.92046137902497       51.41597862059297       68.15252918885963
H           61.12844718821256       49.99149870258190       67.47731981504427
H           65.39984513546732       50.62097154852092       63.30338838535880
H           65.21360731067180       53.63456280733990       62.88781083447816
H           66.66187164848390       52.66677924882051       62.62114293480894
H           65.23945282104053       52.40996698508645       61.62105398582457
H           67.63106118353573       51.93961905497351       64.44488883293013
H           67.47330321949505       53.30332567181398       66.46308496852372
H           66.90230041394440       51.92235318216196       67.40116438687988
H           68.55229481101351       51.95018223746786       66.78127129824071
H           66.61457600758638       49.53572245128920       64.59999648669563
H           66.88117552511825       49.68797299040562       66.33055236844557
H           69.33934107639529       50.14936490989846       65.78853396748669
H           68.56516069157227       47.99805027436032       66.66822945613772
H           68.08198996972820       47.47213381692460       65.05532560728815
H           69.78789151125670       47.69906291874751       65.43633182588464
H           68.77190917929437       50.63547320506103       63.29089199574725
H           68.62247498268003       48.89834877884169       63.12521293215237
H           71.10339667045388       49.11716255191031       64.34561672036992
H           70.51197933029722       49.12334061984098       61.36241182416679
H           72.01069795735275       48.58255519491025       62.11640702996259
H           70.51440038950200       47.69766947256626       62.40621673970149
H           70.80648771628589       51.40841630689570       62.37455672167319
H           72.34383608808756       50.79799184144161       62.97914333664347
H           70.19726837985711       52.04134705751363       64.74231061625311
H           73.09400615322986       51.28006874788210       65.31478065107274
H           72.01901987415494       52.12868244920862       66.42594604632379
H           71.67427931328720       50.46575846957233       65.96789139613414
H           72.81225039142177       53.17543921208988       63.68954895957921
H           71.80340861587653       53.93583058445825       64.91727906773532
H           71.05820427724662       53.51932647335450       61.99479005028156
H           69.43619140007671       54.62647815760231       64.32074410501824
H           69.03634707093691       54.91625533252935       62.62689423799830
H           69.01983309832971       53.27841187215179       63.26329392150148
H           71.54279930021818       56.01406411480347       63.65791106728766
H           71.01769079834341       55.99204415425579       61.97604739158720
H           73.72468687463981       55.09072483280483       63.03306594205055
H           73.12931899548407       53.60405842655786       61.18345911403873
H           72.59139792787998       54.97091157324910       60.20654961681188
H           74.29852299272463       54.78463157144100       60.60948160209474
H           72.85027402054341       57.33630002365367       61.18745038652551
H           74.52627888882881       56.92073067298222       61.53592091565770
H           72.53570766062569       57.92580377444780       63.60998896136306
H           74.25562590651678       56.50050164320990       64.63436924560325
H           75.52779415053708       57.38010321316714       63.78357144834541
H           74.56764010394882       58.18670084841551       65.02377292042534
H           74.85625191698919       59.30527154599602       62.20880773601029
H           73.97178118281860       59.96175063991207       63.58307888270338
H           72.81404671734892       59.39799380720064       60.83134182581012
H           70.82126756148153       60.68473098565595       61.77360278634941
H           71.04498041447820       59.07896208105354       62.45186346390868
H           71.54374487247938       60.50500413781641       63.37015692068326
H           74.44941171977115       61.33291494880675       61.14846625650929
H           73.25997161398223       62.05425616588661       62.22714794245737
H           71.62637708453279       62.15307296623355       60.36256766427988
H           73.14958144296122       64.04471541742353       60.83269544442607
H           74.33361300381326       63.38054052878766       59.70687888555737
H           72.76850629826905       63.94138857909945       59.11441979552899
H           73.72439847501653       60.52979752530388       59.00832569161908
H           73.08396185785490       61.83316075347533       58.02991394909139
H           71.12943543919987       60.05376543993621       59.46280485993758
H           70.41701533981082       62.11733677080010       58.25428258390547
H           71.05518829250661       61.44498529352792       56.75358530036760
H           69.69626801976118       60.66765996147147       57.56279418732575
H           72.83867177579084       58.58605555683145       58.31967627825405
H           72.42262272821746       59.36920776113739       56.79866360692844
H           70.04227751396196       58.54173300956501       57.12667115107350
H           72.31895409722631       56.52274329440389       56.94202145036707
H           70.66106928588570       56.20066594958018       56.43841277741581
H           71.61086227327696       57.42901500191648       55.60517389637728
H           70.38893847005544       58.15035690603485       59.65219359960880
H           71.30018761832123       56.72132385239875       59.20350353251775
H           68.80924032934054       56.63699147662309       57.76062478757601
H           70.15184595546668       54.68013974217675       58.47090986099126
H           69.72664242461339       54.99780446766910       60.15379032658423
H           68.47504021651609       54.55274474864562       58.99397988464694
H           68.49223653448082       57.23454597966043       60.72058308836503
H           67.24680689223234       56.47263957709608       59.73905135473202
H           68.40266685806252       59.20273416425542       59.07740586518094
H           67.29871235280262       58.02665932461940       57.18284369840979
H           65.86406759548370       57.77924785127439       58.17415114785575
H           66.35212620554748       59.41343387956305       57.71526431535744
H           66.06788290649700       58.36180843358698       60.81002511453984
H           66.03389447508907       59.90701476051289       59.97231827735978
H           68.31634828367561       59.15004590084467       61.82479257313169
H           68.73069439028495       61.02920350721450       60.24177091702730
H           67.24924121961079       61.81124868987153       60.78291342661956
H           68.60653945820101       61.63405343387781       61.89235176745353
H           66.02964085233178       59.06802787002157       62.92619741900084
H           65.84303564175099       60.76495945746841       62.52205650852868
H           68.40034232239417       60.38278125301176       63.85700182737565
H           67.10670165129223       62.51069238117145       63.72681137757179
H           65.88315411573477       61.81392225617757       64.79546444575836
H           67.52206804479430       62.07952380689688       65.38392894570586
H           65.95625038020100       59.32347700419311       65.30516276967479
H           67.44629705284385       59.78743972314712       66.12065817628648
H           67.29850300962242       57.59495029096437       64.01202613392918
H           69.53991440710817       58.60803293236506       64.21855601208003
H           69.49627907402215       58.39076347302917       65.96738413859714
H           69.53070326902997       56.98695444573713       64.89963969036386
H           67.46217760075768       57.38959241625783       67.04504844502439
H           67.59987542472084       56.04406527001179       65.91618722499682
H           65.10984479709570       57.71524428294543       66.41892795802829
H           65.06697878305071       57.06321291348377       64.08442912266948
H           65.62578152308608       55.43278094681209       64.47174862311687
H           64.00812329524845       55.95890853654289       64.94717753098146
H           66.00252230887207       55.92928739492327       68.11675708110261
H           65.49850986991122       54.75870769976301       66.90635554279481
H           63.20202961107819       55.88455320334310       66.96290479851064
H           62.54243870751576       54.60565556249594       69.00313604044111
H           63.63507833579003       53.69018529323201       67.96486529898948
H           64.24695596150289       54.44695515941456       69.43539354669527
H           64.57554310808536       57.67575519305647       68.72119230232313
H           63.43681758518419       56.79162680573342       69.72141981947546
H           62.72221146268288       58.27097647050359       67.16084044720361
H           61.17155491549313       56.40196498705244       67.56043225331489
H           60.96937703514876       56.89630892470632       69.24124369702456
H           60.37635122384813       57.92354354119431       67.93750157083841
H           61.99689469384614       58.97712571461705       70.02447294646585
H           61.56854030204423       59.86918015336708       68.56859974257014
H           64.33476516047799       59.65259940478066       69.81626406122213
H           63.47290565121203       61.05778642007498       67.24645587020945
H           65.04405070082990       61.23832825488642       68.02506807116711
H           64.57927335138110       59.68458817517435       67.35144045709465
H           62.30451797556449       61.87860191899512       69.44398807171008
H           63.97828834313756       62.19217773544900       69.86665889176815
H           62.47915890950053       60.27158247507599       71.62582973196544
H           63.92061555796080       61.24749940437705       73.33659286488150
H           64.90412396122306       60.79391163548102       71.94529180787825
H           64.48252019279685       62.48663251797023       72.21369375442532
H           62.01418738493814       63.25918194630049       71.46900319291160
H           61.77848390974839       62.37920349917982       72.97216422173945
H           60.47984067113387       61.25899081631620       70.51718770882039
H           59.48940777956952       61.53631601980879       73.38452925019371
H           58.80065325437558       60.50902934723352       72.12695364713167
H           60.39788591096617       60.15322981047563       72.77412348646408
H           60.02701337833901       63.68576662631750       70.38043457896322
H           59.39644898154776       63.66699479824772       72.02592236424564
H           57.53076742423519       62.22666806203861       71.32069198052787
H           57.39412699733044       64.72130151066062       71.21998030229791
H           57.87943372493990       64.66705551584928       69.52524139675890
H           56.34381163219963       63.96141996866785       70.03213469332947
H           58.68412308050316       61.00828869978313       69.50640880014906
H           58.79407408456152       62.48590695286740       68.56199203104840
H           56.38857614909166       62.54123112031721       68.24927802515576
H           56.22326315729428       60.47190289165813       66.85900598783684
H           57.75211234651626       61.33131640121026       66.65596784787020
H           57.69821264321352       59.86890978097544       67.62627421554073
H           54.89865792907332       60.77385201832581       68.93518982380431
H           55.55247992373968       61.67495412927852       70.28943592729769
H           57.29237408064076       59.61236968577879       70.32059329516888
H           55.88526868466352       58.67705393245460       72.13576400343996
H           55.88900173881519       60.43395511438605       72.20059664962515
H           54.49588291150083       59.58033508776159       71.53266568523563
H           56.11930668902166       58.53896860034699       68.35672260395515
H           54.67721674652010       58.39387930481666       69.35631623235641
H           55.81714082530577       56.84063418800402       70.85679500751129
H           54.72483634321523       55.98834713662896       68.78755837435200
H           56.25475815824525       56.12832333679164       67.92282992127581
H           56.09259402620817       54.98214550037164       69.25084816330730
H           60.22886722899415       52.94344253832412       68.25304300204823
H           60.78542514541422       54.04978579511570       66.99864516750451
C           68.35055805245356       64.57796996085256       59.22910073527601
C           67.92892792284376       64.07036970761072       57.85039733612756
C           68.88175345436440       64.62494919026494       56.79330751646467
C           66.47595531779847       64.47464296466468       57.57516655102201
C           65.85455979164361       63.87323797148528       56.30808557961915
C           64.58513682540567       64.64725003871408       55.95160470695387
C           65.52227634806871       62.38278027723198       56.46888588862465
C           65.53246348120450       61.62627572289334       55.13064229207616
C           64.53676769597281       60.46731823159833       55.14769708627494
C           66.94781831639642       61.11803416533743       54.82253938229401
C           67.24900817683722       60.91811172945181       53.32921658666820
C           68.39776959606209       59.92345091063130       53.17236477065340
C           67.58673248097351       62.27160148762122       52.69271758645463
C           67.77974843315030       62.27379781835995       51.17040129981140
C           68.40793945391610       63.60841795327705       50.76346612405223
C           66.46111775656395       62.03753427864399       50.41131542392499
C           66.55953662352773       61.00569774304238       49.27998582477083
C           67.57546374196167       61.43579067511526       48.22178780877497
C           65.19927689194256       60.81362111757869       48.59397049075688
C           64.13555846232533       60.03909994286015       49.38780612225339
C           64.43594303956867       58.54298432359904       49.36845770806216
C           62.76703431583883       60.35223126141967       48.76758086787673
C           61.52733415915643       59.68155588246320       49.37710902552742
C           60.30949085503617       60.15552956105353       48.58265052172352
C           61.37426249670848       60.01173483303469       50.86617089502384
C           60.17319484776596       59.32626060721808       51.54707791656509
C           59.22223894564983       60.36761271880253       52.13265226446396
C           60.60493297918000       58.34969672615735       52.64756023816069
C           61.26284451775228       57.06390591944244       52.13500477410059
C           60.25494010447872       56.20589322513054       51.36964466883919
C           61.81784617354235       56.22632191565085       53.29544032829160
C           62.97511034051367       56.83847264201212       54.09032791953146
C           64.20817441747245       57.03737781824492       53.20831137024584
C           63.36094477166543       55.94761292688366       55.28144994347265
C           62.26040653749793       55.68336175088702       56.31505389123642
C           61.73479891475776       56.97999671168115       56.92822607272079
C           62.72779842394738       54.69332145936805       57.39604862460758
C           63.95043263380147       55.11389440712158       58.23016177237402
C           65.22226915617037       54.45196724171389       57.70372990454285
C           63.75598435161594       54.74320393192278       59.70741858224842
C           62.78010152773602       55.67061465334106       60.44574916258704
C           63.48889240777974       56.94928563070377       60.88182693266992
C           62.16991841149810       54.93433779473328       61.64260426646096
C           61.14199042340050       55.71576486659966       62.47373951911614
C           60.65931061116425       54.81005114660528       63.60549791494943
C           59.97484152527568       56.19031783841104       61.60292547054412
C           58.88457811111606       57.00897958659306       62.30668661717849
C           57.75006744738485       57.26043160681326       61.31052557970066
C           59.39864982118640       58.35873812123452       62.83785897711787
C           59.81813720553542       58.40405862917338       64.31228235477305
C           58.65202526160028       58.03925418490884       65.23028625863951
C           60.28986982280641       59.81424436289906       64.69656252099242
C           61.51325088070785       60.38038924651342       63.96138628923715
C           62.75493750613372       59.52805526755599       64.20292923689858
C           61.71753584304965       61.82166124338143       64.44934537371519
C           62.78084866588581       62.64899333485846       63.71704072777429
C           63.00679676344697       63.94838430579956       64.49236510760133
C           62.38376762000735       62.94066887313928       62.25810238400859
C           63.49161682745528       62.64071685690900       61.24352130675816
C           64.68808509779113       63.56942480670650       61.44806973408868
C           62.99685815569121       62.79235278334575       59.79868651226118
C           61.96695312814656       61.76689040542232       59.30032049527262
C           62.55134442155610       60.35662736256457       59.29053215750429
C           61.52168348479555       62.19944842854001       57.89533605665677
C           60.47484899610362       61.32266674939516       57.19451511840698
C           60.33423721343436       61.78759354765659       55.74539888666353
C           59.13359306518767       61.39118298373074       57.93141331543013
C           57.97102387579383       60.59895689361912       57.31356015209320
C           56.71482636398022       60.86052847382778       58.14503639015950
C           58.30509613310998       59.10313892312702       57.25376672233957
C           57.17841627709664       58.18401653523122       56.76256760844029
C           57.50945272034465       56.73706766883953       57.12246104475879
C           56.94556509522140       58.33157254886472       55.25400492032974
C           55.60493148036895       57.74606348850028       54.76888201471263
C           55.82257005556762       56.46344449095070       53.96480140504844
C           54.82317060212647       58.73947246657974       53.89724078287136
C           54.34454857468457       60.01939858133298       54.59232141649100
C           53.32417662363682       59.71355971474961       55.68856302573234
C           53.70163673198753       60.98234039657012       53.58161049071411
C           54.59663246599450       61.45870405427984       52.43133757250891
C           55.89597796889138       62.07481127852467       52.95076564620300
C           53.88754292935627       62.50752039854147       51.56076444900445
C           52.51834654718688       62.12521464649033       50.98827323008338
C           52.59011099061706       60.83792706349286       50.16809543423513
C           51.98628742095089       63.24991182964450       50.08862112007554
C           51.64616254380584       64.57757882249622       50.77791075233272
C           50.45771511026969       64.42327400961504       51.72305675191289
C           51.34966413113779       65.62580604785045       49.69706501519298
C           51.21831520166891       67.06406237953718       50.19866745317041
C           52.52482177899836       67.62808808933171       50.74264050371132
H           67.70187465964270       64.18239563176468       60.00685677685065
H           69.37182791727760       64.27849664209684       59.45471990062243
H           68.29896575145064       65.66428694825916       59.26299198352189
H           53.31160362931081       67.55143423909684       49.99461547999626
H           52.40392824037954       68.67651779001180       51.00449725973499
H           52.83910079522596       67.08834793388775       51.63263160532546
H           52.15295179662943       65.59845377072124       48.95647125502112
H           50.42312962585758       65.34438607220962       49.18946987208101
H           52.73535482476560       63.44293222789452       49.31679626513518
H           51.08557010365309       62.89253316879289       49.58498277969846
H           51.81608708532965       61.96797474687125       51.81107312879021
H           53.29645441339137       60.94861836529008       49.34887069956392
H           52.90571856748988       59.99941918940727       50.78258310718071
H           51.61548360396603       60.60002172241084       49.74568015358118
H           53.77123529219573       63.41305937112163       52.15777615087408
H           54.54946733983911       62.75203028970046       50.72505064174106
H           52.82273696371029       60.48635187403598       53.16512370223644
H           53.35296342199963       61.86293856050558       54.12693226869104
H           52.51474274858592       64.90893072313202       51.35150029463957
H           50.25688604772898       65.35412048966707       52.24852644824717
H           49.56671764158887       64.14901748258238       51.16240563142442