      -----------------------------------------------------------      
     |                   =====================                   |     
     |                           x T B                           |     
     |                   =====================                   |     
     |                         S. Grimme                         |     
     |          Mulliken Center for Theoretical Chemistry        |     
     |                    University of Bonn                     |     
      -----------------------------------------------------------      

   * xtb version 6.6.1 (8d0f1dd) compiled by 'stahn@M-Bot' on 2023-08-01

   xtb is free software: you can redistribute it and/or modify it under
   the terms of the GNU Lesser General Public License as published by
   the Free Software Foundation, either version 3 of the License, or
   (at your option) any later version.
   
   xtb is distributed in the hope that it will be useful,
   but WITHOUT ANY WARRANTY; without even the implied warranty of
   MERCHANTABILITY or FITNESS FOR A PARTICULAR PURPOSE.  See the
   GNU Lesser General Public License for more details.
   
   Cite this work as:
   * C. Bannwarth, E. Caldeweyher, S. Ehlert, A. Hansen, P. Pracht,
     J. Seibert, S. Spicher, S. Grimme, WIREs Comput. Mol. Sci., 2020, 11,
     e01493. DOI: 10.1002/wcms.1493
   
   for GFN2-xTB:
   * C. Bannwarth, S. Ehlert and S. Grimme., J. Chem. Theory Comput., 2019,
     15, 1652-1671. DOI: 10.1021/acs.jctc.8b01176
   for GFN1-xTB:
   * S. Grimme, C. Bannwarth, P. Shushkov, J. Chem. Theory Comput., 2017,
     13, 1989-2009. DOI: 10.1021/acs.jctc.7b00118
   for GFN0-xTB:
   * P. Pracht, E. Caldeweyher, S. Ehlert, S. Grimme, ChemRxiv, 2019, preprint.
     DOI: 10.26434/chemrxiv.8326202.v1
   for GFN-FF:
   * S. Spicher and S. Grimme, Angew. Chem. Int. Ed., 2020, 59, 15665-15673.
     DOI: 10.1002/anie.202004239
   
   for ALPB and GBSA implicit solvation:
   * S. Ehlert, M. Stahn, S. Spicher, S. Grimme, J. Chem. Theory Comput.,
     2021, 17, 4250-4261. DOI: 10.1021/acs.jctc.1c00471
   
   for DFT-D4:
   * E. Caldeweyher, C. Bannwarth and S. Grimme, J. Chem. Phys., 2017,
     147, 034112. DOI: 10.1063/1.4993215
   * E. Caldeweyher, S. Ehlert, A. Hansen, H. Neugebauer, S. Spicher,
     C. Bannwarth and S. Grimme, J. Chem. Phys., 2019, 150, 154122.
     DOI: 10.1063/1.5090222
   * E. Caldeweyher, J.-M. Mewes, S. Ehlert and S. Grimme, Phys. Chem. Chem. Phys.
     2020, 22, 8499-8512. DOI: 10.1039/D0CP00502A
   
   for sTDA-xTB:
   * S. Grimme and C. Bannwarth, J. Chem. Phys., 2016, 145, 054103.
     DOI: 10.1063/1.4959605
   
   in the mass-spec context:
   * V. Asgeirsson, C. Bauer and S. Grimme, Chem. Sci., 2017, 8, 4879.
     DOI: 10.1039/c7sc00601b
   * J. Koopman and S. Grimme, ACS Omega 2019, 4, 12, 15120-15133.
     DOI: 10.1021/acsomega.9b02011
   
   for metadynamics refer to:
   * S. Grimme, J. Chem. Theory Comput., 2019, 155, 2847-2862
     DOI: 10.1021/acs.jctc.9b00143
   
   for SPH calculations refer to:
   * S. Spicher and S. Grimme, J. Chem. Theory Comput., 2021, 17, 1701-1714
     DOI: 10.1021/acs.jctc.0c01306
   
   with help from (in alphabetical order)
   P. Atkinson, C. Bannwarth, F. Bohle, G. Brandenburg, E. Caldeweyher
   M. Checinski, S. Dohm, S. Ehlert, S. Ehrlich, I. Gerasimov, C. Hölzer
   A. Katbashev, J. Koopman, C. Lavigne, S. Lehtola, F. März, M. Müller,
   F. Musil, H. Neugebauer, J. Pisarek, C. Plett, P. Pracht, F. Pultar,
   J. Seibert, P. Shushkov, S. Spicher, M. Stahn, M. Steiner, T. Strunk,
   J. Stückrath, T. Rose, and J. Unsleber
   
 * started run on 2024/06/17 at 15:17:35.904     

           -------------------------------------------------
          |                Calculation Setup                |
           -------------------------------------------------

          program call               : /home/abt-grimme/AK-bin/xtb input.xyz --input input.inp --opt --gbsa water
          hostname                   : boar093.thch.uni-bonn.de
          coordinate file            : input.xyz
          omp threads                :                     8

   ID    Z sym.   atoms
    1    6 C      1-120, 363-482, 725-844, 1087-1206, 1449-1568, 1811-1930,
                  2173-2292, 2535-2654, 2897-3016
    2    1 H      121-362, 483-724, 845-1086, 1207-1448, 1569-1810,
                  1931-2172, 2293-2534, 2655-2896, 3017-3258

molecular fragmentation (1/2 indicates fragments):
111111111111111111111111111111111111111111111111111111111111111111111111
111111111111111111111111111111111111111111111111111111111111111111111111
111111111111111111111111111111111111111111111111111111111111111111111111
111111111111111111111111111111111111111111111111111111111111111111111111
111111111111111111111111111111111111111111111111111111111111111111111111
112222222222222222222222222222222222222222222222222222222222222222222222
222222222222222222222222222222222222222222222222222222222222222222222222
222222222222222222222222222222222222222222222222222222222222222222222222
222222222222222222222222222222222222222222222222222222222222222222222222
222222222222222222222222222222222222222222222222222222222222222222222222
222222222222222222222222222222222222222222222222222222222222222222222222
222222222222222222222222222222222222222222222222222222222222222222222222
222222222222222222222222222222222222222222222222222222222222222222222222
222222222222222222222222222222222222222222222222222222222222222222222222
222222222222222222222222222222222222222222222222222222222222222222222222
222222222222222222222222222222222222222222222222222222222222222222222222
222222222222222222222222222222222222222222222222222222222222222222222222
222222222222222222222222222222222222222222222222222222222222222222222222
222222222222222222222222222222222222222222222222222222222222222222222222
222222222222222222222222222222222222222222222222222222222222222222222222
222222222222222222222222222222222222222222222222222222222222222222222222
222222222222222222222222222222222222222222222222222222222222222222222222
222222222222222222222222222222222222222222222222222222222222222222222222
222222222222222222222222222222222222222222222222222222222222222222222222
222222222222222222222222222222222222222222222222222222222222222222222222
222222222222222222222222222222222222222222222222222222222222222222222222
222222222222222222222222222222222222222222222222222222222222222222222222
222222222222222222222222222222222222222222222222222222222222222222222222
222222222222222222222222222222222222222222222222222222222222222222222222
222222222222222222222222222222222222222222222222222222222222222222222222
222222222222222222222222222222222222222222222222222222222222222222222222
222222222222222222222222222222222222222222222222222222222222222222222222
222222222222222222222222222222222222222222222222222222222222222222222222
222222222222222222222222222222222222222222222222222222222222222222222222
222222222222222222222222222222222222222222222222222222222222222222222222
222222222222222222222222222222222222222222222222222222222222222222222222
222222222222222222222222222222222222222222222222222222222222222222222222
222222222222222222222222222222222222222222222222222222222222222222222222
222222222222222222222222222222222222222222222222222222222222222222222222
222222222222222222222222222222222222222222222222222222222222222222222222
222222222222222222222222222222222222222222222222222222222222222222222222
222222222222222222222222222222222222222222222222222222222222222222222222
222222222222222222222222222222222222222222222222222222222222222222222222
222222222222222222222222222222222222222222222222222222222222222222222222
222222222222222222222222222222222222222222222222222222222222222222222222
222222222222222222
# atoms in fragment 1/2:   362  2896
 fragment masses (1/2) :     1685.21    13481.68
CMA distance (Bohr)    :  10.884
constraining FC (au)   :  0.0500

           -------------------------------------------------
          |                 G F N 2 - x T B                 |
           -------------------------------------------------

        Reference                      10.1021/acs.jctc.8b01176
      * Hamiltonian:
        H0-scaling (s, p, d)           1.850000    2.230000    2.230000
        zeta-weighting                 0.500000
      * Dispersion:
        s8                             2.700000
        a1                             0.520000
        a2                             5.000000
        s9                             5.000000
      * Repulsion:
        kExp                           1.500000    1.000000
        rExp                           1.000000
      * Coulomb:
        alpha                          2.000000
        third order                    shell-resolved
        anisotropic                    true
        a3                             3.000000
        a5                             4.000000
        cn-shift                       1.200000
        cn-exp                         4.000000
        max-rad                        5.000000

      * Solvation model:               GBSA
        Solvent                        water
        Parameter file                 internal GFN2-xTB/GBSA
        Dielectric constant                8.0200E+01
        Reference state                gsolv [1 M gas/solution]
        Free energy shift                  1.8574E-03 Eh       1.1656E+00 kcal/mol
        Temperature                        2.9815E+02 K
        Density                            1.0000E+00 kg/L
        Solvent mass                       1.8000E+01 g/mol
        Interaction kernel             Still
        Born radius scaling (c1)           1.5524E+00
        Born radii integrator          GBOBC
        Born offset                        2.4628E-02 a0       4.6540E-02 AA
        H-bond correction              true
        Ion screening                  false
        Surface tension                    1.0000E-05 Eh       1.5569E+01 dyn/cm
        Grid points                               230 per atom
q/qsh data taken from xtbrestart
CAMM data taken from xtbrestart

          ...................................................
          :                      SETUP                      :
          :.................................................:
          :  # basis functions                6498          :
          :  # atomic orbitals                6498          :
          :  # shells                         4338          :
          :  # electrons                      6498          :
          :  max. iterations                   250          :
          :  Hamiltonian                  GFN2-xTB          :
          :  restarted?                       true          :
          :  GBSA solvation                   true          :
          :  PC potential                    false          :
          :  electronic temp.          300.0000000     K    :
          :  accuracy                    1.0000000          :
          :  -> integral cutoff          0.2500000E+02      :
          :  -> integral neglect         0.1000000E-07      :
          :  -> SCF convergence          0.1000000E-05 Eh   :
          :  -> wf. convergence          0.1000000E-03 e    :
          :  Broyden damping             0.4000000          :
          ...................................................

 iter      E             dE          RMSdq      gap      omega  full diag
   1  -3472.2837392 -0.347228E+04  0.928E-05   10.75       0.0  T
   2  -3472.2837393 -0.522596E-08  0.706E-05   10.75      24.8  T
   3  -3472.2837393 -0.688078E-08  0.349E-05   10.75      50.2  T

   *** convergence criteria satisfied after 3 iterations ***

         #    Occupation            Energy/Eh            Energy/eV
      -------------------------------------------------------------
         1        2.0000           -0.6159651             -16.7613
       ...           ...                  ...                  ...
      3243        2.0000           -0.3855892             -10.4924
      3244        2.0000           -0.3851070             -10.4793
      3245        2.0000           -0.3850427             -10.4775
      3246        2.0000           -0.3844554             -10.4616
      3247        2.0000           -0.3840847             -10.4515
      3248        2.0000           -0.3833286             -10.4309
      3249        2.0000           -0.3822282             -10.4010 (HOMO)
      3250                          0.0128068               0.3485 (LUMO)
      3251                          0.0178463               0.4856
      3252                          0.0188898               0.5140
      3253                          0.0193728               0.5272
      3254                          0.0203348               0.5533
       ...                                ...                  ...
      6498                          0.3834090              10.4331
      -------------------------------------------------------------
                  HL-Gap            0.3950350 Eh           10.7494 eV
             Fermi-level           -0.1847107 Eh           -5.0262 eV

 SCC (total)                   0 d,  0 h,  7 min, 27.386 sec
 SCC setup                      ...        0 min,  1.716 sec (  0.383%)
 Dispersion                     ...        0 min,  3.506 sec (  0.784%)
 classical contributions        ...        0 min,  0.138 sec (  0.031%)
 integral evaluation            ...        0 min,  5.942 sec (  1.328%)
 iterations                     ...        3 min, 13.446 sec ( 43.239%)
 molecular gradient             ...        3 min, 53.866 sec ( 52.274%)
 printout                       ...        0 min,  8.773 sec (  1.961%)

         :::::::::::::::::::::::::::::::::::::::::::::::::::::
         ::                     SUMMARY                     ::
         :::::::::::::::::::::::::::::::::::::::::::::::::::::
         :: total energy           -3426.810628073650 Eh    ::
         :: total w/o Gsasa/hb     -3426.718268339986 Eh    ::
         :: gradient norm              0.629874327559 Eh/a0 ::
         :: HOMO-LUMO gap             10.749448747118 eV    ::
         ::.................................................::
         :: SCC energy             -3472.283739258672 Eh    ::
         :: -> isotropic ES            0.281900617226 Eh    ::
         :: -> anisotropic ES          1.284281629603 Eh    ::
         :: -> anisotropic XC          2.133093907652 Eh    ::
         :: -> dispersion             -4.243101219098 Eh    ::
         :: -> Gsolv                  -0.029943685318 Eh    ::
         ::    -> Gelec                0.062416048346 Eh    ::
         ::    -> Gsasa               -0.090155397899 Eh    ::
         ::    -> Ghb                 -0.004061778892 Eh    ::
         ::    -> Gshift               0.001857443127 Eh    ::
         :: repulsion energy          44.776431058564 Eh    ::
         :: add. restraining           0.000000000000 Eh    ::
         :: total charge              -0.000000000010 e     ::
         :::::::::::::::::::::::::::::::::::::::::::::::::::::

      ----------------------------------------------------------- 
     |              Fast Inertial Relaxation Engine              |
      ----------------------------------------------------------- 

          ...................................................
          :                      SETUP                      :
          :.................................................:
          :   energy convergence        0.5000000E-05 Eh    :
          :   grad. convergence         0.1000000E-02 Eh/a0 :
          :   optimization log               true           :
          :   writing optlog all                1     steps :
          :   Hessian reset                    20     steps :
          :   time step scaling                 5     steps :
          :   maximium step len.        1.0000000     a0    :
          :   initial time step         0.2500000     fs    :
          :   maximum time step         1.2500000     fs    :
          :   power reset thr           0.0000000     au    :
          :   alpha parameter           0.1000000           :
          :   BFGS update                   false           :
          :   preconditioning               false           :
          ...................................................

........................................................................
.............................. CYCLE    1 ..............................
........................................................................

 iter      E             dE          RMSdq      gap      omega  full diag
   1  -3472.5170488 -0.347252E+04  0.741E-03   10.79       0.0  T
   2  -3472.5170930 -0.442016E-04  0.388E-03   10.79       1.0  T
   3  -3472.5170934 -0.413346E-06  0.181E-03   10.79       1.0  T
   4  -3472.5170935 -0.145793E-06  0.220E-04   10.79       8.0  T
   5  -3472.5170936 -0.353280E-07  0.139E-04   10.79      12.6  T
     SCC iter.                  ...        4 min, 57.302 sec
     gradient                   ...        3 min, 54.472 sec
 * total energy  : -3426.8557839 Eh     change    :  -0.4515579E-01 Eh
   gradient norm :     0.5962027 Eh/a0  converged?    E=F G=F D=F
   time step     :     0.2500000 fs     power     :   0.2330267E-05
   step length   :     0.0738199 a0     speed     :   0.7142475E-02

........................................................................
.............................. CYCLE    2 ..............................
........................................................................

 iter      E             dE          RMSdq      gap      omega  full diag
   1  -3472.8607394 -0.347286E+04  0.108E-02   10.84       0.0  T
   2  -3472.8608338 -0.943577E-04  0.567E-03   10.84       1.0  T
   3  -3472.8608347 -0.947055E-06  0.265E-03   10.84       1.0  T
   4  -3472.8608351 -0.353202E-06  0.338E-04   10.84       5.2  T
   5  -3472.8608352 -0.827258E-07  0.221E-04   10.84       7.9  T
     SCC iter.                  ...        4 min, 53.487 sec
     gradient                   ...        3 min, 52.551 sec
 * total energy  : -3426.9178529 Eh     change    :  -0.6206899E-01 Eh
   gradient norm :     0.5477965 Eh/a0  converged?    E=F G=F D=F
   time step     :     0.2500000 fs     power     :   0.3150549E-05
   step length   :     0.1086927 a0     speed     :   0.1051661E-01

........................................................................
.............................. CYCLE    3 ..............................
........................................................................

 iter      E             dE          RMSdq      gap      omega  full diag
   1  -3473.3057376 -0.347331E+04  0.139E-02   10.91       0.0  T
   2  -3473.3058909 -0.153240E-03  0.727E-03   10.91       1.0  T
   3  -3473.3058925 -0.162738E-05  0.337E-03   10.91       1.0  T
   4  -3473.3058931 -0.601175E-06  0.443E-04   10.91       4.0  T
   5  -3473.3058932 -0.137276E-06  0.290E-04   10.91       6.0  T
     SCC iter.                  ...        4 min, 52.884 sec
     gradient                   ...        3 min, 52.971 sec
 * total energy  : -3426.9903884 Eh     change    :  -0.7253556E-01 Eh
   gradient norm :     0.4874402 Eh/a0  converged?    E=F G=F D=F
   time step     :     0.2500000 fs     power     :   0.3611243E-05
   step length   :     0.1407004 a0     speed     :   0.1361352E-01

........................................................................
.............................. CYCLE    4 ..............................
........................................................................

 iter      E             dE          RMSdq      gap      omega  full diag
   1  -3473.8405252 -0.347384E+04  0.164E-02   10.91       0.0  T
   2  -3473.8407361 -0.210890E-03  0.860E-03   10.91       1.0  T
   3  -3473.8407385 -0.240730E-05  0.395E-03   10.91       1.0  T
   4  -3473.8407394 -0.860030E-06  0.535E-04   10.91       3.3  T
   5  -3473.8407396 -0.190078E-06  0.350E-04   10.91       5.0  T
     SCC iter.                  ...        4 min, 49.729 sec
     gradient                   ...        3 min, 52.721 sec
 * total energy  : -3427.0661518 Eh     change    :  -0.7576343E-01 Eh
   gradient norm :     0.4195705 Eh/a0  converged?    E=F G=F D=F
   time step     :     0.2500000 fs     power     :   0.3683460E-05
   step length   :     0.1690095 a0     speed     :   0.1635258E-01

........................................................................
.............................. CYCLE    5 ..............................
........................................................................

 iter      E             dE          RMSdq      gap      omega  full diag
   1  -3474.4512367 -0.347445E+04  0.184E-02   10.92       0.0  T
   2  -3474.4514934 -0.256617E-03  0.961E-03   10.92       1.0  T
   3  -3474.4514966 -0.323480E-05  0.435E-03   10.92       1.0  T
   4  -3474.4514977 -0.109671E-05  0.612E-04   10.91       2.9  T
   5  -3474.4514979 -0.230469E-06  0.398E-04   10.91       4.4  T
   6  -3474.4514981 -0.129821E-06  0.169E-04   10.91      10.4  T
     SCC iter.                  ...        5 min, 54.393 sec
     gradient                   ...        3 min, 52.139 sec
 * total energy  : -3427.1381454 Eh     change    :  -0.7199359E-01 Eh
   gradient norm :     0.3509250 Eh/a0  converged?    E=F G=F D=F
   time step     :     0.2500000 fs     power     :   0.3396960E-05
   step length   :     0.1928985 a0     speed     :   0.1866397E-01

........................................................................
.............................. CYCLE    6 ..............................
........................................................................

 iter      E             dE          RMSdq      gap      omega  full diag
   1  -3475.1948223 -0.347519E+04  0.218E-02   10.91       0.0  T
   2  -3475.1951653 -0.343048E-03  0.114E-02   10.91       1.0  T
   3  -3475.1951703 -0.492187E-05  0.502E-03   10.91       1.0  T
   4  -3475.1951718 -0.149668E-05  0.737E-04   10.91       2.4  T
   5  -3475.1951721 -0.293361E-06  0.466E-04   10.91       3.8  T
   6  -3475.1951722 -0.147871E-06  0.181E-04   10.91       9.7  T
     SCC iter.                  ...        5 min, 59.762 sec
     gradient                   ...        3 min, 53.919 sec
 * total energy  : -3427.2065842 Eh     change    :  -0.6843876E-01 Eh
   gradient norm :     0.2850376 Eh/a0  converged?    E=F G=F D=F
   time step     :     0.2750000 fs     power     :   0.2760114E-05
   step length   :     0.2350356 a0     speed     :   0.2067360E-01

........................................................................
.............................. CYCLE    7 ..............................
........................................................................

 iter      E             dE          RMSdq      gap      omega  full diag
   1  -3476.0656496 -0.347607E+04  0.249E-02   10.90       0.0  T
   2  -3476.0660518 -0.402234E-03  0.130E-02   10.90       1.0  T
   3  -3476.0660591 -0.722966E-05  0.545E-03   10.90       1.0  T
   4  -3476.0660610 -0.194969E-05  0.869E-04   10.89       2.0  T
   5  -3476.0660614 -0.333303E-06  0.539E-04   10.89       3.2  T
   6  -3476.0660615 -0.166363E-06  0.188E-04   10.89       9.3  T
     SCC iter.                  ...        5 min, 53.867 sec
     gradient                   ...        3 min, 53.330 sec
 * total energy  : -3427.2634699 Eh     change    :  -0.5688576E-01 Eh
   gradient norm :     0.2418465 Eh/a0  converged?    E=F G=F D=F
   time step     :     0.3025000 fs     power     :   0.1870102E-05
   step length   :     0.2769062 a0     speed     :   0.2214229E-01

........................................................................
.............................. CYCLE    8 ..............................
........................................................................

 iter      E             dE          RMSdq      gap      omega  full diag
   1  -3477.0272965 -0.347703E+04  0.272E-02   10.89       0.0  T
   2  -3477.0276810 -0.384520E-03  0.144E-02   10.89       1.0  T
   3  -3477.0276909 -0.986715E-05  0.537E-03   10.89       1.0  T
   4  -3477.0276931 -0.219910E-05  0.978E-04   10.89       1.8  T
   5  -3477.0276934 -0.302698E-06  0.587E-04   10.89       3.0  T
   6  -3477.0276936 -0.154821E-06  0.174E-04   10.89      10.1  T
     SCC iter.                  ...        5 min, 46.255 sec
     gradient                   ...        3 min, 53.405 sec
 * total energy  : -3427.3034736 Eh     change    :  -0.4000365E-01 Eh
   gradient norm :     0.2363776 Eh/a0  converged?    E=F G=F D=F
   time step     :     0.3327500 fs     power     :   0.9659365E-06
   step length   :     0.3126172 a0     speed     :   0.2272532E-01

........................................................................
.............................. CYCLE    9 ..............................
........................................................................

 iter      E             dE          RMSdq      gap      omega  full diag
   1  -3478.0038176 -0.347800E+04  0.291E-02   10.90       0.0  T
   2  -3478.0040911 -0.273520E-03  0.158E-02   10.90       1.0  T
   3  -3478.0041033 -0.121365E-04  0.452E-03   10.90       1.0  T
   4  -3478.0041053 -0.197762E-05  0.104E-03   10.90       1.7  T
   5  -3478.0041055 -0.193374E-06  0.584E-04   10.90       3.0  T
   6  -3478.0041056 -0.112233E-06  0.133E-04   10.90      13.2  T
     SCC iter.                  ...        5 min, 46.145 sec
     gradient                   ...        3 min, 53.119 sec
 * total energy  : -3427.3272130 Eh     change    :  -0.2373944E-01 Eh
   gradient norm :     0.2498833 Eh/a0  converged?    E=F G=F D=F
   time step     :     0.3660250 fs     power     :   0.3031458E-06
   step length   :     0.3364978 a0     speed     :   0.2223753E-01

........................................................................
.............................. CYCLE   10 ..............................
........................................................................

 iter      E             dE          RMSdq      gap      omega  full diag
   1  -3478.9017432 -0.347890E+04  0.314E-02   10.90       0.0  T
   2  -3478.9018727 -0.129512E-03  0.178E-02   10.90       1.0  T
   3  -3478.9018860 -0.132747E-04  0.291E-03   10.90       1.0  T
   4  -3478.9018874 -0.145161E-05  0.104E-03   10.90       1.7  T
   5  -3478.9018875 -0.655523E-07  0.515E-04   10.90       3.4  T
   6  -3478.9018876 -0.673226E-07  0.747E-05   10.90      23.5  T
     SCC iter.                  ...        5 min, 46.581 sec
     gradient                   ...        3 min, 54.558 sec
 * total energy  : -3427.3392548 Eh     change    :  -0.1204180E-01 Eh
   gradient norm :     0.2490065 Eh/a0  converged?    E=F G=F D=F
   time step     :     0.4026275 fs     power     :  -0.8884726E-07
   step length   :     0.3496463 a0     speed     :   0.2100587E-01

........................................................................
.............................. CYCLE   11 ..............................
........................................................................
 * reset velocities

 iter      E             dE          RMSdq      gap      omega  full diag
   1  -3478.8848735 -0.347888E+04  0.117E-03   10.90       0.0  T
   2  -3478.8848743 -0.775531E-06  0.668E-04   10.90       2.6  T
   3  -3478.8848743 -0.408454E-08  0.264E-04   10.90       6.6  T
     SCC iter.                  ...        2 min, 56.097 sec
     gradient                   ...        3 min, 52.390 sec
 * total energy  : -3427.3415775 Eh     change    :  -0.2322698E-02 Eh
   gradient norm :     0.2419825 Eh/a0  converged?    E=F G=F D=F
   time step     :     0.2013138 fs     power     :   0.1509127E-06
   step length   :     0.0094617 a0     speed     :   0.1136865E-02

........................................................................
.............................. CYCLE   12 ..............................
........................................................................

 iter      E             dE          RMSdq      gap      omega  full diag
   1  -3478.8512821 -0.347885E+04  0.229E-03   10.90       0.0  T
   2  -3478.8512851 -0.299976E-05  0.132E-03   10.90       1.3  T
   3  -3478.8512851 -0.171995E-07  0.519E-04   10.90       3.4  T
   4  -3478.8512851 -0.841146E-08  0.430E-05   10.90      40.7  T
     SCC iter.                  ...        3 min, 53.549 sec
     gradient                   ...        3 min, 54.010 sec
 * total energy  : -3427.3459635 Eh     change    :  -0.4385965E-02 Eh
   gradient norm :     0.2282165 Eh/a0  converged?    E=F G=F D=F
   time step     :     0.2013138 fs     power     :   0.2806131E-06
   step length   :     0.0186563 a0     speed     :   0.2241652E-02

........................................................................
.............................. CYCLE   13 ..............................
........................................................................

 iter      E             dE          RMSdq      gap      omega  full diag
   1  -3478.8019820 -0.347880E+04  0.335E-03   10.90       0.0  T
   2  -3478.8019885 -0.649245E-05  0.192E-03   10.90       1.0  T
   3  -3478.8019885 -0.426880E-07  0.764E-04   10.90       2.3  T
   4  -3478.8019885 -0.224813E-07  0.718E-05   10.90      24.4  T
     SCC iter.                  ...        3 min, 49.970 sec
     gradient                   ...        3 min, 53.387 sec
 * total energy  : -3427.3519249 Eh     change    :  -0.5961405E-02 Eh
   gradient norm :     0.2081577 Eh/a0  converged?    E=F G=F D=F
   time step     :     0.2013138 fs     power     :   0.3747843E-06
   step length   :     0.0273273 a0     speed     :   0.3283514E-02

........................................................................
.............................. CYCLE   14 ..............................
........................................................................

 iter      E             dE          RMSdq      gap      omega  full diag
   1  -3478.7382738 -0.347874E+04  0.431E-03   10.90       0.0  T
   2  -3478.7382846 -0.108013E-04  0.247E-03   10.90       1.0  T
   3  -3478.7382847 -0.741338E-07  0.987E-04   10.90       1.8  T
   4  -3478.7382847 -0.398568E-07  0.961E-05   10.90      18.2  T
     SCC iter.                  ...        4 min,  4.957 sec
     gradient                   ...        3 min, 52.528 sec
 * total energy  : -3427.3588027 Eh     change    :  -0.6877847E-02 Eh
   gradient norm :     0.1825316 Eh/a0  converged?    E=F G=F D=F
   time step     :     0.2013138 fs     power     :   0.4233103E-06
   step length   :     0.0352336 a0     speed     :   0.4233489E-02

........................................................................
.............................. CYCLE   15 ..............................
........................................................................

 iter      E             dE          RMSdq      gap      omega  full diag
   1  -3478.6618894 -0.347866E+04  0.514E-03   10.90       0.0  T
   2  -3478.6619048 -0.154553E-04  0.295E-03   10.90       1.0  T
   3  -3478.6619049 -0.108102E-06  0.118E-03   10.90       1.5  T
   4  -3478.6619050 -0.585455E-07  0.117E-04   10.90      15.0  T
   5  -3478.6619050 -0.158211E-07  0.802E-05   10.90      21.8  T
     SCC iter.                  ...        4 min, 54.484 sec
     gradient                   ...        3 min, 53.853 sec
 * total energy  : -3427.3658455 Eh     change    :  -0.7042754E-02 Eh
   gradient norm :     0.1523245 Eh/a0  converged?    E=F G=F D=F
   time step     :     0.2013138 fs     power     :   0.4214647E-06
   step length   :     0.0421582 a0     speed     :   0.5065513E-02

........................................................................
.............................. CYCLE   16 ..............................
........................................................................

 iter      E             dE          RMSdq      gap      omega  full diag
   1  -3478.5750099 -0.347858E+04  0.580E-03   10.90       0.0  T
   2  -3478.5750298 -0.198897E-04  0.333E-03   10.90       1.0  T
   3  -3478.5750300 -0.128315E-06  0.134E-03   10.90       1.3  T
   4  -3478.5750300 -0.672317E-07  0.125E-04   10.90      14.0  T
   5  -3478.5750300 -0.184946E-07  0.833E-05   10.90      21.0  T
     SCC iter.                  ...        4 min, 55.934 sec
     gradient                   ...        3 min, 55.951 sec
 * total energy  : -3427.3722986 Eh     change    :  -0.6453069E-02 Eh
   gradient norm :     0.1189757 Eh/a0  converged?    E=F G=F D=F
   time step     :     0.2013138 fs     power     :   0.3707211E-06
   step length   :     0.0479121 a0     speed     :   0.5756874E-02

........................................................................
.............................. CYCLE   17 ..............................
........................................................................

 iter      E             dE          RMSdq      gap      omega  full diag
   1  -3478.4699543 -0.347847E+04  0.696E-03   10.90       0.0  T
   2  -3478.4699832 -0.289436E-04  0.400E-03   10.90       1.0  T
   3  -3478.4699834 -0.181506E-06  0.162E-03   10.90       1.1  T
   4  -3478.4699835 -0.939954E-07  0.148E-04   10.90      11.8  T
   5  -3478.4699835 -0.264481E-07  0.971E-05   10.90      18.0  T
     SCC iter.                  ...        4 min, 55.125 sec
     gradient                   ...        3 min, 53.450 sec
 * total energy  : -3427.3779522 Eh     change    :  -0.5653632E-02 Eh
   gradient norm :     0.0812751 Eh/a0  converged?    E=F G=F D=F
   time step     :     0.2214451 fs     power     :   0.2670791E-06
   step length   :     0.0580564 a0     speed     :   0.6341605E-02

........................................................................
.............................. CYCLE   18 ..............................
........................................................................

 iter      E             dE          RMSdq      gap      omega  full diag
   1  -3478.3484118 -0.347835E+04  0.797E-03   10.90       0.0  T
   2  -3478.3484504 -0.386431E-04  0.459E-03   10.90       1.0  T
   3  -3478.3484506 -0.239740E-06  0.187E-03   10.90       1.0  T
   4  -3478.3484508 -0.122519E-06  0.170E-04   10.90      10.3  T
   5  -3478.3484508 -0.351902E-07  0.110E-04   10.90      16.0  T
     SCC iter.                  ...        4 min, 58.037 sec
     gradient                   ...        3 min, 54.171 sec
 * total energy  : -3427.3816726 Eh     change    :  -0.3720383E-02 Eh
   gradient norm :     0.0486384 Eh/a0  converged?    E=F G=F D=F
   time step     :     0.2435896 fs     power     :   0.1163953E-06
   step length   :     0.0678761 a0     speed     :   0.6740207E-02

........................................................................
.............................. CYCLE   19 ..............................
........................................................................

 iter      E             dE          RMSdq      gap      omega  full diag
   1  -3478.2200768 -0.347822E+04  0.835E-03   10.90       0.0  T
   2  -3478.2201202 -0.433541E-04  0.482E-03   10.90       1.0  T
   3  -3478.2201205 -0.271664E-06  0.199E-03   10.90       1.0  T
   4  -3478.2201206 -0.134125E-06  0.180E-04   10.90       9.8  T
   5  -3478.2201206 -0.397067E-07  0.112E-04   10.90      15.6  T
     SCC iter.                  ...        4 min, 53.767 sec
     gradient                   ...        3 min, 53.669 sec
 * total energy  : -3427.3825463 Eh     change    :  -0.8737648E-03 Eh
   gradient norm :     0.0542762 Eh/a0  converged?    E=F G=F D=F
   time step     :     0.2679486 fs     power     :  -0.4422889E-07
   step length   :     0.0746391 a0     speed     :   0.6737984E-02

........................................................................
.............................. CYCLE   20 ..............................
........................................................................
 * reset velocities

 iter      E             dE          RMSdq      gap      omega  full diag
   1  -3478.2212858 -0.347822E+04  0.119E-04   10.90       0.0  T
   2  -3478.2212858 -0.553109E-08  0.765E-05   10.90      22.9  T
   3  -3478.2212858 -0.322007E-08  0.336E-05   10.90      52.2  T
     SCC iter.                  ...        3 min,  2.149 sec
     gradient                   ...        3 min, 53.539 sec
 * total energy  : -3427.3825957 Eh     change    :  -0.4940461E-04 Eh
   gradient norm :     0.0539198 Eh/a0  converged?    E=F G=F D=T
   time step     :     0.1339743 fs     power     :   0.4877913E-08
   step length   :     0.0009134 a0     speed     :   0.1649132E-03
 * RMSD in coord.:     0.0346915 a0     energy gain  -0.5719677E+00 Eh

........................................................................
.............................. CYCLE   21 ..............................
........................................................................

 iter      E             dE          RMSdq      gap      omega  full diag
   1  -3478.2274508 -0.347823E+04  0.549E-04   10.90       0.0  T
   2  -3478.2274509 -0.836376E-07  0.312E-04   10.90       5.6  T
   3  -3478.2274509 -0.755335E-09  0.839E-05   10.90      20.9  T
     SCC iter.                  ...        3 min,  2.690 sec
     gradient                   ...        3 min, 54.605 sec
 * total energy  : -3427.3828537 Eh     change    :  -0.2579807E-03 Eh
   gradient norm :     0.0521921 Eh/a0  converged?    E=F G=F D=F
   time step     :     0.2500000 fs     power     :   0.1346607E-07
   step length   :     0.0048641 a0     speed     :   0.4706235E-03

........................................................................
.............................. CYCLE   22 ..............................
........................................................................

 iter      E             dE          RMSdq      gap      omega  full diag
   1  -3478.2373115 -0.347824E+04  0.894E-04   10.90       0.0  T
   2  -3478.2373117 -0.213577E-06  0.509E-04   10.90       3.4  T
   3  -3478.2373117 -0.377759E-08  0.135E-04   10.90      13.0  T
     SCC iter.                  ...        2 min, 55.679 sec
     gradient                   ...        3 min, 53.768 sec
 * total energy  : -3427.3832562 Eh     change    :  -0.4024918E-03 Eh
   gradient norm :     0.0495690 Eh/a0  converged?    E=F G=F D=F
   time step     :     0.2500000 fs     power     :   0.2077774E-07
   step length   :     0.0079212 a0     speed     :   0.7664193E-03

........................................................................
.............................. CYCLE   23 ..............................
........................................................................

 iter      E             dE          RMSdq      gap      omega  full diag
   1  -3478.2503797 -0.347825E+04  0.120E-03   10.90       0.0  T
   2  -3478.2503800 -0.373319E-06  0.684E-04   10.90       2.6  T
   3  -3478.2503800 -0.865293E-08  0.178E-04   10.90       9.8  T
     SCC iter.                  ...        2 min, 55.183 sec
     gradient                   ...        3 min, 54.399 sec
 * total energy  : -3427.3837727 Eh     change    :  -0.5164382E-03 Eh
   gradient norm :     0.0463751 Eh/a0  converged?    E=F G=F D=F
   time step     :     0.2500000 fs     power     :   0.2637874E-07
   step length   :     0.0108185 a0     speed     :   0.1046750E-02

........................................................................
.............................. CYCLE   24 ..............................
........................................................................

 iter      E             dE          RMSdq      gap      omega  full diag
   1  -3478.2659703 -0.347827E+04  0.146E-03   10.90       0.0  T
   2  -3478.2659708 -0.525171E-06  0.834E-04   10.90       2.1  T
   3  -3478.2659708 -0.143746E-07  0.211E-04   10.90       8.3  T
     SCC iter.                  ...        2 min, 56.485 sec
     gradient                   ...        3 min, 53.867 sec
 * total energy  : -3427.3843688 Eh     change    :  -0.5961250E-03 Eh
   gradient norm :     0.0430622 Eh/a0  converged?    E=F G=F D=F
   time step     :     0.2500000 fs     power     :   0.3016148E-07
   step length   :     0.0135103 a0     speed     :   0.1307190E-02

........................................................................
.............................. CYCLE   25 ..............................
........................................................................

 iter      E             dE          RMSdq      gap      omega  full diag
   1  -3478.2832049 -0.347828E+04  0.167E-03   10.90       0.0  T
   2  -3478.2832055 -0.629011E-06  0.951E-04   10.90       1.8  T
   3  -3478.2832055 -0.202508E-07  0.230E-04   10.90       7.6  T
     SCC iter.                  ...        2 min, 53.945 sec
     gradient                   ...        3 min, 53.684 sec
 * total energy  : -3427.3850133 Eh     change    :  -0.6445603E-03 Eh
   gradient norm :     0.0401539 Eh/a0  converged?    E=F G=F D=F
   time step     :     0.2500000 fs     power     :   0.3238488E-07
   step length   :     0.0159652 a0     speed     :   0.1544715E-02

........................................................................
.............................. CYCLE   26 ..............................
........................................................................

 iter      E             dE          RMSdq      gap      omega  full diag
   1  -3478.3029647 -0.347830E+04  0.201E-03   10.90       0.0  T
   2  -3478.3029655 -0.799936E-06  0.114E-03   10.90       1.5  T
   3  -3478.3029655 -0.298669E-07  0.257E-04   10.90       6.8  T
   4  -3478.3029655 -0.117634E-07  0.626E-05   10.90      28.0  T
     SCC iter.                  ...        4 min,  1.202 sec
     gradient                   ...        3 min, 52.859 sec
 * total energy  : -3427.3857571 Eh     change    :  -0.7437319E-03 Eh
   gradient norm :     0.0379522 Eh/a0  converged?    E=F G=F D=F
   time step     :     0.2750000 fs     power     :   0.3367893E-07
   step length   :     0.0202361 a0     speed     :   0.1779953E-02

........................................................................
.............................. CYCLE   27 ..............................
........................................................................

 iter      E             dE          RMSdq      gap      omega  full diag
   1  -3478.3240120 -0.347832E+04  0.231E-03   10.90       0.0  T
   2  -3478.3240129 -0.870074E-06  0.132E-03   10.90       1.3  T
   3  -3478.3240129 -0.372625E-07  0.263E-04   10.90       6.7  T
   4  -3478.3240129 -0.149721E-07  0.694E-05   10.90      25.2  T
     SCC iter.                  ...        3 min, 49.595 sec
     gradient                   ...        3 min, 52.733 sec
 * total energy  : -3427.3866027 Eh     change    :  -0.8456406E-03 Eh
   gradient norm :     0.0370070 Eh/a0  converged?    E=F G=F D=F
   time step     :     0.3025000 fs     power     :   0.3472898E-07
   step length   :     0.0251214 a0     speed     :   0.2008783E-02

........................................................................
.............................. CYCLE   28 ..............................
........................................................................

 iter      E             dE          RMSdq      gap      omega  full diag
   1  -3478.3442728 -0.347834E+04  0.254E-03   10.90       0.0  T
   2  -3478.3442735 -0.738909E-06  0.146E-03   10.90       1.2  T
   3  -3478.3442736 -0.464138E-07  0.236E-04   10.90       7.4  T
   4  -3478.3442736 -0.176783E-07  0.760E-05   10.90      23.0  T
     SCC iter.                  ...        3 min, 51.856 sec
     gradient                   ...        3 min, 52.968 sec
 * total energy  : -3427.3875762 Eh     change    :  -0.9735086E-03 Eh
   gradient norm :     0.0372503 Eh/a0  converged?    E=F G=F D=F
   time step     :     0.3327500 fs     power     :   0.3662846E-07
   step length   :     0.0306959 a0     speed     :   0.2231397E-02

........................................................................
.............................. CYCLE   29 ..............................
........................................................................

 iter      E             dE          RMSdq      gap      omega  full diag
   1  -3478.3610618 -0.347836E+04  0.271E-03   10.90       0.0  T
   2  -3478.3610623 -0.456619E-06  0.156E-03   10.90       1.1  T
   3  -3478.3610623 -0.526952E-07  0.184E-04   10.90       9.5  T
   4  -3478.3610623 -0.201653E-07  0.796E-05   10.90      22.0  T
     SCC iter.                  ...        3 min, 52.164 sec
     gradient                   ...        3 min, 53.469 sec
 * total energy  : -3427.3887351 Eh     change    :  -0.1158838E-02 Eh
   gradient norm :     0.0376806 Eh/a0  converged?    E=F G=F D=F
   time step     :     0.3660250 fs     power     :   0.4018536E-07
   step length   :     0.0371828 a0     speed     :   0.2457230E-02

........................................................................
.............................. CYCLE   30 ..............................
........................................................................

 iter      E             dE          RMSdq      gap      omega  full diag
   1  -3478.3716517 -0.347837E+04  0.287E-03   10.90       0.0  T
   2  -3478.3716520 -0.264513E-06  0.168E-03   10.90       1.0  T
   3  -3478.3716521 -0.540381E-07  0.149E-04   10.90      11.7  T
   4  -3478.3716521 -0.240734E-07  0.795E-05   10.90      22.1  T
     SCC iter.                  ...        4 min,  0.065 sec
     gradient                   ...        3 min, 53.327 sec
 * total energy  : -3427.3901511 Eh     change    :  -0.1415996E-02 Eh
   gradient norm :     0.0368389 Eh/a0  converged?    E=F G=F D=F
   time step     :     0.4026275 fs     power     :   0.4500457E-07
   step length   :     0.0450008 a0     speed     :   0.2703532E-02

........................................................................
.............................. CYCLE   31 ..............................
........................................................................

 iter      E             dE          RMSdq      gap      omega  full diag
   1  -3478.3741626 -0.347837E+04  0.316E-03   10.90       0.0  T
   2  -3478.3741631 -0.538191E-06  0.187E-03   10.90       1.0  T
   3  -3478.3741632 -0.521841E-07  0.169E-04   10.90      10.4  T
   4  -3478.3741632 -0.289415E-07  0.744E-05   10.90      23.5  T
     SCC iter.                  ...        3 min, 54.809 sec
     gradient                   ...        3 min, 53.029 sec
 * total energy  : -3427.3918610 Eh     change    :  -0.1709969E-02 Eh
   gradient norm :     0.0337373 Eh/a0  converged?    E=F G=F D=F
   time step     :     0.4428903 fs     power     :   0.4905936E-07
   step length   :     0.0546409 a0     speed     :   0.2984263E-02

........................................................................
.............................. CYCLE   32 ..............................
........................................................................

 iter      E             dE          RMSdq      gap      omega  full diag
   1  -3478.3690704 -0.347837E+04  0.362E-03   10.90       0.0  T
   2  -3478.3690718 -0.145614E-05  0.217E-03   10.90       1.0  T
   3  -3478.3690719 -0.589976E-07  0.263E-04   10.90       6.7  T
   4  -3478.3690719 -0.330101E-07  0.759E-05   10.90      23.1  T
     SCC iter.                  ...        3 min, 55.903 sec
     gradient                   ...        3 min, 52.669 sec
 * total energy  : -3427.3938101 Eh     change    :  -0.1949119E-02 Eh
   gradient norm :     0.0290981 Eh/a0  converged?    E=F G=F D=F
   time step     :     0.4871793 fs     power     :   0.4963224E-07
   step length   :     0.0664172 a0     speed     :   0.3297666E-02

........................................................................
.............................. CYCLE   33 ..............................
........................................................................

 iter      E             dE          RMSdq      gap      omega  full diag
   1  -3478.3615354 -0.347836E+04  0.418E-03   10.90       0.0  T
   2  -3478.3615378 -0.234971E-05  0.251E-03   10.90       1.0  T
   3  -3478.3615378 -0.713499E-07  0.337E-04   10.90       5.2  T
   4  -3478.3615379 -0.366940E-07  0.796E-05   10.90      22.0  T
     SCC iter.                  ...        3 min, 53.051 sec
     gradient                   ...        3 min, 52.585 sec
 * total energy  : -3427.3958641 Eh     change    :  -0.2053944E-02 Eh
   gradient norm :     0.0262486 Eh/a0  converged?    E=F G=F D=F
   time step     :     0.5358972 fs     power     :   0.4615094E-07
   step length   :     0.0802058 a0     speed     :   0.3620255E-02

........................................................................
.............................. CYCLE   34 ..............................
........................................................................

 iter      E             dE          RMSdq      gap      omega  full diag
   1  -3478.3633797 -0.347836E+04  0.468E-03   10.90       0.0  T
   2  -3478.3633815 -0.180599E-05  0.281E-03   10.90       1.0  T
   3  -3478.3633816 -0.890968E-07  0.251E-04   10.90       7.0  T
   4  -3478.3633816 -0.368341E-07  0.837E-05   10.90      20.9  T
     SCC iter.                  ...        3 min, 52.136 sec
     gradient                   ...        3 min, 53.895 sec
 * total energy  : -3427.3979600 Eh     change    :  -0.2095942E-02 Eh
   gradient norm :     0.0270404 Eh/a0  converged?    E=F G=F D=F
   time step     :     0.5894869 fs     power     :   0.4258828E-07
   step length   :     0.0951808 a0     speed     :   0.3905622E-02

........................................................................
.............................. CYCLE   35 ..............................
........................................................................

 iter      E             dE          RMSdq      gap      omega  full diag
   1  -3478.3882044 -0.347839E+04  0.533E-03   10.91       0.0  T
   2  -3478.3882049 -0.462438E-06  0.315E-03   10.90       1.0  T
   3  -3478.3882050 -0.126345E-06  0.165E-04   10.90      10.6  T
   4  -3478.3882050 -0.252903E-07  0.928E-05   10.90      18.9  T
     SCC iter.                  ...        3 min, 52.524 sec
     gradient                   ...        3 min, 54.003 sec
 * total energy  : -3427.4002126 Eh     change    :  -0.2252601E-02 Eh
   gradient norm :     0.0266349 Eh/a0  converged?    E=F G=F D=F
   time step     :     0.6484356 fs     power     :   0.4228879E-07
   step length   :     0.1108527 a0     speed     :   0.4135180E-02

........................................................................
.............................. CYCLE   36 ..............................
........................................................................

 iter      E             dE          RMSdq      gap      omega  full diag
   1  -3478.4419771 -0.347844E+04  0.641E-03   10.91       0.0  T
   2  -3478.4419784 -0.128289E-05  0.371E-03   10.91       1.0  T
   3  -3478.4419786 -0.172814E-06  0.245E-04   10.91       7.2  T
   4  -3478.4419786 -0.220125E-07  0.106E-04   10.91      16.5  T
     SCC iter.                  ...        3 min, 52.980 sec
     gradient                   ...        3 min, 52.953 sec
 * total energy  : -3427.4026632 Eh     change    :  -0.2450552E-02 Eh
   gradient norm :     0.0224262 Eh/a0  converged?    E=F G=F D=F
   time step     :     0.7132792 fs     power     :   0.4093200E-07
   step length   :     0.1286426 a0     speed     :   0.4362551E-02

........................................................................
.............................. CYCLE   37 ..............................
........................................................................

 iter      E             dE          RMSdq      gap      omega  full diag
   1  -3478.5129872 -0.347851E+04  0.730E-03   10.91       0.0  T
   2  -3478.5129903 -0.312660E-05  0.418E-03   10.91       1.0  T
   3  -3478.5129905 -0.190822E-06  0.401E-04   10.91       4.4  T
   4  -3478.5129905 -0.317127E-07  0.112E-04   10.91      15.7  T
     SCC iter.                  ...        3 min, 53.084 sec
     gradient                   ...        3 min, 53.847 sec
 * total energy  : -3427.4050944 Eh     change    :  -0.2431174E-02 Eh
   gradient norm :     0.0220363 Eh/a0  converged?    E=F G=F D=F
   time step     :     0.7846071 fs     power     :   0.3522110E-07
   step length   :     0.1492937 a0     speed     :   0.4602611E-02

........................................................................
.............................. CYCLE   38 ..............................
........................................................................

 iter      E             dE          RMSdq      gap      omega  full diag
   1  -3478.5658754 -0.347857E+04  0.694E-03   10.91       0.0  T
   2  -3478.5658763 -0.911093E-06  0.403E-03   10.91       1.0  T
   3  -3478.5658765 -0.169432E-06  0.202E-04   10.91       8.7  T
   4  -3478.5658765 -0.171949E-07  0.927E-05   10.91      18.9  T
     SCC iter.                  ...        3 min, 55.234 sec
     gradient                   ...        3 min, 53.160 sec
 * total energy  : -3427.4075707 Eh     change    :  -0.2476337E-02 Eh
   gradient norm :     0.0242237 Eh/a0  converged?    E=F G=F D=F
   time step     :     0.8630678 fs     power     :   0.3388051E-07
   step length   :     0.1702095 a0     speed     :   0.4770391E-02

........................................................................
.............................. CYCLE   39 ..............................
........................................................................

 iter      E             dE          RMSdq      gap      omega  full diag
   1  -3478.5765882 -0.347858E+04  0.641E-03   10.91       0.0  T
   2  -3478.5765904 -0.221857E-05  0.384E-03   10.91       1.0  T
   3  -3478.5765906 -0.202604E-06  0.241E-04   10.91       7.3  T
   4  -3478.5765906 -0.253422E-07  0.115E-04   10.91      15.3  T
     SCC iter.                  ...        3 min, 51.370 sec
     gradient                   ...        3 min, 53.062 sec
 * total energy  : -3427.4103615 Eh     change    :  -0.2790799E-02 Eh
   gradient norm :     0.0208988 Eh/a0  converged?    E=F G=F D=F
   time step     :     0.9493746 fs     power     :   0.3460916E-07
   step length   :     0.1930581 a0     speed     :   0.4918872E-02

........................................................................
.............................. CYCLE   40 ..............................
........................................................................

 iter      E             dE          RMSdq      gap      omega  full diag
   1  -3478.5640753 -0.347856E+04  0.646E-03   10.92       0.0  T
   2  -3478.5640804 -0.509629E-05  0.388E-03   10.92       1.0  T
   3  -3478.5640806 -0.285951E-06  0.451E-04   10.92       3.9  T
   4  -3478.5640807 -0.526916E-07  0.157E-04   10.92      11.1  T
     SCC iter.                  ...        3 min, 51.957 sec
     gradient                   ...        3 min, 52.210 sec
 * total energy  : -3427.4132884 Eh     change    :  -0.2926871E-02 Eh
   gradient norm :     0.0232514 Eh/a0  converged?    E=F G=F D=F
   time step     :     1.0443120 fs     power     :   0.3219007E-07
   step length   :     0.2206035 a0     speed     :   0.5109720E-02

........................................................................
.............................. CYCLE   41 ..............................
........................................................................

 iter      E             dE          RMSdq      gap      omega  full diag
   1  -3478.5845357 -0.347858E+04  0.735E-03   10.92       0.0  T
   2  -3478.5845366 -0.906738E-06  0.430E-03   10.92       1.0  T
   3  -3478.5845368 -0.277211E-06  0.240E-04   10.92       7.3  T
   4  -3478.5845369 -0.311857E-07  0.142E-04   10.92      12.4  T
     SCC iter.                  ...        3 min, 52.852 sec
     gradient                   ...        3 min, 52.250 sec
 * total energy  : -3427.4166941 Eh     change    :  -0.3405782E-02 Eh
   gradient norm :     0.0212173 Eh/a0  converged?    E=F G=F D=F
   time step     :     1.1487432 fs     power     :   0.3593124E-07
   step length   :     0.2500625 a0     speed     :   0.5265512E-02

........................................................................
.............................. CYCLE   42 ..............................
........................................................................

 iter      E             dE          RMSdq      gap      omega  full diag
   1  -3478.6336824 -0.347863E+04  0.891E-03   10.93       0.0  T
   2  -3478.6336862 -0.379767E-05  0.516E-03   10.93       1.0  T
   3  -3478.6336864 -0.262854E-06  0.394E-04   10.93       4.4  T
   4  -3478.6336865 -0.394898E-07  0.124E-04   10.93      14.1  T
     SCC iter.                  ...        3 min, 52.594 sec
     gradient                   ...        3 min, 52.758 sec
 * total energy  : -3427.4204203 Eh     change    :  -0.3726156E-02 Eh
   gradient norm :     0.0217426 Eh/a0  converged?    E=F G=F D=F
   time step     :     1.2500000 fs     power     :   0.3402777E-07
   step length   :     0.2841613 a0     speed     :   0.5498827E-02
 * RMSD in coord.:     0.0327145 a0     energy gain  -0.3782456E-01 Eh

........................................................................
.............................. CYCLE   43 ..............................
........................................................................

 iter      E             dE          RMSdq      gap      omega  full diag
   1  -3478.6365417 -0.347864E+04  0.143E-03   10.93       0.0  T
   2  -3478.6365418 -0.387117E-07  0.839E-04   10.93       2.1  T
   3  -3478.6365418 -0.102291E-07  0.495E-05   10.93      35.4  T
     SCC iter.                  ...        2 min, 57.866 sec
     gradient                   ...        3 min, 54.650 sec
 * total energy  : -3427.4211366 Eh     change    :  -0.7162559E-03 Eh
   gradient norm :     0.0216587 Eh/a0  converged?    E=F G=F D=F
   time step     :     0.2500000 fs     power     :   0.3738514E-07
   step length   :     0.0550807 a0     speed     :   0.5329351E-02

........................................................................
.............................. CYCLE   44 ..............................
........................................................................

 iter      E             dE          RMSdq      gap      omega  full diag
   1  -3478.6331904 -0.347863E+04  0.136E-03   10.93       0.0  T
   2  -3478.6331906 -0.174854E-06  0.797E-04   10.93       2.2  T
   3  -3478.6331906 -0.110335E-07  0.858E-05   10.93      20.4  T
     SCC iter.                  ...        3 min,  0.063 sec
     gradient                   ...        3 min, 53.078 sec
 * total energy  : -3427.4219015 Eh     change    :  -0.7649431E-03 Eh
   gradient norm :     0.0200445 Eh/a0  converged?    E=F G=F D=F
   time step     :     0.2500000 fs     power     :   0.3976839E-07
   step length   :     0.0538525 a0     speed     :   0.5210515E-02

........................................................................
.............................. CYCLE   45 ..............................
........................................................................

 iter      E             dE          RMSdq      gap      omega  full diag
   1  -3478.6254269 -0.347863E+04  0.148E-03   10.93       0.0  T
   2  -3478.6254273 -0.411063E-06  0.867E-04   10.93       2.0  T
   3  -3478.6254273 -0.135778E-07  0.159E-04   10.93      11.0  T
     SCC iter.                  ...        3 min,  2.494 sec
     gradient                   ...        3 min, 53.418 sec
 * total energy  : -3427.4226819 Eh     change    :  -0.7804350E-03 Eh
   gradient norm :     0.0179438 Eh/a0  converged?    E=F G=F D=F
   time step     :     0.2500000 fs     power     :   0.4006378E-07
   step length   :     0.0532303 a0     speed     :   0.5150316E-02

........................................................................
.............................. CYCLE   46 ..............................
........................................................................

 iter      E             dE          RMSdq      gap      omega  full diag
   1  -3478.6161298 -0.347862E+04  0.161E-03   10.93       0.0  T
   2  -3478.6161303 -0.523500E-06  0.941E-04   10.93       1.9  T
   3  -3478.6161303 -0.152181E-07  0.184E-04   10.93       9.5  T
     SCC iter.                  ...        2 min, 54.006 sec
     gradient                   ...        3 min, 53.599 sec
 * total energy  : -3427.4234444 Eh     change    :  -0.7624795E-03 Eh
   gradient norm :     0.0168161 Eh/a0  converged?    E=F G=F D=F
   time step     :     0.2500000 fs     power     :   0.3879816E-07
   step length   :     0.0530886 a0     speed     :   0.5136608E-02

........................................................................
.............................. CYCLE   47 ..............................
........................................................................

 iter      E             dE          RMSdq      gap      omega  full diag
   1  -3478.6088236 -0.347861E+04  0.164E-03   10.94       0.0  T
   2  -3478.6088240 -0.388523E-06  0.959E-04   10.94       1.8  T
   3  -3478.6088240 -0.140867E-07  0.146E-04   10.94      12.0  T
     SCC iter.                  ...        2 min, 54.995 sec
     gradient                   ...        3 min, 54.768 sec
 * total energy  : -3427.4241806 Eh     change    :  -0.7362149E-03 Eh
   gradient norm :     0.0170136 Eh/a0  converged?    E=F G=F D=F
   time step     :     0.2500000 fs     power     :   0.3760609E-07
   step length   :     0.0530566 a0     speed     :   0.5133510E-02

........................................................................
.............................. CYCLE   48 ..............................
........................................................................

 iter      E             dE          RMSdq      gap      omega  full diag
   1  -3478.6060207 -0.347861E+04  0.177E-03   10.94       0.0  T
   2  -3478.6060209 -0.184639E-06  0.104E-03   10.94       1.7  T
   3  -3478.6060209 -0.138698E-07  0.817E-05   10.94      21.4  T
   4  -3478.6060209 -0.429236E-08  0.286E-05   10.94      61.3  T
     SCC iter.                  ...        3 min, 55.281 sec
     gradient                   ...        3 min, 53.610 sec
 * total energy  : -3427.4249781 Eh     change    :  -0.7974591E-03 Eh
   gradient norm :     0.0173792 Eh/a0  converged?    E=F G=F D=F
   time step     :     0.2750000 fs     power     :   0.3733068E-07
   step length   :     0.0582174 a0     speed     :   0.5120771E-02

........................................................................
.............................. CYCLE   49 ..............................
........................................................................

 iter      E             dE          RMSdq      gap      omega  full diag
   1  -3478.6101296 -0.347861E+04  0.196E-03   10.94       0.0  T
   2  -3478.6101297 -0.647869E-07  0.114E-03   10.94       1.5  T
   3  -3478.6101297 -0.149439E-07  0.592E-05   10.94      29.6  T
   4  -3478.6101297 -0.482214E-08  0.272E-05   10.94      64.3  T
     SCC iter.                  ...        3 min, 50.708 sec
     gradient                   ...        3 min, 55.621 sec
 * total energy  : -3427.4258568 Eh     change    :  -0.8786919E-03 Eh
   gradient norm :     0.0166194 Eh/a0  converged?    E=F G=F D=F
   time step     :     0.3025000 fs     power     :   0.3748249E-07
   step length   :     0.0638868 a0     speed     :   0.5108590E-02

........................................................................
.............................. CYCLE   50 ..............................
........................................................................

 iter      E             dE          RMSdq      gap      omega  full diag
   1  -3478.6218055 -0.347862E+04  0.225E-03   10.94       0.0  T
   2  -3478.6218057 -0.216224E-06  0.131E-03   10.94       1.3  T
   3  -3478.6218058 -0.208975E-07  0.930E-05   10.94      18.8  T
   4  -3478.6218058 -0.488035E-08  0.352E-05   10.94      49.8  T
     SCC iter.                  ...        3 min, 51.857 sec
     gradient                   ...        3 min, 52.065 sec
 * total energy  : -3427.4268112 Eh     change    :  -0.9543830E-03 Eh
   gradient norm :     0.0146796 Eh/a0  converged?    E=F G=F D=F
   time step     :     0.3327500 fs     power     :   0.3659922E-07
   step length   :     0.0705049 a0     speed     :   0.5125266E-02

........................................................................
.............................. CYCLE   51 ..............................
........................................................................

 iter      E             dE          RMSdq      gap      omega  full diag
   1  -3478.6386501 -0.347864E+04  0.252E-03   10.94       0.0  T
   2  -3478.6386506 -0.499026E-06  0.146E-03   10.94       1.2  T
   3  -3478.6386506 -0.277787E-07  0.154E-04   10.94      11.4  T
   4  -3478.6386506 -0.647788E-08  0.440E-05   10.94      39.8  T
     SCC iter.                  ...        3 min, 57.709 sec
     gradient                   ...        3 min, 55.392 sec
 * total energy  : -3427.4278063 Eh     change    :  -0.9951599E-03 Eh
   gradient norm :     0.0134985 Eh/a0  converged?    E=F G=F D=F
   time step     :     0.3660250 fs     power     :   0.3410710E-07
   step length   :     0.0784579 a0     speed     :   0.5184908E-02

........................................................................
.............................. CYCLE   52 ..............................
........................................................................

 iter      E             dE          RMSdq      gap      omega  full diag
   1  -3478.6536629 -0.347865E+04  0.256E-03   10.94       0.0  T
   2  -3478.6536633 -0.394312E-06  0.149E-03   10.94       1.2  T
   3  -3478.6536633 -0.300552E-07  0.129E-04   10.94      13.6  T
   4  -3478.6536633 -0.616956E-08  0.437E-05   10.94      40.1  T
     SCC iter.                  ...        3 min, 54.420 sec
     gradient                   ...        3 min, 57.706 sec
 * total energy  : -3427.4288272 Eh     change    :  -0.1020917E-02 Eh
   gradient norm :     0.0142721 Eh/a0  converged?    E=F G=F D=F
   time step     :     0.4026275 fs     power     :   0.3185729E-07
   step length   :     0.0873297 a0     speed     :   0.5246549E-02

........................................................................
.............................. CYCLE   53 ..............................
........................................................................

 iter      E             dE          RMSdq      gap      omega  full diag
   1  -3478.6591516 -0.347866E+04  0.243E-03   10.95       0.0  T
   2  -3478.6591517 -0.106718E-06  0.143E-03   10.95       1.2  T
   3  -3478.6591517 -0.300365E-07  0.749E-05   10.95      23.4  T
   4  -3478.6591517 -0.506770E-08  0.399E-05   10.95      43.9  T
     SCC iter.                  ...        4 min,  0.961 sec
     gradient                   ...        3 min, 56.546 sec
 * total energy  : -3427.4299128 Eh     change    :  -0.1085511E-02 Eh
   gradient norm :     0.0143251 Eh/a0  converged?    E=F G=F D=F
   time step     :     0.4428903 fs     power     :   0.3118569E-07
   step length   :     0.0963343 a0     speed     :   0.5261385E-02

........................................................................
.............................. CYCLE   54 ..............................
........................................................................

 iter      E             dE          RMSdq      gap      omega  full diag
   1  -3478.6522094 -0.347865E+04  0.249E-03   10.95       0.0  T
   2  -3478.6522099 -0.431186E-06  0.147E-03   10.95       1.2  T
   3  -3478.6522099 -0.382229E-07  0.123E-04   10.95      14.2  T
   4  -3478.6522099 -0.681348E-08  0.494E-05   10.95      35.5  T
     SCC iter.                  ...        3 min, 57.044 sec
     gradient                   ...        3 min, 53.968 sec
 * total energy  : -3427.4310808 Eh     change    :  -0.1168074E-02 Eh
   gradient norm :     0.0127143 Eh/a0  converged?    E=F G=F D=F
   time step     :     0.4871793 fs     power     :   0.3024346E-07
   step length   :     0.1062725 a0     speed     :   0.5276514E-02

........................................................................
.............................. CYCLE   55 ..............................
........................................................................

 iter      E             dE          RMSdq      gap      omega  full diag
   1  -3478.6384128 -0.347864E+04  0.259E-03   10.95       0.0  T
   2  -3478.6384138 -0.920195E-06  0.153E-03   10.95       1.1  T
   3  -3478.6384138 -0.516775E-07  0.216E-04   10.95       8.1  T
   4  -3478.6384138 -0.104114E-07  0.650E-05   10.95      26.9  T
     SCC iter.                  ...        3 min, 57.027 sec
     gradient                   ...        3 min, 54.076 sec
 * total energy  : -3427.4322951 Eh     change    :  -0.1214292E-02 Eh
   gradient norm :     0.0128499 Eh/a0  converged?    E=F G=F D=F
   time step     :     0.5358972 fs     power     :   0.2819592E-07
   step length   :     0.1180534 a0     speed     :   0.5328589E-02

........................................................................
.............................. CYCLE   56 ..............................
........................................................................

 iter      E             dE          RMSdq      gap      omega  full diag
   1  -3478.6328041 -0.347863E+04  0.251E-03   10.95       0.0  T
   2  -3478.6328045 -0.375528E-06  0.148E-03   10.95       1.2  T
   3  -3478.6328046 -0.516138E-07  0.130E-04   10.96      13.5  T
   4  -3478.6328046 -0.919272E-08  0.647E-05   10.96      27.1  T
     SCC iter.                  ...        3 min, 55.594 sec
     gradient                   ...        3 min, 55.037 sec
 * total energy  : -3427.4335833 Eh     change    :  -0.1288145E-02 Eh
   gradient norm :     0.0136791 Eh/a0  converged?    E=F G=F D=F
   time step     :     0.5894869 fs     power     :   0.2771874E-07
   step length   :     0.1304516 a0     speed     :   0.5352915E-02

........................................................................
.............................. CYCLE   57 ..............................
........................................................................

 iter      E             dE          RMSdq      gap      omega  full diag
   1  -3478.6448405 -0.347864E+04  0.288E-03   10.96       0.0  T
   2  -3478.6448408 -0.326988E-06  0.167E-03   10.96       1.0  T
   3  -3478.6448409 -0.418477E-07  0.142E-04   10.96      12.3  T
   4  -3478.6448409 -0.116229E-07  0.586E-05   10.96      29.9  T
     SCC iter.                  ...        3 min, 55.468 sec
     gradient                   ...        3 min, 55.063 sec
 * total energy  : -3427.4350006 Eh     change    :  -0.1417294E-02 Eh
   gradient norm :     0.0121725 Eh/a0  converged?    E=F G=F D=F
   time step     :     0.6484356 fs     power     :   0.2761308E-07
   step length   :     0.1437799 a0     speed     :   0.5363479E-02

........................................................................
.............................. CYCLE   58 ..............................
........................................................................

 iter      E             dE          RMSdq      gap      omega  full diag
   1  -3478.6685802 -0.347867E+04  0.334E-03   10.96       0.0  T
   2  -3478.6685809 -0.738129E-06  0.193E-03   10.96       1.0  T
   3  -3478.6685810 -0.411042E-07  0.209E-04   10.96       8.4  T
   4  -3478.6685810 -0.135242E-07  0.585E-05   10.96      30.0  T
     SCC iter.                  ...        4 min,  3.271 sec
     gradient                   ...        3 min, 53.970 sec
 * total energy  : -3427.4365060 Eh     change    :  -0.1505483E-02 Eh
   gradient norm :     0.0126630 Eh/a0  converged?    E=F G=F D=F
   time step     :     0.7132792 fs     power     :   0.2632543E-07
   step length   :     0.1598728 a0     speed     :   0.5421633E-02

........................................................................
.............................. CYCLE   59 ..............................
........................................................................

 iter      E             dE          RMSdq      gap      omega  full diag
   1  -3478.6829270 -0.347868E+04  0.314E-03   10.97       0.0  T
   2  -3478.6829272 -0.219942E-06  0.185E-03   10.97       1.0  T
   3  -3478.6829273 -0.539108E-07  0.120E-04   10.97      14.6  T
   4  -3478.6829273 -0.102455E-07  0.694E-05   10.97      25.2  T
     SCC iter.                  ...        3 min, 55.140 sec
     gradient                   ...        3 min, 54.383 sec
 * total energy  : -3427.4381476 Eh     change    :  -0.1641564E-02 Eh
   gradient norm :     0.0123088 Eh/a0  converged?    E=F G=F D=F
   time step     :     0.7846071 fs     power     :   0.2662095E-07
   step length   :     0.1769988 a0     speed     :   0.5456741E-02

........................................................................
.............................. CYCLE   60 ..............................
........................................................................

 iter      E             dE          RMSdq      gap      omega  full diag
   1  -3478.6839113 -0.347868E+04  0.331E-03   10.97       0.0  T
   2  -3478.6839126 -0.135173E-05  0.201E-03   10.97       1.0  T
   3  -3478.6839127 -0.711661E-07  0.241E-04   10.98       7.3  T
   4  -3478.6839127 -0.185669E-07  0.843E-05   10.98      20.8  T
     SCC iter.                  ...        3 min, 56.604 sec
     gradient                   ...        3 min, 53.354 sec
 * total energy  : -3427.4399257 Eh     change    :  -0.1778080E-02 Eh
   gradient norm :     0.0112923 Eh/a0  converged?    E=F G=F D=F
   time step     :     0.8630678 fs     power     :   0.2552100E-07
   step length   :     0.1969333 a0     speed     :   0.5519369E-02

........................................................................
.............................. CYCLE   61 ..............................
........................................................................

 iter      E             dE          RMSdq      gap      omega  full diag
   1  -3478.7014472 -0.347870E+04  0.386E-03   10.98       0.0  T
   2  -3478.7014476 -0.362118E-06  0.230E-03   10.98       1.0  T
   3  -3478.7014476 -0.576692E-07  0.126E-04   10.98      13.9  T
   4  -3478.7014476 -0.116779E-07  0.655E-05   10.98      26.7  T
     SCC iter.                  ...        4 min,  4.598 sec
     gradient                   ...        3 min, 55.005 sec
 * total energy  : -3427.4418118 Eh     change    :  -0.1886153E-02 Eh
   gradient norm :     0.0111013 Eh/a0  converged?    E=F G=F D=F
   time step     :     0.9493746 fs     power     :   0.2494334E-07
   step length   :     0.2197522 a0     speed     :   0.5599003E-02

........................................................................
.............................. CYCLE   62 ..............................
........................................................................

 iter      E             dE          RMSdq      gap      omega  full diag
   1  -3478.7456316 -0.347875E+04  0.542E-03   10.99       0.0  T
   2  -3478.7456329 -0.123989E-05  0.313E-03   10.99       1.0  T
   3  -3478.7456330 -0.760870E-07  0.248E-04   10.99       7.1  T
   4  -3478.7456330 -0.154773E-07  0.706E-05   10.99      24.8  T
     SCC iter.                  ...        3 min, 55.806 sec
     gradient                   ...        3 min, 53.820 sec
 * total energy  : -3427.4437863 Eh     change    :  -0.1974457E-02 Eh
   gradient norm :     0.0103805 Eh/a0  converged?    E=F G=F D=F
   time step     :     1.0443120 fs     power     :   0.2283597E-07
   step length   :     0.2453866 a0     speed     :   0.5683760E-02

........................................................................
.............................. CYCLE   63 ..............................
........................................................................

 iter      E             dE          RMSdq      gap      omega  full diag
   1  -3478.7612549 -0.347876E+04  0.507E-03   11.00       0.0  T
   2  -3478.7612557 -0.829889E-06  0.300E-03   11.00       1.0  T
   3  -3478.7612558 -0.666264E-07  0.172E-04   11.00      10.2  T
   4  -3478.7612558 -0.285318E-07  0.708E-05   11.00      24.8  T
     SCC iter.                  ...        3 min, 58.741 sec
     gradient                   ...        3 min, 54.529 sec
 * total energy  : -3427.4458052 Eh     change    :  -0.2018870E-02 Eh
   gradient norm :     0.0090046 Eh/a0  converged?    E=F G=F D=F
   time step     :     1.1487432 fs     power     :   0.2144116E-07
   step length   :     0.2733479 a0     speed     :   0.5755830E-02

........................................................................
.............................. CYCLE   64 ..............................
........................................................................

 iter      E             dE          RMSdq      gap      omega  full diag
   1  -3478.7592523 -0.347876E+04  0.514E-03   11.01       0.0  T
   2  -3478.7592540 -0.174330E-05  0.307E-03   11.01       1.0  T
   3  -3478.7592541 -0.658047E-07  0.234E-04   11.01       7.5  T
   4  -3478.7592541 -0.347236E-07  0.761E-05   11.01      23.0  T
     SCC iter.                  ...        4 min,  2.193 sec
     gradient                   ...        3 min, 52.917 sec
 * total energy  : -3427.4477951 Eh     change    :  -0.1989926E-02 Eh
   gradient norm :     0.0105961 Eh/a0  converged?    E=F G=F D=F
   time step     :     1.2500000 fs     power     :   0.1895085E-07
   step length   :     0.3022234 a0     speed     :   0.5848348E-02

........................................................................
.............................. CYCLE   65 ..............................
........................................................................

 iter      E             dE          RMSdq      gap      omega  full diag
   1  -3478.8000492 -0.347880E+04  0.616E-03   11.02       0.0  T
   2  -3478.8000511 -0.191637E-05  0.356E-03   11.02       1.0  T
   3  -3478.8000512 -0.714886E-07  0.309E-04   11.02       5.7  T
   4  -3478.8000512 -0.313903E-07  0.758E-05   11.02      23.1  T
     SCC iter.                  ...        3 min, 59.871 sec
     gradient                   ...        3 min, 52.929 sec
 * total energy  : -3427.4496379 Eh     change    :  -0.1842809E-02 Eh
   gradient norm :     0.0103375 Eh/a0  converged?    E=F G=F D=F
   time step     :     1.2500000 fs     power     :   0.1715628E-07
   step length   :     0.3015299 a0     speed     :   0.5834928E-02

........................................................................
.............................. CYCLE   66 ..............................
........................................................................

 iter      E             dE          RMSdq      gap      omega  full diag
   1  -3478.8014515 -0.347880E+04  0.448E-03   11.03       0.0  T
   2  -3478.8014528 -0.136715E-05  0.268E-03   11.03       1.0  T
   3  -3478.8014529 -0.758355E-07  0.210E-04   11.03       8.3  T
   4  -3478.8014529 -0.220743E-07  0.831E-05   11.03      21.1  T
     SCC iter.                  ...        4 min,  1.840 sec
     gradient                   ...        3 min, 54.108 sec
 * total energy  : -3427.4513805 Eh     change    :  -0.1742590E-02 Eh
   gradient norm :     0.0087156 Eh/a0  converged?    E=F G=F D=F
   time step     :     1.2500000 fs     power     :   0.1684947E-07
[...]
  3011   6 C     3012   6 C                                       1.5267879
  3012   6 C     3013   6 C                                       1.5260406
  3013   6 C     3014   6 C                                       1.5263902
  3014   6 C     3015   6 C                                       1.5261007
  3015   6 C     3016   6 C                                       1.5238013
  3015   6 C     3017   1 H                                       1.0928005
  3015   6 C     3018   1 H                                       1.0926350
  3014   6 C     3019   1 H                                       1.0926047
  3014   6 C     3020   1 H                                       1.0930271
  3013   6 C     3021   1 H                                       1.0926977
  3013   6 C     3022   1 H                                       1.0924341
  3012   6 C     3023   1 H                                       1.0939051
  3012   6 C     3024   1 H                                       1.0932315
  3011   6 C     3025   1 H                                       1.0923172
  3011   6 C     3026   1 H                                       1.0925501
  3010   6 C     3027   1 H                                       1.0936278
  3010   6 C     3028   1 H                                       1.0915196
  3009   6 C     3029   1 H                                       1.0930442
  3009   6 C     3030   1 H                                       1.0928528
  3008   6 C     3031   1 H                                       1.0925964
  3008   6 C     3032   1 H                                       1.0926129
  3007   6 C     3033   1 H                                       1.0922218
  3007   6 C     3034   1 H                                       1.0931471
  3006   6 C     3035   1 H                                       1.0926157
  3006   6 C     3036   1 H                                       1.0932089
  3005   6 C     3037   1 H                                       1.0931956
  3005   6 C     3038   1 H                                       1.0933628
  3004   6 C     3039   1 H                                       1.0925294
  3004   6 C     3040   1 H                                       1.0922579
  3003   6 C     3041   1 H                                       1.0922135
  3003   6 C     3042   1 H                                       1.0935652
  3002   6 C     3043   1 H                                       1.0940448
  3002   6 C     3044   1 H                                       1.0908842
  3001   6 C     3045   1 H                                       1.0920520
  3001   6 C     3046   1 H                                       1.0931208
  3000   6 C     3047   1 H                                       1.0934651
  3000   6 C     3048   1 H                                       1.0919596
  2999   6 C     3049   1 H                                       1.0930447
  2999   6 C     3050   1 H                                       1.0938328
  2998   6 C     3051   1 H                                       1.0906521
  2998   6 C     3052   1 H                                       1.0896812
  2997   6 C     3053   1 H                                       1.0935751
  2997   6 C     3054   1 H                                       1.0930353
  2996   6 C     3055   1 H                                       1.0935856
  2996   6 C     3056   1 H                                       1.0938959
  2995   6 C     3057   1 H                                       1.0927876
  2995   6 C     3058   1 H                                       1.0912044
  2994   6 C     3059   1 H                                       1.0937511
  2994   6 C     3060   1 H                                       1.0936902
  2993   6 C     3061   1 H                                       1.0931451
  2993   6 C     3062   1 H                                       1.0926840
  2992   6 C     3063   1 H                                       1.0928950
  2992   6 C     3064   1 H                                       1.0932919
  2991   6 C     3065   1 H                                       1.0933408
  2991   6 C     3066   1 H                                       1.0926568
  2990   6 C     3067   1 H                                       1.0927293
  2990   6 C     3068   1 H                                       1.0933769
  2989   6 C     3069   1 H                                       1.0923720
  2989   6 C     3070   1 H                                       1.0917420
  2988   6 C     3071   1 H                                       1.0929653
  2988   6 C     3072   1 H                                       1.0929104
  2987   6 C     3073   1 H                                       1.0936982
  2987   6 C     3074   1 H                                       1.0918740
  2986   6 C     3075   1 H                                       1.0933733
  2986   6 C     3076   1 H                                       1.0936817
  2985   6 C     3077   1 H                                       1.0917119
  2985   6 C     3078   1 H                                       1.0920628
  2984   6 C     3079   1 H                                       1.0930637
  2984   6 C     3080   1 H                                       1.0938226
  2983   6 C     3081   1 H                                       1.0922696
  2983   6 C     3082   1 H                                       1.0939695
  2982   6 C     3083   1 H                                       1.0909293
  2982   6 C     3084   1 H                                       1.0922418
  2981   6 C     3085   1 H                                       1.0929914
  2981   6 C     3086   1 H                                       1.0930129
  2980   6 C     3087   1 H                                       1.0936939
  2980   6 C     3088   1 H                                       1.0915705
  2979   6 C     3089   1 H                                       1.0926431
  2979   6 C     3090   1 H                                       1.0933974
  2978   6 C     3091   1 H                                       1.0932020
  2978   6 C     3092   1 H                                       1.0936044
  2977   6 C     3093   1 H                                       1.0933083
  2977   6 C     3094   1 H                                       1.0932172
  2976   6 C     3095   1 H                                       1.0919665
  2976   6 C     3096   1 H                                       1.0914558
  2975   6 C     3097   1 H                                       1.0922825
  2975   6 C     3098   1 H                                       1.0934606
  2974   6 C     3099   1 H                                       1.0936326
  2974   6 C     3100   1 H                                       1.0926077
  2973   6 C     3101   1 H                                       1.0895285
  2973   6 C     3102   1 H                                       1.0927553
  2972   6 C     3103   1 H                                       1.0934259
  2972   6 C     3104   1 H                                       1.0927337
  2971   6 C     3105   1 H                                       1.0931922
  2971   6 C     3106   1 H                                       1.0933288
  2970   6 C     3107   1 H                                       1.0928892
  2970   6 C     3108   1 H                                       1.0912838
  2969   6 C     3109   1 H                                       1.0936668
  2969   6 C     3110   1 H                                       1.0927692
  2968   6 C     3111   1 H                                       1.0932350
  2968   6 C     3112   1 H                                       1.0922436
  2967   6 C     3113   1 H                                       1.0917803
  2967   6 C     3114   1 H                                       1.0920839
  2966   6 C     3115   1 H                                       1.0942577
  2966   6 C     3116   1 H                                       1.0908350
  2965   6 C     3117   1 H                                       1.0931020
  2965   6 C     3118   1 H                                       1.0929024
  2964   6 C     3119   1 H                                       1.0931844
  2964   6 C     3120   1 H                                       1.0932625
  2963   6 C     3121   1 H                                       1.0916012
  2963   6 C     3122   1 H                                       1.0940382
  2962   6 C     3123   1 H                                       1.0912245
  2962   6 C     3124   1 H                                       1.0908241
  2961   6 C     3125   1 H                                       1.0934221
  2961   6 C     3126   1 H                                       1.0935019
  2960   6 C     3127   1 H                                       1.0919018
  2960   6 C     3128   1 H                                       1.0931630
  2959   6 C     3129   1 H                                       1.0941393
  2959   6 C     3130   1 H                                       1.0919282
  2958   6 C     3131   1 H                                       1.0925342
  2958   6 C     3132   1 H                                       1.0938406
  2957   6 C     3133   1 H                                       1.0916463
  2957   6 C     3134   1 H                                       1.0939968
  2956   6 C     3135   1 H                                       1.0935094
  2956   6 C     3136   1 H                                       1.0919837
  2955   6 C     3137   1 H                                       1.0928160
  2955   6 C     3138   1 H                                       1.0926108
  2954   6 C     3139   1 H                                       1.0930866
  2954   6 C     3140   1 H                                       1.0935078
  2953   6 C     3141   1 H                                       1.0927078
  2953   6 C     3142   1 H                                       1.0928293
  2952   6 C     3143   1 H                                       1.0933845
  2952   6 C     3144   1 H                                       1.0938202
  2951   6 C     3145   1 H                                       1.0924851
  2951   6 C     3146   1 H                                       1.0928708
  2950   6 C     3147   1 H                                       1.0926300
  2950   6 C     3148   1 H                                       1.0934436
  2949   6 C     3149   1 H                                       1.0920548
  2949   6 C     3150   1 H                                       1.0925152
  2948   6 C     3151   1 H                                       1.0918199
  2948   6 C     3152   1 H                                       1.0930508
  2947   6 C     3153   1 H                                       1.0920750
  2947   6 C     3154   1 H                                       1.0931031
  2946   6 C     3155   1 H                                       1.0916591
  2946   6 C     3156   1 H                                       1.0913864
  2945   6 C     3157   1 H                                       1.0926389
  2945   6 C     3158   1 H                                       1.0933889
  2944   6 C     3159   1 H                                       1.0906119
  2944   6 C     3160   1 H                                       1.0938528
  2943   6 C     3161   1 H                                       1.0930191
  2943   6 C     3162   1 H                                       1.0920300
  2942   6 C     3163   1 H                                       1.0924904
  2942   6 C     3164   1 H                                       1.0941090
  2941   6 C     3165   1 H                                       1.0934638
  2941   6 C     3166   1 H                                       1.0918256
  2940   6 C     3167   1 H                                       1.0934676
  2940   6 C     3168   1 H                                       1.0924454
  2939   6 C     3169   1 H                                       1.0928139
  2939   6 C     3170   1 H                                       1.0932072
  2938   6 C     3171   1 H                                       1.0934448
  2938   6 C     3172   1 H                                       1.0933947
  2937   6 C     3173   1 H                                       1.0913680
  2937   6 C     3174   1 H                                       1.0932396
  2936   6 C     3175   1 H                                       1.0930132
  2936   6 C     3176   1 H                                       1.0914922
  2935   6 C     3177   1 H                                       1.0930838
  2935   6 C     3178   1 H                                       1.0933774
  2934   6 C     3179   1 H                                       1.0932060
  2934   6 C     3180   1 H                                       1.0932445
  2933   6 C     3181   1 H                                       1.0907719
  2933   6 C     3182   1 H                                       1.0916276
  2932   6 C     3183   1 H                                       1.0929401
  2932   6 C     3184   1 H                                       1.0933246
  2931   6 C     3185   1 H                                       1.0932553
  2931   6 C     3186   1 H                                       1.0914657
  2930   6 C     3187   1 H                                       1.0916495
  2930   6 C     3188   1 H                                       1.0930221
  2929   6 C     3189   1 H                                       1.0930612
  2929   6 C     3190   1 H                                       1.0918206
  2928   6 C     3191   1 H                                       1.0909956
  2928   6 C     3192   1 H                                       1.0931313
  2927   6 C     3193   1 H                                       1.0906739
  2927   6 C     3194   1 H                                       1.0927403
  2926   6 C     3195   1 H                                       1.0923878
  2926   6 C     3196   1 H                                       1.0929845
  2925   6 C     3197   1 H                                       1.0931063
  2925   6 C     3198   1 H                                       1.0938503
  2924   6 C     3199   1 H                                       1.0919436
  2924   6 C     3200   1 H                                       1.0898894
  2923   6 C     3201   1 H                                       1.0932623
  2923   6 C     3202   1 H                                       1.0934234
  2922   6 C     3203   1 H                                       1.0931055
  2922   6 C     3204   1 H                                       1.0922350
  2921   6 C     3205   1 H                                       1.0916712
  2921   6 C     3206   1 H                                       1.0933939
  2920   6 C     3207   1 H                                       1.0928559
  2920   6 C     3208   1 H                                       1.0909271
  2919   6 C     3209   1 H                                       1.0927403
  2919   6 C     3210   1 H                                       1.0934702
  2918   6 C     3211   1 H                                       1.0936172
  2918   6 C     3212   1 H                                       1.0927861
  2917   6 C     3213   1 H                                       1.0900454
  2917   6 C     3214   1 H                                       1.0931606
  2916   6 C     3215   1 H                                       1.0938239
  2916   6 C     3216   1 H                                       1.0927464
  2915   6 C     3217   1 H                                       1.0922023
  2915   6 C     3218   1 H                                       1.0935457
  2914   6 C     3219   1 H                                       1.0932265
  2914   6 C     3220   1 H                                       1.0913383
  2913   6 C     3221   1 H                                       1.0912503
  2913   6 C     3222   1 H                                       1.0925156
  2912   6 C     3223   1 H                                       1.0928053
  2912   6 C     3224   1 H                                       1.0924840
  2911   6 C     3225   1 H                                       1.0918640
  2911   6 C     3226   1 H                                       1.0934900
  2910   6 C     3227   1 H                                       1.0929161
  2910   6 C     3228   1 H                                       1.0924552
  2909   6 C     3229   1 H                                       1.0918040
  2909   6 C     3230   1 H                                       1.0925183
  2908   6 C     3231   1 H                                       1.0925430
  2908   6 C     3232   1 H                                       1.0930261
  2907   6 C     3233   1 H                                       1.0914769
  2907   6 C     3234   1 H                                       1.0933629
  2906   6 C     3235   1 H                                       1.0931104
  2906   6 C     3236   1 H                                       1.0933588
  2905   6 C     3237   1 H                                       1.0915991
  2905   6 C     3238   1 H                                       1.0928192
  2904   6 C     3239   1 H                                       1.0929860
  2904   6 C     3240   1 H                                       1.0934037
  2903   6 C     3241   1 H                                       1.0925752
  2903   6 C     3242   1 H                                       1.0934205
  2902   6 C     3243   1 H                                       1.0925995
  2902   6 C     3244   1 H                                       1.0931196
  2901   6 C     3245   1 H                                       1.0926155
  2901   6 C     3246   1 H                                       1.0931399
  2900   6 C     3247   1 H                                       1.0926340
  2900   6 C     3248   1 H                                       1.0928413
  2899   6 C     3249   1 H                                       1.0927322
  2899   6 C     3250   1 H                                       1.0940485
  2898   6 C     3251   1 H                                       1.0926977
  2898   6 C     3252   1 H                                       1.0925420
  2897   6 C     3253   1 H                                       1.0887186
  2897   6 C     3254   1 H                                       1.0872519
  2897   6 C     3255   1 H                                       1.0873030
  3016   6 C     3256   1 H                                       1.0880334
  3016   6 C     3257   1 H                                       1.0879282
  3016   6 C     3258   1 H                                       1.0877020

 * 2 distinct bonds (by element types)

   Z      Z             #   av. dist./Å        max./Å        min./Å
   1 H    6 C        2178     1.0925708     1.0949460     1.0865858
   6 C    6 C        1071     1.5272209     1.5376877     1.5217360


optimized geometry written to: xtbopt.xyz


           -------------------------------------------------
          | TOTAL ENERGY            -3427.526417656812 Eh   |
          | GRADIENT NORM               0.000814086650 Eh/α |
          | HOMO-LUMO GAP              11.290129388939 eV   |
           -------------------------------------------------

------------------------------------------------------------------------
 * finished run on 2024/06/20 at 21:44:19.991     
------------------------------------------------------------------------
 total:
 * wall-time:     3 d,  6 h, 26 min, 44.086 sec
 *  cpu-time:    16 d, 21 h, 27 min, 55.556 sec
 * ratio c/w:     5.169 speedup
 SCF:
 * wall-time:     0 d,  0 h,  7 min, 27.527 sec
 *  cpu-time:     0 d,  0 h, 38 min, 46.256 sec
 * ratio c/w:     5.198 speedup
 ANC optimizer:
 * wall-time:     3 d,  6 h, 18 min, 35.272 sec
 *  cpu-time:    16 d, 20 h, 48 min, 12.608 sec
 * ratio c/w:     5.169 speedup

