3258
 energy: -3427.550603136894 gnorm: 0.000670696470 xtb: 6.6.1 (8d0f1dd)
C          122.27842817780791      101.87605026761085      122.87560100959455
C          120.83188611658481      101.59234919233784      122.48907167704564
C          119.97155215307384      102.85268648956188      122.53395791322026
C          118.50778281810089      102.56127597918908      122.21141890724867
C          117.65821373895298      103.82306616156545      122.06774583560671
C          117.57231151159527      104.64089817504174      123.35538274844265
C          116.53621081693096      105.76365452375967      123.29203679728784
C          116.86672595472626      106.83039324674952      122.25272552757721
C          115.86541300218309      107.98068225692984      122.25093883204394
C          116.17310272200238      108.99243015397633      121.15087052583067
C          115.18022205937844      110.15106212233658      121.13233565742296
C          115.45649758182445      111.15077654039339      120.00812392540672
C          114.97647664123565      110.69266987924496      118.63076982763859
C          113.47636175531937      110.88314222446495      118.42367115341622
C          113.04476643396339      110.45740653057446      117.02339924737413
C          111.56660581552187      110.72155001465011      116.75308718732175
C          111.14043989997155      110.20292186098504      115.38366207925063
C          109.66136905631194      110.44078088314114      115.09808727593777
C          109.24535329279865      109.88080789439090      113.74099550748225
C          107.76489084111191      110.10461587051394      113.45381746275484
C          107.33135488073599      109.53266873785685      112.10816981944213
C          105.84725513263625      109.76810282005138      111.84809497120580
C          105.38940643360957      109.23442635728451      110.49352034960336
C          103.90297613654791      109.49548733188598      110.27655241264534
C          103.38277315335883      109.02754951020977      108.92095133897428
C          101.88380391585309      109.28971206355389      108.80503098336544
C          101.27478918248788      108.82603215529618      107.48590963033165
C           99.75559448023760      108.98480501184572      107.50028910410607
C           99.12671829279995      108.70207211315513      106.14032507110713
C           97.60426012697233      108.80843320593776      106.17798434028747
C           96.95922426659035      108.75240601443748      104.79317254095874
C           97.24101280267500      107.44909919768880      104.04996941234565
C           96.38802671459077      107.31360280624973      102.79116014380089
C           96.72831251031810      106.08361890410403      101.94724774564735
C           98.12255700962966      106.16685259185469      101.33314271756910
C           98.43363624491798      105.03707419889817      100.35442478738427
C           99.90859093930480      105.06308926689724       99.95761260484207
C          100.25539031069528      104.03612887225674       98.88383979942854
C          101.76205780582076      103.90063785515026       98.65932767379897
C          102.42239070809720      105.19417049815887       98.18474173232281
C          103.85791552069379      104.98512412169838       97.70256664945921
C          104.85699591507253      104.68317579567540       98.82180779008628
C          105.39902056736764      105.93141424633936       99.51653955234343
C          106.29956562783680      105.54781909673804      100.68786116027174
C          107.09961608836593      106.71254524665066      101.26229225395413
C          107.91499889739423      106.26169785747950      102.47210437147851
C          108.91830645648444      107.30672386014550      102.94625599160062
C          109.73090866287933      106.80660090773129      104.13904421426489
C          110.84261116410664      107.77485313779849      104.52643413606766
C          111.67658144471530      107.28526225596448      105.70562534119088
C          112.85052130534268      108.22055629446304      105.97759660432723
C          113.68327294280067      107.78896171223968      107.17983075016349
C          114.83197955747987      108.75561796427957      107.44782985352514
C          115.64246288705407      108.37436098119640      108.68204396544779
C          116.74190418732245      109.39071930598985      108.96943961828977
C          117.52687089960307      109.06906582551912      110.23669576088486
C          118.57164489150975      110.13939341691612      110.53063830803625
C          119.37041709800721      109.86279217721777      111.79952468658215
C          120.36517234384587      110.98212051614233      112.09090413804336
C          121.16545705172368      110.73387695680229      113.36596572445745
C          122.11000798209507      111.88596299263249      113.70868174333837
C          123.31647046192695      111.96227769981066      112.77727173611636
C          124.18339593940028      113.18571500621431      113.05437723370940
C          125.39279629215017      113.25692738796765      112.12681800825843
C          126.18113643254591      114.54892782942500      112.31847705859157
C          127.38520306033648      114.62973689101723      111.38501989652610
C          128.14067620952517      115.95495844449488      111.48920505933583
C          127.38835411314798      117.12211489145278      110.85378915928666
C          128.14231651635842      118.44174098828681      110.99710472419687
C          127.37725095113625      119.59830823433025      110.35872571228298
C          128.09803123441054      120.94222563406149      110.46580004741078
C          128.13702685983301      121.53577724564617      111.87586655144105
C          126.77679206296827      122.02936962627058      112.36551371948796
C          126.87581044149573      122.71281650967738      113.72805884245693
C          125.54189532436781      123.30981530469397      114.17143001131402
C          125.65954871335927      124.04891533938249      115.50304790859359
C          124.39236274356631      124.81125298481898      115.89563498956821
C          123.20731670968748      123.90278392225582      116.21329194299962
C          122.00095917165167      124.68445488079497      116.73052212767126
C          120.81307538526437      123.76720848530219      117.00617664940094
C          119.56576511628408      124.51810326323516      117.46544673116736
C          118.38992380012976      123.56403607265445      117.65768760420657
C          117.09995691564238      124.26805293157886      118.07123762600052
C          115.92989918610489      123.28748761992550      118.10622365140681
C          114.62119274808448      123.93845142438694      118.54648095717462
C          113.44673000520288      122.95730245419654      118.56571796779720
C          113.01042526019518      122.53273771803352      117.16578313422502
C          111.78593202962783      121.61874387120814      117.15143579884050
C          112.02303646058775      120.26280763312595      117.81449375290698
C          110.95061483333944      119.25043834961949      117.41931805472363
C          111.16490904699141      117.88792587743795      118.07334481334787
C          110.11253441610225      116.87334121181429      117.63317297473674
C          110.22567977374766      115.54828746079652      118.38109885001717
C          109.12288464996011      114.56962832427661      117.98541053011530
C          109.16268995668567      113.29012977378289      118.81518260583852
C          108.04674434907065      112.31715022210649      118.44485976866652
C          108.10077048711761      111.05087046072981      119.29339418635101
C          106.98250226380350      110.06355283226134      118.97061386234786
C          107.07308047859583      108.81973781819232      119.84975101958598
C          105.95471579646087      107.81161131661963      119.59824928721821
C          106.11971821143064      106.58695577024653      120.49546236355852
C          104.96868824761972      105.58519658663630      120.41779482738468
C          104.88830094481122      104.83344888600236      119.09232369067561
C          103.85368015767192      103.71043262075881      119.14458810318241
C          103.68991190876653      103.03335490835441      117.78725849449393
C          102.80383556072040      101.78862747071558      117.81518856893187
C          101.36960399760545      102.05961672093578      118.26661815418061
C          100.46523293622084      100.85282253159713      118.02252330549386
C           99.08948731331557      101.00723111417540      118.66916314921394
C           98.16541997422141       99.84332080168687      118.30971132702746
C           96.97534056553138       99.68403305199277      119.25613879648253
C           96.01682508890235      100.87363189408292      119.30542309099270
C           95.31179860782291      101.16187438443758      117.98079124627000
C           94.13233993621462      102.11112815544234      118.18403613817385
C           93.45822492034387      102.51266408629306      116.87432337654828
C           92.28019627945199      103.45433356470531      117.11990395330817
C           91.65570542790046      104.00268326371312      115.83648848165072
C           90.85427320854809      102.96778871296685      115.05131128130022
C           90.23690779110932      103.57325584594409      113.79262258377713
C           89.47942616865804      102.53755917460256      112.97092478483458
H           89.55753633240924      104.38110161282573      114.07579711768786
H           91.02914951014323      104.01076744664442      113.18078775858773
H           91.50222571563675      102.13852783408849      114.76462994657764
H           90.06067236947897      102.56547741011762      115.68614546169617
H           90.99253676514773      104.83309574087497      116.09421843905561
H           92.44623867121494      104.40291379453427      115.19774944588579
H           91.51498662948568      102.93505504513914      117.70210834942213
H           92.63094093692858      104.29556110560421      117.72436253945078
H           94.18853909009265      103.01088870684562      116.23192950361096
H           93.11607782020326      101.61450382958672      116.35673924967820
H           93.39488181161073      101.63278083641696      118.83420788209922
H           94.48195277447225      103.00946425344013      118.69916992121422
H           96.01529084897511      101.60610572891116      117.27440720089001
H           94.95089528182291      100.22553970026289      117.54761164742841
H           95.25750033658753      100.65827540727673      120.06276191932221
H           96.55367120891675      101.76529957114144      119.63163597757801
H           96.41339405122977       98.79446494118653      118.95809115926346
H           97.35524139668279       99.50708121602031      120.26627542593435
H           97.80754193374582       99.96355160246837      117.28641120064155
H           98.74424052707880       98.91589121027135      118.34522836245189
H           99.21106658425302      101.05230711860105      119.75478473406292
H           98.64180672403225      101.94901228664638      118.34464683450649
H          100.34602083335311      100.70298919534834      116.94639324661954
H          100.94614930170400       99.95748490543760      118.42604920453977
H          101.36065170869718      102.30109568458590      119.33191202510282
H          100.97412294522850      102.92139266112119      117.72464631974107
H          102.77915409585140      101.36371952772409      116.80793439284184
H          103.25143722258670      101.04132187778450      118.47590699173448
H          103.27521562040170      103.75133060142605      117.07540320261197
H          104.67733834330717      102.74235714422662      117.42281032342035
H          104.16335577233704      102.96760653233021      119.88339528084768
H          102.89619487549176      104.12088012718426      119.47064020992624
H          104.62345977306600      105.52750301843865      118.29172935158456
H          105.86750693825421      104.40791255779764      118.85480403105743
H          105.08972007341025      104.85292495301387      121.22129060893218
H          104.02506933646693      106.10513301268209      120.59567140188432
H          107.05584797853645      106.08046482050209      120.24621409386334
H          106.20362373409060      106.93330898848400      121.53035242701566
H          104.99001036086391      108.28201633917358      119.80325788593393
H          105.96409332405267      107.51208004174869      118.54882987396124
H          108.03669768836130      108.33225942360576      119.68360984267264
H          107.04289535062192      109.12905786679713      120.89876094142397
H          106.01592471503486      110.54854743009450      119.12658443949923
H          107.04032250748857      109.77601490786897      117.91747493881152
H          109.06624975777409      110.56017088308283      119.14489480402723
H          108.03772834081985      111.32753319329017      120.34948138866537
H          107.07986143542355      112.80583951223655      118.58701858712452
H          108.13072672300393      112.05203148645444      117.38865134313419
H          110.12844471297912      112.79740406135734      118.67834196225476
H          109.07671742755454      113.54900421265816      119.87404802095054
H          108.15166545871111      115.05231954539740      118.12055974333376
H          109.21960907902574      114.32137657713750      116.92553488284865
H          111.20195102241797      115.09827226506083      118.18135899783202
H          110.16768862631295      115.73845148677414      119.45616926104753
H          109.11891481532375      117.29347050824394      117.80617029129675
H          110.20730429016761      116.69289035647655      116.55950166951037
H          112.16008062190889      117.51330802968390      117.81800577429165
H          111.12862765870575      118.00077349642690      119.15992167842543
H          109.96684563171314      119.63530695554191      117.70083739818546
H          110.95263668089625      119.13301377905414      116.33312643974207
H          113.00018364175773      119.88294620934509      117.51107239789853
H          112.03240644223743      120.37581403001768      118.89958392410239
H          110.94438773388306      122.12279989953335      117.63356084539302
H          111.50588239433135      121.44845551914672      116.10816115126832
H          112.78488842288365      123.42983716541035      116.58186614471695
H          113.83351505331369      122.01522325464325      116.66940574989262
H          113.72739424421511      122.07766263929908      119.14687809452892
H          112.60018722849031      123.43059955732627      119.06970862601418
H          114.75428886580407      124.35306648060848      119.54987274858486
H          114.38588220807131      124.77216577033775      117.87923669028095
H          115.80990820335307      122.86274379959329      117.10800126511727
H          116.16724744910312      122.47037685161571      118.79136628455593
H          117.22884597499180      124.72799934004244      119.05483047349708
H          116.87851869720596      125.07186265459468      117.36387496238461
H          118.21420701600277      123.03226749543464      116.72026730213641
H          118.64992850364190      122.82094495933863      118.41430807344447
H          119.77422650093266      125.04339660344165      118.40149558088794
H          119.30116844858884      125.27248041880077      116.72028996454122
H          120.57361539519047      123.21842398698517      116.09257716080579
H          121.09243484034046      123.03642632054850      117.76788864999143
H          122.27509525628173      125.21642408648661      117.64563672298091
H          121.71363474119839      125.43726573844086      115.99152251395169
H          122.91456450882970      123.35577763478672      115.31496969094523
H          123.50925683726734      123.17331830155307      116.96811051452161
H          124.61333701419011      125.42039425393047      116.77669766451235
H          124.11933082734323      125.49574252564021      115.08793734175062
H          125.91278887126118      123.33802069737855      116.29343637061692
H          126.48418324321528      124.76361145551314      115.43247989514995
H          125.19812347920615      124.00953569408058      113.40573757017206
H          124.80245875363349      122.51134112237249      114.25376032076466
H          127.21724847363294      121.99109634085134      114.47431904286549
H          127.62354853438407      123.50896113216011      113.67560808734480
H          126.37202918086768      122.73808911102240      111.63870278567624
H          126.07947893835166      121.19323732904735      112.43709029531144
H          128.53132423117987      120.79883022769884      112.57778577230451
H          128.83073746093166      122.38119491745253      111.87202681017935
H          129.12342389644300      120.81720168013729      110.10734940179977
H          127.60696515147498      121.66036522625876      109.80302581361931
H          127.22982612376704      119.36931541420988      109.29998335596341
H          126.38874214174463      119.67482666477527      110.81318669999143
H          128.30272056911812      118.64277419423098      112.05821770807013
H          129.12517253935818      118.35391362253091      110.52602728148287
H          127.22550717043622      116.91036417820192      109.79352479840681
H          126.40832583075046      117.22700065150633      111.32278213950690
H          128.33459201360557      116.17765917651860      112.54188498786485
H          129.10961113774397      115.85321147417152      110.99281697727446
H          128.06860911378246      113.81152135661607      111.62442953954196
H          127.05255659006301      114.48705212909275      110.35516341838097
H          125.51385089100511      115.39325186092333      112.13555737604457
H          126.52404860617385      114.61673583071399      113.35295777579829
H          126.04563982731904      112.39916312211830      112.31141785327631
H          125.05432882237884      113.19547026951864      111.08943612356538
H          123.58070730788450      114.08859193489593      112.92378256011480
H          124.52353307624895      113.16693796183303      114.09202137834610
H          123.91660488985369      111.05709472371437      112.89982125571966
H          122.98080114008513      112.00095118891250      111.73879907232670
H          121.55792027252647      112.82870350476087      113.66589387459284
H          122.46872648494306      111.76570611899935      114.73509718054096
H          120.46611173269693      110.59135099522690      114.19273443536935
H          121.74189196780554      109.81202295061520      113.26137504356856
H          121.04265121867540      111.08382757372553      111.24035198726705
H          119.82390723494564      111.92676056143161      112.19035477366756
H          118.68435280155977      109.76010124324307      112.64275232908530
H          119.90738443935651      108.91788813057642      111.69440488438269
H          119.25542509334528      110.21508511927480      109.68167637083428
H          118.07078309203415      111.10589258273885      110.62934349792634
H          116.83754985788711      108.99422498617190      111.08016230188481
H          118.01604504410427      108.09831399603479      110.12792458684577
H          117.42592185601377      109.43593420455672      108.11839912378926
H          116.29173017221638      110.38166371594200      109.07428516334805
H          114.97609511385521      108.30950862512285      109.54476733255549
H          116.08558617110543      107.38602695859548      108.53697085287753
H          115.49140411874343      108.79111956069001      106.57628221859551
H          114.42591262668661      109.76167196274616      107.58577785954336
H          113.04288718952712      107.73592733939741      108.06270741056723
H          114.08339757986987      106.78740403675752      107.00528528732677
H          113.48973030132107      108.26222811149347      105.09108948407776
H          112.46978533596297      109.23140359156730      106.14897903715708
H          111.05046255900101      107.21293057199654      106.59675134764051
H          112.05577241367733      106.28320368522290      105.49010365165184
H          111.50501265695264      107.91608456430951      103.67109768993207
H          110.40829991324742      108.74908714005180      104.76616942236389
H          109.06663123391930      106.64831737870696      104.99085346133991
H          110.17379024073824      105.83819703947957      103.88979673464823
H          109.59292824646496      107.55262782829335      102.12125723445175
H          108.39344541092150      108.22660255576294      103.21692398444529
H          107.23933151713899      106.00704026572490      103.29129112143161
H          108.46036396521720      105.35096144098169      102.20814304137348
H          107.77172480539747      107.10212538197177      100.49353253981886
H          106.42379822661418      107.52238151239742      101.54955907903567
H          105.69023070927331      105.10430888782784      101.47826230592855
H          107.00442955458529      104.78173378473143      100.35121376608525
H          105.96890242876752      106.52789459588928       98.79830955821534
H          104.57231638850624      106.54835211761687       99.87503099434184
H          104.38843751218128      104.03702460703190       99.56547165369484
H          105.70112154921125      104.12950526154117       98.40121045653720
H          103.86322541131499      104.15978101236631       96.98838556122458
H          104.18308457481432      105.87991128921145       97.16544324011033
H          101.83479119089191      105.59770234962561       97.35600145479641
H          102.41266277073989      105.93139265806440       98.98790910454915
H          102.22565242490742      103.57198860809235       99.59125797050345
H          101.93557213538350      103.12051937241066       97.91244600059713
H           99.85661150515142      103.06221899464117       99.18202450349354
H           99.76900788293581      104.31382574777822       97.94481087162551
H          100.15900317237306      106.06285068177981       99.59720048444113
H          100.51668841208516      104.86534862415502      100.84393455257089
H           98.19645000385053      104.07457134657206      100.81367863592344
H           97.80872724787997      105.13926922592745       99.46344550162731
H           98.22200316874041      107.12127609744047      100.80915005629831
H           98.86869306724287      106.14600041255575      102.13039068798518
H           96.65452431602186      105.18436582441791      102.56376817795137
H           95.99070158740271      105.99229522906946      101.14527278966311
H           95.33708660585597      107.25911253214005      103.08403539291203
H           96.50992141667096      108.21048064905676      102.17846447196945
H           98.29640113965644      107.41570579466270      103.78154979657864
H           97.03559443385048      106.60605371144588      104.71468746567594
H           95.87921757087017      108.87030141964030      104.91071667340722
H           97.31229074544197      109.59368931972769      104.19084592357137
H           97.20271796080164      108.00272069388203      106.79851264803106
H           97.32681534184482      109.75374446707195      106.65293261280580
H           99.51801482371793      109.42058503310059      105.41547130061062
H           99.41663583877475      107.70123248625940      105.81363602638871
H           99.32831702247671      108.30761368513704      108.24496268522034
H           99.50320441293503      110.00355090965061      107.80405973195784
H          101.69506376404635      109.40859970970220      106.66292406030252
H          101.52824391551852      107.77787972819962      107.31185868565765
H          101.37138497840125      108.78336332615315      109.62682576356514
H          101.70223181335771      110.36225295230584      108.91939801515115
H          103.91147525140724      109.54956312169374      108.12214326746468
H          103.58039909491029      107.95925421174550      108.79904981250829
H          103.33437678956899      108.99510958493120      111.06457542891405
H          103.71634817506487      110.56713915759019      110.37182447631048
H          105.96444871235909      109.71568048203402      109.70059340987996
H          105.58719545420915      108.16012845818388      110.43931285511133
H          105.26185909210608      109.29216407079240      112.63947781428949
H          105.64477557680839      110.84173591777218      111.89364450725955
H          107.91603562356042      109.99761059331016      111.31231755056137
H          107.53816253753189      108.45911602724810      112.08588974251448
H          107.17016432014674      109.64257455588253      114.24650831796059
H          107.55752186938018      111.17731135925649      113.46503427609916
H          109.84030182598802      110.35401928304039      112.95753236685378
H          109.45973883380636      108.80884474249645      113.71559226332771
H          109.06098199093398      109.97065282107593      115.88131370132773
H          109.45644260200378      111.51440250613068      115.12571389284166
H          111.73846636899290      110.69187127931396      114.61215936333308
H          111.34597379305271      109.13056502054530      115.33022066241261
H          110.96060538227374      110.23847669528895      117.52423160426095
H          111.37440476418946      111.79556801794917      116.80995788914726
H          113.64169784778586      110.99674061407418      116.28505563985725
H          113.24868473647464      109.39117137501067      116.89590670573925
H          112.92248340221693      110.30452131640691      119.16616216313680
H          113.22760325427498      111.93678506335520      118.57462336782119
H          115.50327966805744      111.27009837496918      117.86848944034978
H          115.23175866555250      109.64167470007450      118.47931510516506
H          114.96402632688040      112.09822455229893      120.24159260887062
H          116.53270056970020      111.33970972069767      119.96969417772871
H          114.16701026314759      109.75625687587137      121.03109437276406
H          115.23691781993273      110.67122167527107      122.09317203892168
H          117.18372409901579      109.38561305275876      121.29533437792267
H          116.15510088578363      108.47852831519268      120.18760808536507
H          114.85929759619523      107.58160315146321      122.09733576131104
H          115.88049298901774      108.47968345797455      123.22298071174330
H          117.86549032882249      107.22910462475392      122.44914333249899
H          116.87646209248764      106.37983202843073      121.25958310634503
H          115.55551513607386      105.33580288541906      123.07208338489868
H          116.47516019878178      106.23776616739622      124.27537976189477
H          117.31214848949831      103.97082721421285      124.17969603692602
H          118.54963458764564      105.07391577680198      123.57955772126029
H          118.07861558586485      104.43477905192272      121.26777292395818
H          116.64915157074012      103.53077984100844      121.76741110094109
H          118.45988238893189      101.99832487039818      121.27496441150072
H          118.08390772616526      101.93067205262119      122.99622403355976
H          120.04749382918602      103.29516488831204      123.52974526738281
H          120.36181380040038      103.57931521421666      121.81662632857299
H          120.80236161759483      101.17106719975514      121.48091215234916
H          120.41729078691247      100.84627456586000      123.17247913424607
H          122.71992953040578      102.60180661505379      122.19614054647066
H          122.33323737199434      102.27535544790285      123.88666609419684
H          122.87327917646751      100.96632170279794      122.83515700717557
H           90.14982101128317      101.74455152958267      112.64655954735426
H           88.68136869858893      102.09108327878154      113.56037200129921
H           89.03813135524872      102.99547423292360      112.08843455492401
C          122.53707004277030      116.88302786785201      125.91119809003742
C          122.49216672628292      115.40227423377982      125.55563801377353
C          123.87201412393819      114.87313907605537      125.16893892227165
C          123.84647013568858      113.42422061013210      124.68043144685458
C          123.64185909118233      112.41149587927596      125.80516406081345
C          123.45244213645393      110.99612817088209      125.26504908965026
C          123.34781729256284      109.96165008025586      126.38508552028310
C          122.78386518383952      108.62083109333402      125.91309446084448
C          123.58744468512295      108.00402625030435      124.77060202304330
C          123.22297118978618      106.54595310900082      124.48973371648361
C          121.75004496042267      106.29613764918818      124.16021265522615
C          121.18486751103745      107.12269908636463      123.00487547431641
C          121.95010559096079      106.95405712879339      121.69403376009313
C          121.18004754856543      107.50833747579061      120.49332754264410
C          120.11332969671308      106.54600500143850      119.97871615925493
C          119.18006494364082      107.20359626538367      118.96638882596739
C          118.17005279581676      106.21391880083202      118.39342002066459
C          117.14551200855259      106.88279161502203      117.48229068049007
C          116.10571021198355      105.88961894282362      116.97209989749889
C          115.08841630623665      106.53917172791181      116.03913616963028
C          114.03633747712860      105.54159707358968      115.56397295828477