3536
 energy: -3716.255873936727 gnorm: 0.000662187840 xtb: 6.6.1 (8d0f1dd)
C           75.82710592913605       62.16622928580347       56.51011060012011
C           74.95138697986900       62.77705330789265       57.60413512671941
C           73.73484508429085       61.88993155650662       57.85406762308845
C           74.55441717576508       64.20107211922186       57.19535966588685
C           73.80987257057242       65.02596019006420       58.25326308241950
C           73.27336005718442       66.30104852940754       57.60200553070928
C           74.71266537989891       65.37753207461580       59.44320662427685
C           73.94087274135006       65.73234712804451       60.72123420299269
C           74.84693691184518       66.50411361635096       61.68015108449384
C           73.39291081969466       64.47241682952323       61.40675254348600
C           72.12487808418669       64.72123837757005       62.23758879154166
C           71.95068965073402       63.60547419625445       63.26630592626510
C           70.90664118363517       64.81671251793389       61.31122343453595
C           69.61821575612889       65.35662891046842       61.94344845655114
C           68.46809257845702       65.21714997343324       60.94792413589767
C           69.73168222802792       66.79597672954627       62.47022343340660
C           70.08781288993325       67.87927498539906       61.43139765484980
C           71.28583083459884       68.69558311933928       61.91565277822848
C           68.88304390727484       68.78836498580685       61.15069487870817
C           69.10696142541914       69.79379636312771       60.00365477166600
C           69.19005290330249       71.22330294479116       60.54197624405406
C           67.99879667866355       69.71891049168819       58.94464675124200
C           67.97804463729042       68.43364944756640       58.11042182745112
C           69.21210048348301       68.34378435993452       57.21266741185574
C           66.71649951610573       68.36489882345548       57.23611649045676
C           65.38350338992514       68.25366686386938       57.98595148400757
C           65.35754469796518       67.03012131638282       58.90217978585675
C           64.20109339706229       68.15437387023712       57.01140222536677
C           64.00006354495730       69.32213482879266       56.03530984448552
C           63.85139712889178       70.64801271968513       56.77767588627272
C           62.75735801554431       69.02730668328046       55.18408986742157
C           62.52985145426369       69.92278673930635       53.95851002679941
C           61.19628995892608       69.53604191850270       53.31937928054990
C           63.64911283298296       69.79883255210696       52.91129458130393
C           64.70917439619068       70.90743333816485       52.94121885599567
C           64.13897129021539       72.21005963332323       52.38080680326375
C           65.93270668429713       70.48436736891112       52.11609434127409
C           66.80406513345832       69.42311802074144       52.80689795242559
C           67.83612680115617       70.08619230621279       53.71494388321712
C           67.46952274776916       68.52272023496703       51.76079190497475
C           68.17657295455301       67.26414597828044       52.28853936330663
C           68.83263890373216       66.55746526460382       51.10230643812523
C           67.17569265351064       66.35132970453668       53.00820399396461
C           67.70750770316614       65.01351573546350       53.53836438786649
C           66.51812057075841       64.15231904797071       53.96329986648145
C           68.66019054800415       65.21333393243367       54.72328154858194
C           69.63399535542314       64.04795088605567       54.96275147812212
C           70.05951074355677       64.03244012158895       56.42937546454226
C           70.84379247214969       64.19111385898006       54.03098980897263
C           71.81835431033923       63.00491062010034       53.96371054352692
C           73.03946245123913       63.43099262634065       53.14746948985875
C           71.13707665000683       61.77213842538352       53.35720058204608
C           72.03152875842329       60.55456135336081       53.07369875125298
C           71.17072996678692       59.44693157236691       52.46730673405902
C           72.73637236233044       60.08395477456138       54.35031641815022
C           73.60523391011880       58.82233740836697       54.23982356173500
C           74.07965783913691       58.44937274135640       55.64465144634272
C           74.80650688677244       59.03986579303826       53.31164498491081
C           75.51156016819303       57.75049969947626       52.86251968178077
C           76.95235266177973       58.06658731773231       52.46175631325463
C           74.76196755704403       57.09415721003365       51.69527442239151
C           75.06005253607374       55.59819009614919       51.51916861769965
C           74.57673650455253       55.13879813139992       50.14420221712981
C           74.39804000084291       54.77039686506215       52.63596050420521
C           75.32320696462587       53.76510825151207       53.33202016074380
C           75.64063774210142       52.58652628155222       52.41340607554546
C           74.68767653058489       53.25726355402005       54.63727925910452
C           74.78263853206201       54.24850871873694       55.80386909399220
C           76.20168040835161       54.27374959968850       56.37502765752052
C           73.80635082111331       53.91329180173658       56.94073180793902
C           72.30887564976355       53.94623246986159       56.60282082473142
C           71.93052681202786       55.18733865114321       55.79837329470229
C           71.45822611722188       53.95992793924169       57.88157119694923
C           71.69775291174311       52.84080375701408       58.89909435297584
C           71.19765439830768       51.50013244605450       58.36786084242365
C           70.98299567385797       53.18170393743129       60.21515387908071
C           71.70395726922193       54.25043588757999       61.05045328140704
C           72.80104234461851       53.60408942971177       61.89518525516191
C           70.71462906762690       55.01714703606732       61.93800441637038
C           71.26929475540946       56.32874089978324       62.52374729586851
C           70.90784691437472       56.43785354876611       64.00655783499401
C           70.73316453184329       57.56912560067332       61.79576204170927
C           71.10425331022645       57.71997305227674       60.31365431172102
C           72.61052878056674       57.90515155127593       60.14014962564567
C           70.34331681760084       58.92805539502775       59.74700816728319
C           70.37009672419330       59.09339487769413       58.22000109070866
C           70.02898323007956       60.54017271483465       57.86737361264345
C           69.39822392467518       58.11773162342601       57.54746459221737
C           69.49486351388614       58.10612519960583       56.02337445614190
C           68.56073651130103       57.07374226263616       55.40660761048311
H           76.71857701593044       62.76843116889319       56.34753505731058
H           76.14234392088925       61.16161948268966       56.78554969465849
H           75.27844790616020       62.11176681110840       55.57185408775216
H           68.75457271909424       56.08842822745302       55.82452247106659
H           67.52232340549020       57.33083923652288       55.60380728130494
H           68.70008633489918       57.02329782238165       54.32879187360555
H           69.59815540554152       57.10803116167339       57.91340818893877
H           68.37724274484191       58.37625702499921       57.84184594337012
H           69.29808869684813       58.86517696796836       60.05925943769008
H           70.76222376464663       59.82722461810643       60.20647119236398
H           70.79220842837891       56.81867273794903       59.77840215591436
H           72.87334982582885       58.01634941904350       59.09091273331479
H           72.94554699483514       58.79477879375163       60.67074892419848
H           73.16048186482328       57.05169545030586       60.52866696987142
H           69.64426932394996       57.55857655176003       61.88076540024431
H           71.09030193766741       58.45790247987114       62.32435458725971
H           69.81520301776185       55.24415196928787       61.36220416969509
H           70.41487721016513       54.35648015926936       62.75485631958612
H           71.38074102116832       58.88768936028774       57.85189130934455
H           69.01435587315773       60.77688281213103       58.18064906037436
H           70.70987586009633       61.22360681485991       58.36959384912173
H           70.10799878361759       60.71613417710026       56.79815611880847
H           72.36066252136590       56.32353348408115       62.45230337469845
H           69.82718625971647       56.44384999465327       64.13343377884041
H           71.31512495704094       55.59620779759923       64.56320344885988
H           71.30667622458104       57.35457673880452       64.43683620827127
H           72.17772479953331       54.96352664107081       60.37086951879152
H           72.36899194157368       52.90126360301532       62.60574247548993
H           73.50374881949355       53.06304447290508       61.26515706032549
H           73.35939822103326       54.35055665725730       62.45582484082986
H           69.97132432087476       53.51837894547790       59.97724296063373
H           70.88623159512576       52.27438467315291       60.81478327629042
H           72.76898891751647       52.75643524955715       59.10234700151204
H           70.12192865367608       51.53616467402406       58.21112347658729
H           71.67664731999832       51.25134053441804       57.42455176643504
H           71.41174804000401       50.70233626330238       59.07612804694940
H           71.63006736352088       54.92069939907332       58.37232982486327
H           70.40397721480946       53.93068663008666       57.59096216299604
H           72.05333842673659       53.05786073651800       56.01589941217638
H           72.23912629754011       56.08416680818036       56.33007874658173
H           72.39244732479453       55.18896467230691       54.81730539999324
H           70.85377253996151       55.22515813383825       55.65891102034209
H           74.06067462003413       52.91975508595178       57.31802272768322
H           73.98594593802819       54.62812908392925       57.74924797314507
H           74.55619863034883       55.25289153952338       55.43842071004495
H           76.28099081527196       55.01256568283171       57.17032590666018
H           76.46480644598213       53.30086846630316       56.78701101160311
H           76.93117678864864       54.52580585121739       55.60908149706673
H           73.64136999588720       53.02188827388964       54.43692023393658
H           75.17634631570944       52.32679628771503       54.93780295842494
H           76.26550042199280       54.26988167500502       53.57234578701792
H           74.72875994473593       52.05686947935061       52.14502151368628
H           76.12332701712855       52.92581090152461       51.50029482117493
H           76.31050044812919       51.88428710830458       52.90649388429111
H           74.01106320308992       55.45633804370153       53.38918250719019
H           73.54385647280867       54.23021440673540       52.22322758638376
H           76.14506183231475       55.45399440891453       51.56368437145807
H           75.09056533922508       55.67919760138727       49.35097812600869
H           74.76215350452715       54.07708515089923       50.00431103784533
H           73.50832584486777       55.31779936194170       50.04351692795428
H           73.68543901124565       57.21058690739724       51.83558872986853
H           75.02558216637208       57.62513675531623       50.77701065656446
H           75.54546147909851       57.04936594159475       53.70121271604177
H           77.51564716588018       58.43945936276704       53.31496018807779
H           77.45786382726345       57.18002716277681       52.08531333316363
H           76.97161537252265       58.82682247828480       51.68277738541009
H           74.48873094825346       59.57142018830860       52.41416996360910
H           75.52573340655820       59.67896147389916       53.83073735834719
H           72.99546241418504       57.99905187616616       53.85698806242985
H           74.66568980358900       59.26015213810331       56.07210706607269
H           73.22894355114462       58.26563968852440       56.29796895862687
H           74.69761380169250       57.55515300361581       55.63348271089373
H           73.37646914657033       60.88848220295541       54.71647948494672
H           71.97115739647009       59.90214918271098       55.10956185020326
H           72.77948010986272       60.84655649998077       52.33030081387967
H           70.50675053169707       59.02540258466192       53.21824166309807
H           70.56219596147004       59.84527711827558       51.65802924523455
H           71.78761554500247       58.64897580417257       52.06241762114685
H           70.33641492478033       61.44971300627945       54.02646743367576
H           70.67446382397105       62.07567667830729       52.41330717074069
H           72.15027411068604       62.76833584814653       54.97879054559936
H           73.81777039505168       62.67237633381507       53.16775250612162
H           72.75804381276559       63.61050169274588       52.11177178107310
H           73.46241648330306       64.35096905968996       53.54754489841569
H           70.48528134827311       64.38622865366074       53.01718379246807
H           71.40458914796038       65.07629768945591       54.34709319893865
H           69.11682975589152       63.11002087104913       54.74251549748775
H           70.49912212482903       64.98862976201377       56.70626087735121
H           69.20064167343514       63.85269693786337       57.07202323288523
H           70.79073010054594       63.25283109329983       56.62122813213762
H           69.24944985705194       66.12041200496442       54.57329329785209
H           68.05637917438516       65.36278276122935       55.62207905297921
H           68.23447564139914       64.49157475970293       52.73582187405214
H           66.85273237411229       63.19207531617818       54.34430251760192
H           65.95026890715518       64.65102266425099       54.74667484392267
H           65.84845330682185       63.97470680544226       53.12459744592737
H           66.75107137371241       66.89096835658499       53.85752426609035
H           66.35941636325735       66.14072599773809       52.31198236469143
H           68.96466888065686       67.56800440016961       52.98461795695555
H           69.46382335077676       65.73606807763149       51.42840012221299
H           68.07310511062767       66.16726850629449       50.42795082678453
H           69.45648433827138       67.25358424074363       50.54469662451933
H           66.70339775219728       68.19677763851895       51.05162145308397
H           68.19262697570495       69.12306118870120       51.20094452966701
H           66.15412804468626       68.80579308006344       53.43102861612277
H           67.35205369887981       70.78103034550500       54.39861981491005
H           68.36499158071773       69.34300258372132       54.30593512397854
H           68.56479382486530       70.64124178900981       53.12613319223454
H           65.57336113779158       70.10162168467892       51.15749634154975
H           66.54725031522038       71.36185626910537       51.90098702410776
H           65.02352276414162       71.08885903925676       53.97323370075635
H           64.86531901394972       73.01611359233381       52.46646091332966
H           63.88511382975489       72.08986231785886       51.32905449279781
H           63.23973506060217       72.50807028726639       52.91494765922702
H           64.12896890713442       68.82680440443538       53.03100553110752
H           63.20585110024120       69.80564833765071       51.91233585443049
H           62.45415192620946       70.96368881516563       54.28780341077614
H           60.96145228103989       70.20128593187916       52.49093625302006
H           61.24012274591032       68.51506102624442       52.94476606676908
H           60.38829085214064       69.59925524930537       54.04323348931841
H           62.81250570154363       67.99389058013816       54.83379397563974
H           61.87869892826792       69.10092885467495       55.83260065396750
H           64.86878704978857       69.38150368278450       55.37547559753335
H           63.04059153750798       70.58822701852331       57.50213303299761
H           64.76665260173293       70.90678809893984       57.30477324845429
H           63.62901854257862       71.45761064692300       56.08631866274339
H           64.31315048439666       67.23403741106880       56.43119774273680
H           63.28832269013451       68.05524322458676       57.60609116202397
H           65.23978345645268       69.14245146200675       58.60603962806626
H           65.65331814547491       66.13686466798107       58.35575522850632
H           66.02870402258584       67.15385101217471       59.74759655698750
H           64.35457400432801       66.87288340379439       59.29091725595239
H           66.69873099728328       69.25647338312640       56.60624196996562
H           66.80586850571113       67.49882775332398       56.57413189316815
H           67.99039889067394       67.56960254998145       58.77899803206230
H           69.16061181178998       67.45624298452337       56.58700670012584
H           69.28032814971591       69.21806842260787       56.56764723688713
H           70.12499811110551       68.28437188121781       57.80009583254574
H           67.04072428154450       69.83605103097490       59.45390329879416
H           68.10918780647989       70.56706968862417       58.26259330011627
H           70.05953877303273       69.56900836499024       59.51553012002451
H           68.23862812024744       71.52123182833000       60.97887068406405
H           69.95823986006212       71.30534395789671       61.30712350530747
H           69.43054047421866       71.92244291801970       59.74277515442054
H           68.02638007187797       68.15602583709938       60.91570811626171
H           68.63640209930421       69.33213749499355       62.06595770270308
H           70.36735039007435       67.39818006898503       60.48913169457364
H           72.14321353238695       68.04900497839753       62.08831285231488
H           71.57667496307479       69.44516855182898       61.18346311731946
H           71.04585278777390       69.20383796907180       62.84825536513691
H           68.77827873809834       67.05150115205404       62.93928709908910
H           70.47547992533823       66.80694618177247       63.26857548534122
H           69.37950201800092       64.73030944272891       62.81082158189535
H           68.66645782641666       65.79003994717657       60.04555472074534
H           68.33937087869961       64.17532138557128       60.66345219214226
H           67.53657518266635       65.56915098435532       61.38733667229099
H           71.16340926567959       65.43811776014017       60.45204967157253
H           70.69708727632303       63.81448088023691       60.92693078804010
H           72.24680936781611       65.66540932017426       62.77597215084193
H           71.83948277545400       62.64484804843807       62.76761009307540
H           72.81704179881014       63.55220002653331       63.92283323616648
H           71.07288096684005       63.77537350388630       63.88391786345063
H           73.16848066804953       63.70948197087688       60.65924243069758
H           74.17527532578515       64.06563999171048       62.05226731164956
H           73.10419694860539       66.38364299724016       60.45269769315490
H           74.33962315218004       66.69768836554310       62.62304864630415
H           75.74914811233268       65.93287747175224       61.89202400121026
H           75.14057318007559       67.45955199950578       61.24974090289979
H           75.37641765655286       64.54196921167691       59.67147194091790
H           75.34500210685363       66.22243583589143       59.15865511049365
H           72.95327815582591       64.44843566451132       58.61061178266844
H           72.74626903802897       66.91763113803020       58.32631354403247
H           74.08976379180591       66.88906700048057       57.18637923235394
H           72.58424108489845       66.05875491276497       56.79629301585707
H           75.45932409625101       64.74613046070344       56.91199495314368
H           73.92344635532726       64.13232045018890       56.30554691379922
H           75.54374554255357       62.81559946148503       58.52497877301241
H           73.14134322460701       62.26359857889671       58.68406691171174
H           73.10435792943991       61.84821714795196       56.96935781670493
H           74.04776312219163       60.87675737603811       58.09724312342184
H           69.23857826910373       59.08931542359580       55.62622145440121
H           70.52307628383262       57.88158108115690       55.73071026011090
C           60.22924892590375       46.41232628449546       42.12676069247407
C           60.68617148192805       47.83605778144785       41.81625174957419
C           62.09161773980610       47.80531274054660       41.21949612850518
C           60.64281577476760       48.69616145170672       43.08522590373173
C           60.62352635556506       50.20636162880734       42.81421556929120
C           61.10500942139802       50.96616034672095       44.04859342081515
C           59.21631851524101       50.67389754371877       42.41583082751437
C           59.20600856594577       51.92570418855977       41.52521918129408
C           57.86161295379675       52.63958036118529       41.65186802771866
C           59.48850937053064       51.53485496736680       40.06987401690276
C           59.77794762899239       52.69773711040256       39.11119655485527
C           59.81255412377593       52.16319197975483       37.67805645174396
C           61.09746835016561       53.42134869221812       39.44206219358708
C           60.93192269143493       54.79342522956861       40.10758149556870
C           60.32398631914429       55.80048308811733       39.13065337590481
C           62.28191563954548       55.34367411098359       40.59256586538493
C           62.94462506272467       54.59829586371931       41.75607862973436
C           62.13197856848980       54.73840958429852       43.04298300720745
C           64.35669083920966       55.13809433198657       42.02689444437154
C           65.39076564505640       55.01490786587189       40.90274677528836
C           65.49556977242467       53.57820050074505       40.38969684027968
C           66.77735232129629       55.45709457971433       41.39778407955954
C           66.91277279864154       56.90007829918357       41.90799907195420
C           66.59536220431488       57.90917390751743       40.80789252686266
C           68.34211250589279       57.07934551382292       42.44177312223317
C           68.68933685695825       58.43125794025332       43.08588973486525
C           70.20040197019227       58.47607463087542       43.32106245913992
C           67.91581466220752       58.63387436912019       44.39462535318305
C           68.10648118090229       59.99315325155707       45.08615802246345
C           67.57389364381125       59.91621292051602       46.51650728323910
C           67.39568083590184       61.10730161931759       44.30765379350537
C           67.66876365093169       62.53929898046761       44.79648465644152
C           66.62653763695666       63.48276485025509       44.19745943082965
C           69.09133744211100       62.96619889890774       44.41498536089036
C           69.56663059980357       64.34816762041046       44.89858113971425
C           70.91519551842165       64.63741607389983       44.23873528309212
C           69.62853896876706       64.37548495459912       46.43178653737046
C           69.97177364800541       65.69417064153113       47.14940262074246
C           69.15437693714054       66.85938213733390       46.59262528288083
C           71.45677088317133       66.08453641966753       47.18547375428190
C           72.42193075964549       65.04764199270588       47.77559819176128
C           72.10886481189290       64.77638481509463       49.24434921569576
C           73.86208323645658       65.55108745056840       47.59880019376443
C           74.97106719392983       64.50969876060563       47.81694999699292
C           76.30929571781822       65.23794695606050       47.94910639297360
C           75.02217325372315       63.50161510875830       46.66011537254804
C           75.88199012775739       62.24948865098544       46.91935969140788
C           76.70033949499063       61.91015101342713       45.67143126291274
C           75.04460290332072       61.02203184149057       47.30920703484499
C           74.28056325933009       61.13430470372673       48.63193360492976
C           75.24139659024718       61.20245368093413       49.81927946699855
C           73.32989964589557       59.94658305223766       48.84452466795251
C           72.19109868175657       59.77798951781483       47.82787982669194
C           71.47474755553505       61.10136181138552       47.56301020895002
C           71.16079975605396       58.76461101591358       48.34845132376957
C           71.58570310375663       57.29309684115054       48.31907684521706
C           71.57317531000149       56.73438955313216       46.89712500492940
C           70.71343414681949       56.43057290313187       49.25038765809513
C           69.19118797331932       56.51569994127405       49.01621219177146
C           68.52844001952914       57.41573046076545       50.05558442518078
C           68.56548073702093       55.11452634300112       49.04476982963619
C           67.05559670722467       55.04127279652941       48.76602684357735
C           66.56949585248196       53.62183523946678       49.05614450227385
C           66.74465857895837       55.42859083165958       47.31733552005667
C           65.27601004240880       55.74498817695692       47.00030231895745
C           65.09221576530699       55.64417287530198       45.48820835538832
C           64.89539832567392       57.13537680838851       47.51825483800447
C           63.42168774795455       57.53882070297548       47.36833298308108
C           63.26307302370325       58.99914430357747       47.79449665118667
C           62.47551145698196       56.63363865611137       48.17658208357093
C           61.74791021101684       55.57800684589650       47.33406622118833
C           60.60873860275533       56.20931582393395       46.53874181532633
C           61.20932921501058       54.44897290712452       48.22368734725141
C           62.27399544816162       53.40105313962500       48.56309718095891
C           62.45946843581535       52.44334764799452       47.38718456992493
C           61.92792927980236       52.60340185339944       49.82615939430178
C           62.09539330971440       53.35346045431204       51.15541724858943
C           63.54187443567528       53.79244038332207       51.36607565789888
C           61.63953841035254       52.43838171372815       52.30053987563424
C           61.46680615315516       53.13324011906513       53.65799681571850
C           61.39133853957595       52.07584405904396       54.75883031859103
C           60.22918574733659       54.05235871296886       53.67921105444365
C           60.52959412789006       55.49951132726328       54.08735132791686
C           61.01953392694388       55.57140203341348       55.53402944105797
C           59.29505833814478       56.40412485900505       53.95354317084930
C           58.67612764653953       56.53683895553402       52.55759302779113
C           59.69215819788131       57.02373686978971       51.52578640287101
C           57.48430525636144       57.50508626853329       52.57436534008195
C           56.36114620205972       57.11690913528195       53.53521444916991
C           55.07138435046459       57.87010677629476       53.23057649209849
H           60.87197675824387       45.96942611765073       42.88489612087866
H           59.20486622823911       46.40900874016309       42.49444167764009
H           60.27190644352694       45.78965720376536       41.23495177839702
H           54.71868338354538       57.63405999556640       52.22819157719634
H           54.29106320789123       57.59783739574500       53.93923571825218
H           55.22809261607048       58.94518745340429       53.29040343921544
H           57.83877487839600       58.51020192608502       52.81831414689259
H           57.07256471258542       57.53922292622075       51.56160070771794
H           58.53111795830274       56.02232708478812       54.63375232289354
H           59.57126051303449       57.40472701122430       54.29806335800361
H           61.32696206692620       55.88165879891370       53.44059454168384
H           61.22773039106585       56.60137733537999       55.81649859796369
H           60.25940692971224       55.18336164646422       56.20978679911192
H           61.92919452919377       54.99325952421326       55.67280120522424
H           59.78240927688632       54.05913789243132       52.68490303138539
H           59.48026922841034       53.64625598818114       54.36337306863619
H           60.69038456589704       51.96874700798081       52.02870491493815
H           62.37657818169205       51.63765384491055       52.40586207152243
H           58.29750133412112       55.55870524401566       52.24190785929347
H           60.50365442012291       56.31205617853418       51.39860278016786
H           59.21322756651752       57.16269448157645       50.55795175621188