3258
 energy: -3427.553776021238 gnorm: 0.000836917683 xtb: 6.6.1 (8d0f1dd)
C          109.96733448254572       95.73234893505028       92.91378160000430
C          108.66852209510803       96.52954463015337       92.92782017188814
C          108.34194010452995       97.06065013746388       94.32092566916641
C          107.06298268325118       97.89421919359711       94.33634377045520
C          106.81358255653716       98.53597230047279       95.69861688585347
C          105.49409905591817       99.30409074246619       95.73832274570891
C          105.32004233782914      100.14856427209543       97.00092018488948
C          105.22486928038060       99.31479744867892       98.27535983558751
C          105.00049238512844      100.15592176564303       99.53199681118254
C          103.60864190946329      100.77998304605958       99.61792911663515
C          103.35316527564936      101.40359508422844      100.98818838475370
C          101.92109288962081      101.90918569517288      101.14511276033468
C          101.63498659010016      102.39068828902084      102.56583565091211
C          100.17187187710677      102.77907979130778      102.76283520852124
C           99.86448038054660      103.18503745735538      104.20276206524653
C           98.38139398257104      103.48447652203231      104.40495664387515
C           98.04862031045619      103.92338839820694      105.82977441711184
C           96.54808112650984      104.14400006343253      106.00717723610167
C           96.17566721281300      104.71524408591799      107.37440941865398
C           94.66042638887576      104.86460439771176      107.50926312687623
C           94.21445726981099      105.69513798413301      108.71298885890161
C           94.57985635160894      105.07718839173631      110.06039801333357
C           93.91327964546740      105.81344272408191      111.22189636412310
C           94.30086924479927      105.21187236953713      112.56936127341515
C           93.60183082738986      105.87590925881752      113.75383549524668
C           94.06610602055116      105.25963835238660      115.07103026976918
C           93.38898539777769      105.86089146774837      116.30037307698433
C           93.96233897671733      105.29902209719691      117.60508842774603
C           95.34070111422095      105.86582353711900      117.94162710945638
C           96.00705585537777      105.14274214165512      119.10949683946930
C           97.35367280179833      105.77819921216168      119.45456716241137
C           98.23637403971924      104.90249177148775      120.34269771004367
C           97.63623725771438      104.62686349515967      121.71884904085326
C           98.59613334508143      103.83288267708686      122.60246064013208
C           97.94071523403980      103.38671854242958      123.90708251833375
C           98.84940315356943      102.50496188684315      124.76581345519074
C           99.94675446080171      103.28222470057990      125.49043453679366
C          100.84631925170699      102.34923699796111      126.30044066205235
C          101.74762938352652      103.08244609577332      127.29456337673903
C          102.78380368071423      104.01169733048491      126.66304260501255
C          103.86549085888350      103.27964027414876      125.87101611289319
C          104.99130183366982      104.22873558965934      125.46689832057554
C          106.10576470737020      103.52905252839842      124.68933056050089
C          107.38347087645700      104.36590709766050      124.60272885690085
C          107.22207053046003      105.64802105010152      123.78980909977780
C          108.47543971276420      106.51826698258870      123.84193274187018
C          108.32242488558784      107.78964128042338      123.01149971859880
C          109.54033508410009      108.70379996393555      123.12103165605777
C          109.50664217315776      109.86190473539196      122.12347215285926
C          108.44012290938383      110.90336738040625      122.44783221993819
C          108.31551682469616      111.96653864739491      121.36057894155445
C          107.31067192643350      113.05064665983888      121.74011862015330
C          107.01437256106652      113.99897861353433      120.58230668593058
C          105.99119977515191      115.06360248009565      120.96437990921105
C          105.67095958196228      116.00864108705530      119.81047089886667
C          104.59604562458999      117.02083213816736      120.19387857337627
C          104.32246767092659      118.06414654192817      119.11238925434337
C          103.73354050589310      117.47454097317542      117.83377408947690
C          103.39148455574906      118.55731013900200      116.81628989928112
C          102.82033862149792      117.98825605667930      115.52122389317125
C          102.64195791021021      119.07620477451502      114.46695030400917
C          102.18517399048672      118.53029077342414      113.11603043963017
C          102.34622286017218      119.57169613874697      112.01109178812484
C          102.06867847547490      119.01617351531239      110.61331081429029
C          102.83155469192759      119.77772562597403      109.53304577873625
C          102.56686991761197      119.22289597165121      108.13667252969894
C          103.46964519185626      119.86376527328241      107.08732798933200
C          103.22503646558310      119.29681363921335      105.69258877333850
C          104.18699411230310      119.87870361066163      104.66155491353680
C          103.98989019240059      119.26200230429285      103.28049096871253
C          105.02786597326045      119.75470553016213      102.27637517030271
C          104.95365863413714      118.99268723636135      100.95587246893365
C          106.14401408396230      119.29175783843490      100.04669048676027
C          106.36745028502132      118.20075011281259       99.00258927608859
C          107.69195977091812      118.38453067223553       98.26417304913257
C          108.20249288858200      117.09364124496108       97.62992227039688
C          109.60605146065886      117.27681139273427       97.06196168737623
C          110.27527007875929      115.96105304506099       96.67686533261644
C          111.72348982315029      116.18986907783668       96.25640211546892
C          112.49785969431329      114.89658574740290       96.02419540812431
C          113.97226197411496      115.17858872117844       95.74673250729111
C          114.78980479279377      113.90305202737225       95.57712627914820
C          116.26643274704350      114.18799390744591       95.31642348312121
C          117.08538258277959      112.90229001612016       95.24392692549158
C          118.53630918904278      113.16391267884055       94.84970518769416
C          119.39699297204220      111.90177861177490       94.83462415055810
C          118.98804358888590      110.90831226899833       93.74959854781567
C          119.87729658481220      109.66842847215780       93.75245956183795
C          119.46041109948953      108.61314814332788       92.72770474706785
C          118.12375519256302      107.95677931773244       93.06700914874068
C          117.84889186311034      106.71987921813853       92.21410196797306
C          116.44568264617980      106.15090094831216       92.43005540376843
C          116.22669546445738      105.61087039288360       93.84132128943337
C          114.80144701256769      105.10330833337447       94.05328716804119
C          114.48685229575054      104.90680805802167       95.53379482674255
C          113.03272380798728      104.51218755146380       95.78633941022569
C          112.65071887191085      104.71368674130525       97.25029244504999
C          111.21987119565462      104.28446195547545       97.56625173684577
C          110.82482409368399      104.68905150560451       98.98392309417576
C          109.38021485619512      104.35339153622341       99.34247074922304
C          109.03962208844830      104.84041273938760      100.74871698139621
C          107.56949121523994      104.65171676462440      101.11239231627326
C          107.30177251041715      105.04845903596670      102.56183311689978
C          105.82379436875048      104.97408408959024      102.93443792549492
C          105.60721704094856      105.19710812098761      104.42914997666880
C          104.13063645031437      105.25649039257209      104.80763874510276
C          103.92986313822932      105.34130896630292      106.31839861471761
C          102.46392391274421      105.53250177129010      106.69355588779071
C          102.24688853921008      105.57240936473245      108.20339376043729
C          100.80308008789801      105.91290806675217      108.55960589261858
C          100.57104215870338      105.99449789484908      110.06585528513870
C           99.18995307275030      106.55414410823548      110.39686178635422
C           98.94585997972436      106.66916300190395      111.90053630556956
C           97.75239612104349      107.56742816194719      112.21755524523896
C           97.48827068158901      107.67243364142922      113.71746127920125
C           96.53259382259648      108.81183535799777      114.06186851341479
C           96.19820019928531      108.84001773287758      115.55079943540829
C           95.37229854216427      110.06174915291055      115.94256220038039
C           95.03110731345387      110.07364010030851      117.43060397521921
C           94.26277071959282      111.32656963309554      117.83040361969348
H           94.43347971212762      109.19095023627601      117.67306447331596
H           95.95480778948956      110.01670802945529      118.01208593382913
H           95.93362751235351      110.96644251349903      115.70018393730449
H           94.44749514631316      110.08108282465700      115.35976591565044
H           95.64944886097074      107.93354149484513      115.81147733270780
H           97.12581325345214      108.83759906815359      116.12844605032940
H           96.98842570137346      109.76262905869817      113.77295435195985
H           95.61133463937969      108.70502276576158      113.48414935036590
H           97.07259261927915      106.72937451704924      114.08151149806929
H           98.43490855200605      107.83501336949770      114.23775286220351
H           97.94776852255430      108.56635017919928      111.81859440220155
H           96.85965249907335      107.18809933186178      111.71451728240979
H           98.78618667261284      105.67627645847705      112.32907428403671
H           99.83509893435902      107.09005125359278      112.37542400591093
H           99.10083977733954      107.54683967177245      109.94765791153344
H           98.41932878904247      105.92328692092603      109.94468675109357
H          100.68795590211607      105.00310189875709      110.51094879206499
H          101.32913018435518      106.64354081691275      110.51006350336992
H          100.55043755869896      106.87715808256594      108.11071147327520
H          100.13377165295005      105.16310439069983      108.12887407922284
H          102.51348323348770      104.60511138346226      108.63577093071162
H          102.90948228739224      106.32137495684800      108.64303864288000
H          102.10535070578428      106.46766437977365      106.25583322534284
H          101.87060241087865      104.71869138475900      106.26798540344953
H          104.30761159278927      104.42845651702328      106.78433549070647
H          104.51323322905915      106.17574221830830      106.71429807388876
H          103.67176038501080      106.12614635370730      104.33077330019266
H          103.62195420498851      104.36612639999507      104.42844219600057
H          106.08792550580787      104.38823841870204      104.98475506202620
H          106.08922265261556      106.13109879268153      104.72765397070820
H          105.26888760068009      105.72554154367992      102.36780003200899
H          105.42859958535702      103.99457135027828      102.65363049702019
H          107.87375683228440      104.38969059212531      103.22064278869361
H          107.65996074496934      106.06764202787492      102.72792406500601
H          106.94921448184213      105.25633197117197      100.44715278999735
H          107.28617014630220      103.60705188823358      100.96299030810562
H          109.66186242036831      104.30551513223614      101.47063548295765
H          109.28724856015180      105.90283101208541      100.82567453521472
H          108.70657271139302      104.82320443927934       98.62303472168085
H          109.22409877366789      103.27381439337010       99.27860303404687
H          111.49019070701672      104.19781017284325       99.69654058293435
H          110.96824844738083      105.76805505240014       99.08965982960856
H          110.54004418262471      104.75711073999003       96.85326253826517
H          111.12102947732103      103.20277806323173       97.44776542933786
H          113.34537043758313      104.15947055901729       97.88282956916902
H          112.76201454658349      105.77362991465084       97.49405534305744
H          112.37989170420657      105.12438940332567       95.15870954994510
H          112.87783195120771      103.46987787046324       95.49881117626330
H          115.15345957526741      104.15070759885604       95.95584453861437
H          114.68697190864917      105.84559584494477       96.05502653585974
H          114.10116268803544      105.83392470964763       93.64008663781408
H          114.65086239084972      104.16819602710022       93.51062663328150
H          116.94078058380049      104.80906167025201       94.04055470391016
H          116.41701871332268      106.40876137034425       94.56023064041891
H          115.71038107610505      106.93490757835664       92.22849768364573
H          116.27186652916491      105.34929560179977       91.70723345237074
H          117.96194260860933      106.98494915200524       91.15915907923853
H          118.59083490003978      105.95010253970281       92.44082803599100
H          118.13756123236286      107.67329692302890       94.12043456508296
H          117.31139559700584      108.67128884129068       92.92082284916096
H          119.40933191092888      109.06514592952898       91.73364638827795
H          120.22952332107357      107.83732836195379       92.69748984293764
H          120.90795016348882      109.97087666354172       93.55257624101951
H          119.85562561590746      109.21623735378837       94.74743812299404
H          117.95290567434233      110.60718250733250       93.90870748442346
H          119.04859422254454      111.39513901487692       92.77253969030657
H          120.43987062714118      112.18863467799231       94.67414840845861
H          119.33531686254707      111.41453424869914       95.81097129436600
H          118.55958746676305      113.62197113134290       93.85821829930653
H          118.97221103520810      113.87878478143428       95.55160787930372
H          117.05918883710820      112.40298098135615       96.21586304916910
H          116.62267756506084      112.23509986987169       94.51492467476649
H          116.36813099118169      114.73417385426463       94.37546437283999
H          116.65873814737789      114.82815197292949       96.11040983160929
H          114.69640279834334      113.29488672740521       96.48071053282055
H          114.38429729057101      113.32519496310849       94.74225693054559
H          114.05763692233154      115.78789612768325       94.84328733000456
H          114.38473744126365      115.75694538128631       96.57713522273416
H          112.41347985811291      114.26201024753981       96.91008299092188
H          112.06099818254177      114.35141686065137       95.18339406516220
H          111.74784262083408      116.79846932455811       95.34941978728786
H          112.22541353978256      116.75797943256637       97.04458469075617
H          110.25689910698962      115.28545383236353       97.53647712715221
H          109.72058867387020      115.48059511872192       95.86691966660339
H          109.56930018815493      117.93900004517235       96.19475271662881
H          110.22401758325697      117.76783229827586       97.81945809857731
H          108.22553171488099      116.30785878605661       98.39025513445957
H          107.52072005069492      116.76375505739823       96.84347768801523
H          107.59164809131151      119.15710898336934       97.50018159652517
H          108.44354723400885      118.73218360994346       98.97817986903401
H          106.38374547556812      117.23470896711724       99.51541144065608
H          105.53788667603568      118.18382777920681       98.29261967171902
H          106.01300027766466      120.25822373535829       99.55675600130790
H          107.04372796951644      119.35933956030668      100.66395642234754
H          104.94359167843653      117.92153984110915      101.17762161866733
H          104.01876379899338      119.22470789946520      100.44233456178826
H          104.90078659478058      120.82556000161345      102.09856723887026
H          106.02259034207174      119.61128517148127      102.70752581131526
H          104.07150921369808      118.17449559055760      103.36612870160349
H          102.98461206228667      119.48485738217643      102.91627509171173
H          104.05383260775967      120.96281236860035      104.60126051435449
H          105.21261397272558      119.69235103461783      104.99159735217189
H          103.35207899973638      118.21089718614169      105.72275864290982
H          102.19467322998166      119.49668793280529      105.38934995511826
H          103.30674037700962      120.94558913754267      107.07651940776772
H          104.51363924481126      119.69175925337150      107.36294374766213
H          102.74498916375390      118.14374310762280      108.14400692923233
H          101.51965354357526      119.38178524005883      107.86762509129373
H          102.56045578856450      120.83702387336615      109.56715485863145
H          103.90203108250559      119.70301022825105      109.74277980503572
H          102.37475485777134      117.96692076645041      110.57619988119858
H          100.99871745743947      119.05497872206763      110.39773319165438
H          101.69712498284774      120.42754757236271      112.21127630642754
H          103.37666786105932      119.93441798294172      112.04121153843352
H          102.79533162719351      117.65795974739720      112.86480302005862
H          101.14551810504157      118.19989371513536      113.17599693423537
H          101.92774791365134      119.82204248837782      114.82480896604162
H          103.60258710293684      119.58022943532190      114.33159489698912
H          103.50333994305718      117.22643274141438      115.13725171513519
H          101.86032858798499      117.50521896684148      115.72204563973239
H          102.67356611712265      119.25735245106519      117.25137818029351
H          104.29708338013273      119.12510062752322      116.58561625641674
H          104.44457287038230      116.77993576409582      117.38293413577951
H          102.83213297953539      116.90818414832809      118.07904177526662
H          103.62279638883587      118.80334550818262      119.51372603015858
H          105.25116990708477      118.58752003583754      118.87331121586178
H          103.66812057346102      116.49054796117937      120.42285288572646
H          104.91294490616100      117.53804084603368      121.10283268255147
H          106.57781699452578      116.53926114107630      119.51347997423613
H          105.32937354271203      115.42153508512028      118.95647201438140
H          105.07088384016193      114.57601537616422      121.29569829032879
H          106.37555257038937      115.64451902063696      121.80682428200956
H          107.93899128796338      114.48242992217500      120.26207923449516
H          106.63660345937167      113.42037562097009      119.73568689339866
H          106.37848609710338      112.57836451168728      122.06050503426646
H          107.70004544347141      113.62041641607152      122.58831238172034
H          109.29019555188756      112.42392994506787      121.18070474251172
H          107.99772481600301      111.48841242712028      120.43006759806656
H          107.47343134244021      110.41157279532396      122.56500314384616
H          108.68368648606234      111.38166012947526      123.39938857477203
H          110.48345119555580      110.35218717048434      122.11525244048995
H          109.33121285946694      109.46110312237764      121.12207174948674
H          109.61088913585824      109.09905158968364      124.13791038042335
H          110.43649097948887      108.10703146679940      122.93802799462154
H          108.17558542871865      107.51801020140594      121.96323227169235
H          107.42989023368439      108.32052406192915      123.34655673539027
H          108.68043087002181      106.78813603934027      124.88154552001122
H          109.33239311927360      105.94505588671733      123.47898874206186
H          106.99815967263136      105.39296793470469      122.75065780108567
H          106.38001786840819      106.22393529904814      124.17791844877338
H          107.70414764573411      104.62337035759623      125.61587529112724
H          108.17665384935620      103.76031818299231      124.15519756590746
H          106.34472030402870      102.58635776321921      125.18945564663576
H          105.75641496909269      103.28655615758262      123.68262955172145
H          104.57076929696670      105.03502358961367      124.86388050209844
H          105.41546089943752      104.67679613103415      126.36960441218811
H          104.27670994574667      102.47343117145948      126.48454777809927
H          103.43300734306715      102.83010275653079      124.97623545211052
H          102.28411729215345      104.73418577146420      126.01674560180280
H          103.26549003798725      104.57573239272463      127.46656928455286
H          101.11550197378394      103.67146986372228      127.96485973844287
H          102.26909576996758      102.34094320544851      127.90590406911427
H          100.21345704607903      101.65936676453568      126.86594785646362
H          101.45411181558821      101.74858134655243      125.62147552326400
H          100.54604007458732      103.83212098459532      124.76483011754213
H           99.48275549453841      104.00939743546670      126.16207700881148
H           98.23901460712096      101.99114756550868      125.51337494524466
H           99.30502865278223      101.73777274985449      124.13438933184500
H           97.63562313834382      104.26338024826987      124.48389397647409
H           97.03528665102540      102.82382841882158      123.66443051631748
H           98.93296184466708      102.94837850872771      122.05556148211288
H           99.47461448789780      104.44292676968038      122.81754131309773
H           97.38849699695476      105.57318325836803      122.20659726465290
H           96.70915349864629      104.06176623759200      121.60340867724966
H           98.42032714367180      103.95007539845572      119.83782114661679
H           99.20376464308465      105.39677979486203      120.47204353930562
H           97.89032540540963      105.97463395401302      118.52238800738355
H           97.18368090642359      106.73960681113442      119.94431830792364
H           95.34674748274543      105.16932197792237      119.97857487376164
H           96.15830566819297      104.09355663617954      118.84099966483276
H           95.99332848665928      105.78410062925504      117.07078611685745
H           95.24513790603179      106.92669393342416      118.18416716456470
H           93.27798793510190      105.52345057498120      118.42724022467557
H           94.02814244327183      104.21093904111478      117.52259456769333
H           93.50568160948465      106.94726152220731      116.29131916421616
H           92.31809493640070      105.64693574495098      116.25571693767202
H           93.87144419260606      104.18416247938023      115.05046128748874
H           95.14517042562581      105.39335501824677      115.15172767614432
H           93.82286136875958      106.94571013675066      113.75596019723713
H           92.51939351847524      105.76196422904502      113.65312403833448
H           94.05938326866718      104.14585007241233      112.56656725155383
H           95.38101004190548      105.30091932850011      112.69949172801741
H           94.20202647013440      106.86738060091668      111.19610010160758
H           92.82755133157337      105.76921966174160      111.10210320637368
H           94.26797569561087      104.02967774385158      110.07546515069217
H           95.66288015046939      105.10073694289825      110.19486275488185
H           94.65257875600933      106.69257819433598      108.64470997512706
H           93.12783996445162      105.81053802941561      108.66463595268674
H           94.27800998010677      105.34581849528767      106.60435312839317
H           94.20430571106522      103.87265741652128      107.56617069280466
H           96.55613847154393      104.05871041423190      108.15963470547604
H           96.64711849920059      105.69207896565764      107.49605469508536
H           96.19761950710546      104.83022951016710      105.23115246430869
H           96.02629494164120      103.19430365577857      105.85985252945768
H           98.39091988404722      103.16124169932800      106.53493071152731
H           98.57992109332957      104.85001374081240      106.05672275527606
H           98.07689418073414      104.27136513025955      103.71012252455721
H           97.80010430903708      102.59094870310258      104.16094035934577
H          100.16351801254174      102.37625729370694      104.87469793716178
H          100.45071948838324      104.06939630208633      104.46279789000825
H           99.92162342933420      103.60488168651440      102.09268603693320
H           99.53802026938422      101.93110595718888      102.48903627603764
H          101.88910094271448      101.59322318467295      103.26873448044259
H          102.27204226698376      103.24878099889510      102.79335739320864
H          101.73921214589012      102.72233794884623      100.43866460373671
H          101.22893438370620      101.09900830055535      100.89901399996251
H          103.54928277878730      100.65476093234159      101.75994288460664
H          104.05058109226556      102.22963624415429      101.14724347608816
H          103.48951884833868      101.54339137083149       98.84697701065498
H          102.85875020642504      100.00522259848606       99.43491798917073
H          105.14250922979748       99.51289155402532      100.40441635732887
H          105.75614122231043      100.94374659369846       99.57721469676642
H          104.40932150224785       98.59546205352673       98.17371943876100
H          106.15174651666779       98.75168738858451       98.40290222758374
H          106.16103130323758      100.83885566492151       97.08663849731268
H          104.41055678703201      100.74334146614724       96.89325735034343
H          105.44930414682710       99.96562179641990       94.86842532642770
H          104.66251440379061       98.59960630332182       95.65376970867962
H          106.80796079026841       97.75485798411566       96.46109653689278
H          107.63428519118716       99.21979823638273       95.92621563926409
H          107.13661319216097       98.67763685884938       93.57771742709454
H          106.21347253716245       97.25959186754325       94.07080526006924
H          108.23747797995004       96.22156378197386       95.01334123581398
H          109.17487845248547       97.67383293887644       94.67170373394924
H          108.75370727491097       97.37058120584254       92.23545333633091
H          107.84827861222539       95.89721175691530       92.57935953808270
H          110.18134851167699       95.36421189545619       91.91303535854736
H          110.79807277684621       96.35638538821352       93.23613131672293
H          109.89910766893954       94.87953153985177       93.58585533764307
H           93.33559737861761      111.40172652456847      117.26607544196504
H           94.01872148953491      111.30949370690765      118.89046485548678
H           94.85546055912748      112.21652395996365      117.63154266740752
C          120.84302505678397      116.52583779712654      128.59963155283558
C          119.69796640512185      117.53150309282707      128.57368559425922
C          118.96590398967578      117.51798570589163      127.23464265956048
C          117.81805967331873      118.52381960027196      127.18453137431051
C          117.13664175355275      118.52999750713647      125.81875376029566
C          116.00458076138443      119.55017650041566      125.69916147138781
C          114.74654417589079      119.15345108596765      126.46865259885789
C          113.58385521094974      120.10140734392554      126.18489629976759
C          112.29801075333100      119.67045475361644      126.88641163616195
C          111.12385355973169      120.57993156227430      126.53245733701874
C          109.81679789646454      120.11681142484623      127.16975671549820
C          108.64077503088278      121.00779532661208      126.77801741691846
C          107.32088405654088      120.50425183941587      127.35507506876785
C          106.13132346727507      121.34803888885105      126.90492842907580
C          104.80806594497220      120.77871348954378      127.40939544193694
C          103.60184636688267      121.56032671402532      126.89438928058507
C          102.29061824946785      120.92540436599950      127.35093509255007
C          101.05013144873530      121.73477770748221      126.97414504083731
C          100.78778417932948      121.79053453465471      125.47010405948360
C           99.43350920739853      122.42996071220460      125.17097671988471
C           99.10923206322994      122.52494075252869      123.67955941472866