      -----------------------------------------------------------      
     |                   =====================                   |     
     |                           x T B                           |     
     |                   =====================                   |     
     |                         S. Grimme                         |     
     |          Mulliken Center for Theoretical Chemistry        |     
     |                    University of Bonn                     |     
      -----------------------------------------------------------      

   * xtb version 6.6.1 (8d0f1dd) compiled by 'stahn@M-Bot' on 2023-08-01

   xtb is free software: you can redistribute it and/or modify it under
   the terms of the GNU Lesser General Public License as published by
   the Free Software Foundation, either version 3 of the License, or
   (at your option) any later version.
   
   xtb is distributed in the hope that it will be useful,
   but WITHOUT ANY WARRANTY; without even the implied warranty of
   MERCHANTABILITY or FITNESS FOR A PARTICULAR PURPOSE.  See the
   GNU Lesser General Public License for more details.
   
   Cite this work as:
   * C. Bannwarth, E. Caldeweyher, S. Ehlert, A. Hansen, P. Pracht,
     J. Seibert, S. Spicher, S. Grimme, WIREs Comput. Mol. Sci., 2020, 11,
     e01493. DOI: 10.1002/wcms.1493
   
   for GFN2-xTB:
   * C. Bannwarth, S. Ehlert and S. Grimme., J. Chem. Theory Comput., 2019,
     15, 1652-1671. DOI: 10.1021/acs.jctc.8b01176
   for GFN1-xTB:
   * S. Grimme, C. Bannwarth, P. Shushkov, J. Chem. Theory Comput., 2017,
     13, 1989-2009. DOI: 10.1021/acs.jctc.7b00118
   for GFN0-xTB:
   * P. Pracht, E. Caldeweyher, S. Ehlert, S. Grimme, ChemRxiv, 2019, preprint.
     DOI: 10.26434/chemrxiv.8326202.v1
   for GFN-FF:
   * S. Spicher and S. Grimme, Angew. Chem. Int. Ed., 2020, 59, 15665-15673.
     DOI: 10.1002/anie.202004239
   
   for ALPB and GBSA implicit solvation:
   * S. Ehlert, M. Stahn, S. Spicher, S. Grimme, J. Chem. Theory Comput.,
     2021, 17, 4250-4261. DOI: 10.1021/acs.jctc.1c00471
   
   for DFT-D4:
   * E. Caldeweyher, C. Bannwarth and S. Grimme, J. Chem. Phys., 2017,
     147, 034112. DOI: 10.1063/1.4993215
   * E. Caldeweyher, S. Ehlert, A. Hansen, H. Neugebauer, S. Spicher,
     C. Bannwarth and S. Grimme, J. Chem. Phys., 2019, 150, 154122.
     DOI: 10.1063/1.5090222
   * E. Caldeweyher, J.-M. Mewes, S. Ehlert and S. Grimme, Phys. Chem. Chem. Phys.
     2020, 22, 8499-8512. DOI: 10.1039/D0CP00502A
   
   for sTDA-xTB:
   * S. Grimme and C. Bannwarth, J. Chem. Phys., 2016, 145, 054103.
     DOI: 10.1063/1.4959605
   
   in the mass-spec context:
   * V. Asgeirsson, C. Bauer and S. Grimme, Chem. Sci., 2017, 8, 4879.
     DOI: 10.1039/c7sc00601b
   * J. Koopman and S. Grimme, ACS Omega 2019, 4, 12, 15120-15133.
     DOI: 10.1021/acsomega.9b02011
   
   for metadynamics refer to:
   * S. Grimme, J. Chem. Theory Comput., 2019, 155, 2847-2862
     DOI: 10.1021/acs.jctc.9b00143
   
   for SPH calculations refer to:
   * S. Spicher and S. Grimme, J. Chem. Theory Comput., 2021, 17, 1701-1714
     DOI: 10.1021/acs.jctc.0c01306
   
   with help from (in alphabetical order)
   P. Atkinson, C. Bannwarth, F. Bohle, G. Brandenburg, E. Caldeweyher
   M. Checinski, S. Dohm, S. Ehlert, S. Ehrlich, I. Gerasimov, C. Hölzer
   A. Katbashev, J. Koopman, C. Lavigne, S. Lehtola, F. März, M. Müller,
   F. Musil, H. Neugebauer, J. Pisarek, C. Plett, P. Pracht, F. Pultar,
   J. Seibert, P. Shushkov, S. Spicher, M. Stahn, M. Steiner, T. Strunk,
   J. Stückrath, T. Rose, and J. Unsleber
   
 * started run on 2024/10/03 at 21:21:18.520     

           -------------------------------------------------
          |                Calculation Setup                |
           -------------------------------------------------

          program call               : /home/abt-grimme/AK-bin/xtb input.xyz --input input.inp --opt
          hostname                   : boar019.thch.uni-bonn.de
          coordinate file            : input.xyz
          omp threads                :                     8

   ID    Z sym.   atoms
    1    6 C      1-120, 363-482, 725-844, 1087-1206, 1449-1568, 1811-1930,
                  2173-2292, 2535-2654, 2897-3016
    2    1 H      121-362, 483-724, 845-1086, 1207-1448, 1569-1810,
                  1931-2172, 2293-2534, 2655-2896, 3017-3258

molecular fragmentation (1/2 indicates fragments):
111111111111111111111111111111111111111111111111111111111111111111111111
111111111111111111111111111111111111111111111111111111111111111111111111
111111111111111111111111111111111111111111111111111111111111111111111111
111111111111111111111111111111111111111111111111111111111111111111111111
111111111111111111111111111111111111111111111111111111111111111111111111
112222222222222222222222222222222222222222222222222222222222222222222222
222222222222222222222222222222222222222222222222222222222222222222222222
222222222222222222222222222222222222222222222222222222222222222222222222
222222222222222222222222222222222222222222222222222222222222222222222222
222222222222222222222222222222222222222222222222222222222222222222222222
222222222222222222222222222222222222222222222222222222222222222222222222
222222222222222222222222222222222222222222222222222222222222222222222222
222222222222222222222222222222222222222222222222222222222222222222222222
222222222222222222222222222222222222222222222222222222222222222222222222
222222222222222222222222222222222222222222222222222222222222222222222222
222222222222222222222222222222222222222222222222222222222222222222222222
222222222222222222222222222222222222222222222222222222222222222222222222
222222222222222222222222222222222222222222222222222222222222222222222222
222222222222222222222222222222222222222222222222222222222222222222222222
222222222222222222222222222222222222222222222222222222222222222222222222
222222222222222222222222222222222222222222222222222222222222222222222222
222222222222222222222222222222222222222222222222222222222222222222222222
222222222222222222222222222222222222222222222222222222222222222222222222
222222222222222222222222222222222222222222222222222222222222222222222222
222222222222222222222222222222222222222222222222222222222222222222222222
222222222222222222222222222222222222222222222222222222222222222222222222
222222222222222222222222222222222222222222222222222222222222222222222222
222222222222222222222222222222222222222222222222222222222222222222222222
222222222222222222222222222222222222222222222222222222222222222222222222
222222222222222222222222222222222222222222222222222222222222222222222222
222222222222222222222222222222222222222222222222222222222222222222222222
222222222222222222222222222222222222222222222222222222222222222222222222
222222222222222222222222222222222222222222222222222222222222222222222222
222222222222222222222222222222222222222222222222222222222222222222222222
222222222222222222222222222222222222222222222222222222222222222222222222
222222222222222222222222222222222222222222222222222222222222222222222222
222222222222222222222222222222222222222222222222222222222222222222222222
222222222222222222222222222222222222222222222222222222222222222222222222
222222222222222222222222222222222222222222222222222222222222222222222222
222222222222222222222222222222222222222222222222222222222222222222222222
222222222222222222222222222222222222222222222222222222222222222222222222
222222222222222222222222222222222222222222222222222222222222222222222222
222222222222222222222222222222222222222222222222222222222222222222222222
222222222222222222222222222222222222222222222222222222222222222222222222
222222222222222222222222222222222222222222222222222222222222222222222222
222222222222222222
# atoms in fragment 1/2:   362  2896
 fragment masses (1/2) :     1685.21    13481.68
CMA distance (Bohr)    :  14.572
constraining FC (au)   :  0.0500

           -------------------------------------------------
          |                 G F N 2 - x T B                 |
           -------------------------------------------------

        Reference                      10.1021/acs.jctc.8b01176
      * Hamiltonian:
        H0-scaling (s, p, d)           1.850000    2.230000    2.230000
        zeta-weighting                 0.500000
      * Dispersion:
        s8                             2.700000
        a1                             0.520000
        a2                             5.000000
        s9                             5.000000
      * Repulsion:
        kExp                           1.500000    1.000000
        rExp                           1.000000
      * Coulomb:
        alpha                          2.000000
        third order                    shell-resolved
        anisotropic                    true
        a3                             3.000000
        a5                             4.000000
        cn-shift                       1.200000
        cn-exp                         4.000000
        max-rad                        5.000000


          ...................................................
          :                      SETUP                      :
          :.................................................:
          :  # basis functions                6498          :
          :  # atomic orbitals                6498          :
          :  # shells                         4338          :
          :  # electrons                      6498          :
          :  max. iterations                   250          :
          :  Hamiltonian                  GFN2-xTB          :
          :  restarted?                      false          :
          :  GBSA solvation                  false          :
          :  PC potential                    false          :
          :  electronic temp.          300.0000000     K    :
          :  accuracy                    1.0000000          :
          :  -> integral cutoff          0.2500000E+02      :
          :  -> integral neglect         0.1000000E-07      :
          :  -> SCF convergence          0.1000000E-05 Eh   :
          :  -> wf. convergence          0.1000000E-03 e    :
          :  Broyden damping             0.4000000          :
          ...................................................

 iter      E             dE          RMSdq      gap      omega  full diag
   1  -3473.4710263 -0.347347E+04  0.244E+00   11.33       0.0  T
   2  -3478.5746173 -0.510359E+01  0.135E+00   11.46       1.0  T
   3  -3478.7793770 -0.204760E+00  0.598E-01   11.40       1.0  T
   4  -3478.7998926 -0.205156E-01  0.757E-02   11.44       1.0  T
   5  -3478.8009037 -0.101105E-02  0.394E-02   11.44       1.0  T
   6  -3478.8011117 -0.208005E-03  0.658E-03   11.43       1.0  T
   7  -3478.8011280 -0.162949E-04  0.124E-03   11.43       1.4  T
   8  -3478.8011290 -0.106319E-05  0.388E-04   11.43       4.5  T
   9  -3478.8011291 -0.693408E-07  0.141E-04   11.43      12.4  T
  10  -3478.8011291 -0.367345E-08  0.415E-05   11.43      42.3  T

   *** convergence criteria satisfied after 10 iterations ***

         #    Occupation            Energy/Eh            Energy/eV
      -------------------------------------------------------------
         1        2.0000           -0.6250632             -17.0088
       ...           ...                  ...                  ...
      3243        2.0000           -0.4024157             -10.9503
      3244        2.0000           -0.4023614             -10.9488
      3245        2.0000           -0.4022401             -10.9455
      3246        2.0000           -0.4021520             -10.9431
      3247        2.0000           -0.4020744             -10.9410
      3248        2.0000           -0.4020092             -10.9392
      3249        2.0000           -0.4007408             -10.9047 (HOMO)
      3250                          0.0193596               0.5268 (LUMO)
      3251                          0.0208646               0.5678
      3252                          0.0209323               0.5696
      3253                          0.0215801               0.5872
      3254                          0.0217441               0.5917
       ...                                ...                  ...
      6498                          0.3851169              10.4796
      -------------------------------------------------------------
                  HL-Gap            0.4201004 Eh           11.4315 eV
             Fermi-level           -0.1906906 Eh           -5.1890 eV

 SCC (total)                   0 d,  0 h, 14 min, 27.072 sec
 SCC setup                      ...        0 min,  0.440 sec (  0.051%)
 Dispersion                     ...        0 min,  3.520 sec (  0.406%)
 classical contributions        ...        0 min,  0.139 sec (  0.016%)
 integral evaluation            ...        0 min,  6.064 sec (  0.699%)
 iterations                     ...       10 min, 24.421 sec ( 72.015%)
 molecular gradient             ...        3 min, 44.159 sec ( 25.852%)
 printout                       ...        0 min,  8.329 sec (  0.961%)

         :::::::::::::::::::::::::::::::::::::::::::::::::::::
         ::                     SUMMARY                     ::
         :::::::::::::::::::::::::::::::::::::::::::::::::::::
         :: total energy           -3427.545632702613 Eh    ::
         :: gradient norm              0.018580533494 Eh/a0 ::
         :: HOMO-LUMO gap             11.431514072864 eV    ::
         ::.................................................::
         :: SCC energy             -3478.801129108477 Eh    ::
         :: -> isotropic ES            0.418499014266 Eh    ::
         :: -> anisotropic ES          1.122552852512 Eh    ::
         :: -> anisotropic XC          1.946279982962 Eh    ::
         :: -> dispersion             -4.046924928510 Eh    ::
         :: repulsion energy          50.616557690988 Eh    ::
         :: add. restraining           0.000000000000 Eh    ::
         :: total charge              -0.000000000013 e     ::
         :::::::::::::::::::::::::::::::::::::::::::::::::::::

      ----------------------------------------------------------- 
     |              Fast Inertial Relaxation Engine              |
      ----------------------------------------------------------- 

          ...................................................
          :                      SETUP                      :
          :.................................................:
          :   energy convergence        0.5000000E-05 Eh    :
          :   grad. convergence         0.1000000E-02 Eh/a0 :
          :   optimization log               true           :
          :   writing optlog all                1     steps :
          :   Hessian reset                    20     steps :
          :   time step scaling                 5     steps :
          :   maximium step len.        1.0000000     a0    :
          :   initial time step         0.2500000     fs    :
          :   maximum time step         1.2500000     fs    :
          :   power reset thr           0.0000000     au    :
          :   alpha parameter           0.1000000           :
          :   BFGS update                   false           :
          :   preconditioning               false           :
          ...................................................

........................................................................
.............................. CYCLE    1 ..............................
........................................................................

 iter      E             dE          RMSdq      gap      omega  full diag
   1  -3478.8046990 -0.347880E+04  0.270E-04   11.43       0.0  T
   2  -3478.8046990 -0.285695E-07  0.154E-04   11.43      11.4  T
   3  -3478.8046990 -0.637101E-09  0.491E-05   11.43      35.7  T
     SCC iter.                  ...        3 min,  4.384 sec
     gradient                   ...        3 min, 43.931 sec
 * total energy  : -3427.5456716 Eh     change    :  -0.3884873E-04 Eh
   gradient norm :     0.0170954 Eh/a0  converged?    E=F G=F D=F
   time step     :     0.2500000 fs     power     :   0.1975420E-08
   step length   :     0.0021776 a0     speed     :   0.2106944E-03

........................................................................
.............................. CYCLE    2 ..............................
........................................................................

 iter      E             dE          RMSdq      gap      omega  full diag
   1  -3478.8098945 -0.347881E+04  0.391E-04   11.43       0.0  T
   2  -3478.8098946 -0.598397E-07  0.223E-04   11.43       7.9  T
   3  -3478.8098946 -0.132286E-08  0.710E-05   11.43      24.7  T
     SCC iter.                  ...        2 min, 59.269 sec
     gradient                   ...        3 min, 43.726 sec
 * total energy  : -3427.5457225 Eh     change    :  -0.5093951E-04 Eh
   gradient norm :     0.0149592 Eh/a0  converged?    E=F G=F D=F
   time step     :     0.2500000 fs     power     :   0.2520588E-08
   step length   :     0.0031792 a0     speed     :   0.3076023E-03

........................................................................
.............................. CYCLE    3 ..............................
........................................................................

 iter      E             dE          RMSdq      gap      omega  full diag
   1  -3478.8164869 -0.347882E+04  0.497E-04   11.43       0.0  T
   2  -3478.8164870 -0.962427E-07  0.283E-04   11.43       6.2  T
   3  -3478.8164870 -0.221007E-08  0.899E-05   11.43      19.5  T
     SCC iter.                  ...        2 min, 59.784 sec
     gradient                   ...        3 min, 44.863 sec
 * total energy  : -3427.5457776 Eh     change    :  -0.5515258E-04 Eh
   gradient norm :     0.0122935 Eh/a0  converged?    E=F G=F D=F
   time step     :     0.2500000 fs     power     :   0.2630429E-08
   step length   :     0.0040545 a0     speed     :   0.3922981E-03

........................................................................
.............................. CYCLE    4 ..............................
........................................................................

 iter      E             dE          RMSdq      gap      omega  full diag
   1  -3478.8241801 -0.347882E+04  0.583E-04   11.43       0.0  T
   2  -3478.8241802 -0.130527E-06  0.332E-04   11.43       5.3  T
   3  -3478.8241802 -0.299133E-08  0.104E-04   11.43      16.8  T
     SCC iter.                  ...        2 min, 56.288 sec
     gradient                   ...        3 min, 43.811 sec
 * total energy  : -3427.5458286 Eh     change    :  -0.5094166E-04 Eh
   gradient norm :     0.0092926 Eh/a0  converged?    E=F G=F D=F
   time step     :     0.2500000 fs     power     :   0.2301690E-08
   step length   :     0.0047700 a0     speed     :   0.4615202E-03

........................................................................
.............................. CYCLE    5 ..............................
........................................................................

 iter      E             dE          RMSdq      gap      omega  full diag
   1  -3478.8326084 -0.347883E+04  0.644E-04   11.43       0.0  T
   2  -3478.8326086 -0.155709E-06  0.367E-04   11.43       4.8  T
   3  -3478.8326086 -0.352338E-08  0.113E-04   11.43      15.4  T
     SCC iter.                  ...        2 min, 59.697 sec
     gradient                   ...        3 min, 45.188 sec
 * total energy  : -3427.5458681 Eh     change    :  -0.3950632E-04 Eh
   gradient norm :     0.0063145 Eh/a0  converged?    E=F G=F D=F
   time step     :     0.2500000 fs     power     :   0.1612120E-08
   step length   :     0.0052966 a0     speed     :   0.5124728E-03

........................................................................
.............................. CYCLE    6 ..............................
........................................................................

 iter      E             dE          RMSdq      gap      omega  full diag
   1  -3478.8422071 -0.347884E+04  0.747E-04   11.43       0.0  T
   2  -3478.8422073 -0.199119E-06  0.427E-04   11.43       4.1  T
   3  -3478.8422073 -0.474029E-08  0.127E-04   11.43      13.8  T
     SCC iter.                  ...        2 min, 57.645 sec
     gradient                   ...        3 min, 44.424 sec
 * total energy  : -3427.5458929 Eh     change    :  -0.2476550E-04 Eh
   gradient norm :     0.0041807 Eh/a0  converged?    E=F G=F D=F
   time step     :     0.2750000 fs     power     :   0.6222037E-09
   step length   :     0.0061943 a0     speed     :   0.5448513E-03

........................................................................
.............................. CYCLE    7 ..............................
........................................................................

 iter      E             dE          RMSdq      gap      omega  full diag
   1  -3478.8519617 -0.347885E+04  0.797E-04   11.43       0.0  T
   2  -3478.8519619 -0.199792E-06  0.458E-04   11.43       3.8  T
   3  -3478.8519619 -0.491127E-08  0.124E-04   11.43      14.1  T
     SCC iter.                  ...        2 min, 58.683 sec
     gradient                   ...        3 min, 44.434 sec
 * total energy  : -3427.5458976 Eh     change    :  -0.4723869E-05 Eh
   gradient norm :     0.0051364 Eh/a0  converged?    E=T G=F D=F
   time step     :     0.3025000 fs     power     :  -0.3438617E-09
   step length   :     0.0067138 a0     speed     :   0.5368534E-03

........................................................................
.............................. CYCLE    8 ..............................
........................................................................
 * reset velocities

 iter      E             dE          RMSdq      gap      omega  full diag
   1  -3478.8518423 -0.347885E+04  0.138E-05   11.43       0.0  T
   2  -3478.8518423 -0.768523E-10  0.737E-06   11.43     237.6  T
   3  -3478.8518423 -0.709406E-10  0.330E-06   11.43     530.1  T
     SCC iter.                  ...        2 min, 55.397 sec
     gradient                   ...        3 min, 45.294 sec
 * total energy  : -3427.5458981 Eh     change    :  -0.5640595E-06 Eh
   gradient norm :     0.0050757 Eh/a0  converged?    E=T G=F D=T
   time step     :     0.1512500 fs     power     :   0.4905665E-10
   step length   :     0.0001102 a0     speed     :   0.1761888E-04

........................................................................
.............................. CYCLE    9 ..............................
........................................................................

 iter      E             dE          RMSdq      gap      omega  full diag
   1  -3478.8516054 -0.347885E+04  0.277E-05   11.43       0.0  T
   2  -3478.8516054 -0.161435E-09  0.161E-05   11.43     108.5  T
   3  -3478.8516054 -0.145519E-10  0.391E-06   11.43     448.6  T
     SCC iter.                  ...        3 min,  1.959 sec
     gradient                   ...        3 min, 44.865 sec
 * total energy  : -3427.5458992 Eh     change    :  -0.1099233E-05 Eh
   gradient norm :     0.0049620 Eh/a0  converged?    E=T G=F D=T
   time step     :     0.1512500 fs     power     :   0.9533629E-10
   step length   :     0.0002190 a0     speed     :   0.3502919E-04

........................................................................
.............................. CYCLE   10 ..............................
........................................................................

 iter      E             dE          RMSdq      gap      omega  full diag
   1  -3478.8512562 -0.347885E+04  0.407E-05   11.43       0.0  T
   2  -3478.8512562 -0.442014E-09  0.237E-05   11.43      73.9  T
   3  -3478.8512562  0.491127E-10  0.577E-06   11.43     303.9  T
     SCC iter.                  ...        3 min,  2.892 sec
     gradient                   ...        3 min, 43.556 sec
 * total energy  : -3427.5459008 Eh     change    :  -0.1587707E-05 Eh
   gradient norm :     0.0047965 Eh/a0  converged?    E=T G=F D=T
   time step     :     0.1512500 fs     power     :   0.1368752E-09
   step length   :     0.0003254 a0     speed     :   0.5204791E-04

........................................................................
.............................. CYCLE   11 ..............................
........................................................................

 iter      E             dE          RMSdq      gap      omega  full diag
   1  -3478.8508028 -0.347885E+04  0.534E-05   11.43       0.0  T
   2  -3478.8508028 -0.689852E-09  0.311E-05   11.43      56.3  T
   3  -3478.8508028 -0.477485E-10  0.752E-06   11.43     233.0  T
     SCC iter.                  ...        3 min,  2.275 sec
     gradient                   ...        3 min, 44.206 sec
 * total energy  : -3427.5459028 Eh     change    :  -0.2007279E-05 Eh
   gradient norm :     0.0045840 Eh/a0  converged?    E=T G=F D=T
   time step     :     0.1512500 fs     power     :   0.1719861E-09
   step length   :     0.0004283 a0     speed     :   0.6849260E-04

........................................................................
.............................. CYCLE   12 ..............................
........................................................................

 iter      E             dE          RMSdq      gap      omega  full diag
   1  -3478.8502558 -0.347885E+04  0.654E-05   11.43       0.0  T
   2  -3478.8502558 -0.102909E-08  0.381E-05   11.43      46.0  T
   3  -3478.8502558 -0.131877E-10  0.910E-06   11.43     192.5  T
     SCC iter.                  ...        3 min,  2.751 sec
     gradient                   ...        3 min, 44.798 sec
 * total energy  : -3427.5459052 Eh     change    :  -0.2342279E-05 Eh
   gradient norm :     0.0043321 Eh/a0  converged?    E=T G=F D=T
   time step     :     0.1512500 fs     power     :   0.1994144E-09
   step length   :     0.0005264 a0     speed     :   0.8419252E-04

........................................................................
.............................. CYCLE   13 ..............................
........................................................................

 iter      E             dE          RMSdq      gap      omega  full diag
   1  -3478.8496291 -0.347885E+04  0.765E-05   11.43       0.0  T
   2  -3478.8496291 -0.145110E-08  0.446E-05   11.43      39.3  T
   3  -3478.8496291  0.818545E-10  0.105E-05   11.43     167.1  T
     SCC iter.                  ...        3 min, 10.321 sec
     gradient                   ...        3 min, 45.574 sec
 * total energy  : -3427.5459078 Eh     change    :  -0.2582370E-05 Eh
   gradient norm :     0.0040502 Eh/a0  converged?    E=T G=F D=T
   time step     :     0.1512500 fs     power     :   0.2184393E-09
   step length   :     0.0006190 a0     speed     :   0.9899295E-04

........................................................................
.............................. CYCLE   14 ..............................
........................................................................

 iter      E             dE          RMSdq      gap      omega  full diag
   1  -3478.8488626 -0.347885E+04  0.964E-05   11.43       0.0  T
   2  -3478.8488626 -0.204318E-08  0.562E-05   11.43      31.1  T
   3  -3478.8488626 -0.845830E-10  0.130E-05   11.43     135.1  T
     SCC iter.                  ...        2 min, 58.700 sec
     gradient                   ...        3 min, 44.489 sec
 * total energy  : -3427.5459108 Eh     change    :  -0.3022093E-05 Eh
   gradient norm :     0.0037181 Eh/a0  converged?    E=T G=F D=T
   time step     :     0.1663750 fs     power     :   0.2294558E-09
   step length   :     0.0007851 a0     speed     :   0.1141405E-03

........................................................................
.............................. CYCLE   15 ..............................
........................................................................

 iter      E             dE          RMSdq      gap      omega  full diag
   1  -3478.8479567 -0.347885E+04  0.119E-04   11.43       0.0  T
   2  -3478.8479567 -0.303135E-08  0.695E-05   11.43      25.2  T
   3  -3478.8479567 -0.891305E-10  0.155E-05   11.43     112.8  T
     SCC iter.                  ...        2 min, 56.979 sec
     gradient                   ...        3 min, 44.207 sec
 * total energy  : -3427.5459142 Eh     change    :  -0.3379982E-05 Eh
   gradient norm :     0.0033503 Eh/a0  converged?    E=T G=F D=T
   time step     :     0.1830125 fs     power     :   0.2302918E-09
   step length   :     0.0009780 a0     speed     :   0.1292667E-03

........................................................................
.............................. CYCLE   16 ..............................
........................................................................

 iter      E             dE          RMSdq      gap      omega  full diag
   1  -3478.8469315 -0.347885E+04  0.144E-04   11.43       0.0  T
   2  -3478.8469315 -0.417958E-08  0.840E-05   11.43      20.8  T
   3  -3478.8469315 -0.136424E-10  0.179E-05   11.43      97.6  T
     SCC iter.                  ...        3 min,  1.271 sec
     gradient                   ...        3 min, 43.914 sec
 * total energy  : -3427.5459178 Eh     change    :  -0.3630063E-05 Eh
   gradient norm :     0.0029814 Eh/a0  converged?    E=T G=F D=F
   time step     :     0.2013138 fs     power     :   0.2199002E-09
   step length   :     0.0011974 a0     speed     :   0.1438693E-03

........................................................................
.............................. CYCLE   17 ..............................
........................................................................

 iter      E             dE          RMSdq      gap      omega  full diag
   1  -3478.8458409 -0.347885E+04  0.169E-04   11.43       0.0  T
   2  -3478.8458409 -0.514956E-08  0.993E-05   11.43      17.6  T
   3  -3478.8458409 -0.122327E-09  0.198E-05   11.43      88.7  T
     SCC iter.                  ...        3 min,  3.143 sec
     gradient                   ...        3 min, 45.003 sec
 * total energy  : -3427.5459215 Eh     change    :  -0.3693091E-05 Eh
   gradient norm :     0.0026736 Eh/a0  converged?    E=T G=F D=F
   time step     :     0.2214451 fs     power     :   0.1996339E-09
   step length   :     0.0014399 a0     speed     :   0.1572857E-03

........................................................................
.............................. CYCLE   18 ..............................
........................................................................

 iter      E             dE          RMSdq      gap      omega  full diag
   1  -3478.8447898 -0.347884E+04  0.194E-04   11.43       0.0  T
   2  -3478.8447898 -0.571117E-08  0.114E-04   11.43      15.3  T
   3  -3478.8447898 -0.193722E-09  0.204E-05   11.43      86.0  T
     SCC iter.                  ...        2 min, 56.350 sec
     gradient                   ...        3 min, 45.069 sec
 * total energy  : -3427.5459251 Eh     change    :  -0.3660406E-05 Eh
   gradient norm :     0.0025030 Eh/a0  converged?    E=T G=F D=F
   time step     :     0.2435896 fs     power     :   0.1745325E-09
   step length   :     0.0016989 a0     speed     :   0.1686992E-03

........................................................................
.............................. CYCLE   19 ..............................
........................................................................

 iter      E             dE          RMSdq      gap      omega  full diag
   1  -3478.8439413 -0.347884E+04  0.216E-04   11.43       0.0  T
   2  -3478.8439413 -0.538148E-08  0.127E-04   11.43      13.8  T
   3  -3478.8439413 -0.140062E-09  0.193E-05   11.43      90.9  T
     SCC iter.                  ...        2 min, 58.995 sec
     gradient                   ...        3 min, 45.707 sec
 * total energy  : -3427.5459287 Eh     change    :  -0.3566197E-05 Eh
   gradient norm :     0.0024985 Eh/a0  converged?    E=T G=F D=F
   time step     :     0.2679486 fs     power     :   0.1530858E-09
   step length   :     0.0019651 a0     speed     :   0.1773985E-03

........................................................................
.............................. CYCLE   20 ..............................
........................................................................

 iter      E             dE          RMSdq      gap      omega  full diag
   1  -3478.8434981 -0.347884E+04  0.235E-04   11.43       0.0  T
   2  -3478.8434981 -0.425553E-08  0.139E-04   11.43      12.6  T
   3  -3478.8434981 -0.832188E-10  0.169E-05   11.43     103.4  T
     SCC iter.                  ...        3 min,  1.496 sec
     gradient                   ...        3 min, 45.472 sec
 * total energy  : -3427.5459324 Eh     change    :  -0.3655911E-05 Eh
   gradient norm :     0.0025834 Eh/a0  converged?    E=T G=F D=F
   time step     :     0.2947435 fs     power     :   0.1433563E-09
   step length   :     0.0022368 a0     speed     :   0.1835711E-03
 * RMSD in coord.:     0.0005676 a0     energy gain  -0.2996688E-03 Eh

........................................................................
.............................. CYCLE   21 ..............................
........................................................................

 iter      E             dE          RMSdq      gap      omega  full diag
   1  -3478.8435893 -0.347884E+04  0.192E-04   11.43       0.0  T
   2  -3478.8435893 -0.179989E-08  0.114E-04   11.43      15.4  T
   3  -3478.8435893 -0.404725E-10  0.115E-05   11.43     151.8  T
     SCC iter.                  ...        2 min, 56.494 sec
     gradient                   ...        3 min, 46.480 sec
 * total energy  : -3427.5459354 Eh     change    :  -0.3074262E-05 Eh
   gradient norm :     0.0026097 Eh/a0  converged?    E=T G=F D=F
   time step     :     0.2500000 fs     power     :   0.1497832E-09
   step length   :     0.0019168 a0     speed     :   0.1854571E-03

........................................................................
.............................. CYCLE   22 ..............................
........................................................................

 iter      E             dE          RMSdq      gap      omega  full diag
   1  -3478.8441406 -0.347884E+04  0.188E-04   11.43       0.0  T
   2  -3478.8441406 -0.149157E-08  0.110E-04   11.43      15.9  T
   3  -3478.8441406 -0.400178E-10  0.114E-05   11.43     153.6  T
     SCC iter.                  ...        2 min, 59.294 sec
     gradient                   ...        3 min, 43.892 sec
 * total energy  : -3427.5459387 Eh     change    :  -0.3227615E-05 Eh
   gradient norm :     0.0025229 Eh/a0  converged?    E=T G=F D=F
   time step     :     0.2500000 fs     power     :   0.1605315E-09
   step length   :     0.0019405 a0     speed     :   0.1877503E-03

........................................................................
.............................. CYCLE   23 ..............................
........................................................................

 iter      E             dE          RMSdq      gap      omega  full diag
   1  -3478.8451100 -0.347885E+04  0.188E-04   11.43       0.0  T
   2  -3478.8451100 -0.186083E-08  0.110E-04   11.43      16.0  T
   3  -3478.8451100 -0.873115E-10  0.125E-05   11.43     140.4  T
     SCC iter.                  ...        2 min, 59.273 sec
     gradient                   ...        3 min, 45.838 sec
 * total energy  : -3427.5459420 Eh     change    :  -0.3363168E-05 Eh
   gradient norm :     0.0023087 Eh/a0  converged?    E=T G=F D=F
   time step     :     0.2500000 fs     power     :   0.1671790E-09
   step length   :     0.0019760 a0     speed     :   0.1911890E-03

........................................................................
.............................. CYCLE   24 ..............................
........................................................................

 iter      E             dE          RMSdq      gap      omega  full diag
   1  -3478.8464284 -0.347885E+04  0.191E-04   11.43       0.0  T
   2  -3478.8464284 -0.277487E-08  0.110E-04   11.43      15.9  T
   3  -3478.8464284 -0.126875E-09  0.143E-05   11.43     122.4  T
     SCC iter.                  ...        3 min,  2.928 sec
     gradient                   ...        3 min, 45.227 sec
 * total energy  : -3427.5459454 Eh     change    :  -0.3350521E-05 Eh
   gradient norm :     0.0019898 Eh/a0  converged?    E=T G=F D=F
   time step     :     0.2500000 fs     power     :   0.1634092E-09
   step length   :     0.0020226 a0     speed     :   0.1956997E-03

........................................................................
.............................. CYCLE   25 ..............................
........................................................................

 iter      E             dE          RMSdq      gap      omega  full diag
   1  -3478.8480002 -0.347885E+04  0.194E-04   11.43       0.0  T
   2  -3478.8480002 -0.384080E-08  0.112E-04   11.43      15.7  T
   3  -3478.8480002 -0.118234E-09  0.164E-05   11.43     107.1  T
     SCC iter.                  ...        3 min,  3.432 sec
     gradient                   ...        3 min, 45.677 sec
 * total energy  : -3427.5459485 Eh     change    :  -0.3087207E-05 Eh
   gradient norm :     0.0016286 Eh/a0  converged?    E=T G=F D=F
   time step     :     0.2500000 fs     power     :   0.1468792E-09
   step length   :     0.0020745 a0     speed     :   0.2007158E-03

........................................................................
.............................. CYCLE   26 ..............................
........................................................................

 iter      E             dE          RMSdq      gap      omega  full diag
   1  -3478.8498712 -0.347885E+04  0.215E-04   11.43       0.0  T
   2  -3478.8498712 -0.563068E-08  0.123E-04   11.43      14.2  T
   3  -3478.8498712 -0.103682E-09  0.197E-05   11.43      88.9  T
     SCC iter.                  ...        2 min, 59.368 sec
     gradient                   ...        3 min, 45.059 sec
 * total energy  : -3427.5459513 Eh     change    :  -0.2868213E-05 Eh
   gradient norm :     0.0013368 Eh/a0  converged?    E=T G=F D=F
   time step     :     0.2750000 fs     power     :   0.1171637E-09
   step length   :     0.0023435 a0     speed     :   0.2061346E-03

........................................................................
.............................. CYCLE   27 ..............................
........................................................................

 iter      E             dE          RMSdq      gap      omega  full diag
   1  -3478.8518223 -0.347885E+04  0.228E-04   11.43       0.0  T
   2  -3478.8518223 -0.633418E-08  0.131E-04   11.43      13.4  T
   3  -3478.8518223 -0.763976E-10  0.207E-05   11.43      84.8  T
     SCC iter.                  ...        2 min, 59.460 sec
     gradient                   ...        3 min, 44.298 sec
 * total energy  : -3427.5459537 Eh     change    :  -0.2391853E-05 Eh
   gradient norm :     0.0013001 Eh/a0  converged?    E=T G=F D=F
   time step     :     0.3025000 fs     power     :   0.8282356E-10
   step length   :     0.0026198 a0     speed     :   0.2094877E-03

........................................................................
.............................. CYCLE   28 ..............................
........................................................................

 iter      E             dE          RMSdq      gap      omega  full diag
   1  -3478.8534817 -0.347885E+04  0.226E-04   11.43       0.0  T
   2  -3478.8534817 -0.476393E-08  0.130E-04   11.43      13.5  T
   3  -3478.8534817 -0.226919E-09  0.175E-05   11.43     100.4  T
     SCC iter.                  ...        2 min, 58.331 sec
     gradient                   ...        3 min, 43.870 sec
 * total energy  : -3427.5459557 Eh     change    :  -0.1989141E-05 Eh
   gradient norm :     0.0015331 Eh/a0  converged?    E=T G=F D=F
   time step     :     0.3327500 fs     power     :   0.6165367E-10
   step length   :     0.0028520 a0     speed     :   0.2073199E-03

........................................................................
.............................. CYCLE   29 ..............................
........................................................................

 iter      E             dE          RMSdq      gap      omega  full diag
   1  -3478.8545262 -0.347885E+04  0.213E-04   11.43       0.0  T
   2  -3478.8545262 -0.225646E-08  0.123E-04   11.43      14.2  T
   3  -3478.8545262 -0.170076E-09  0.121E-05   11.43     145.1  T
     SCC iter.                  ...        2 min, 59.826 sec
     gradient                   ...        3 min, 44.107 sec
 * total energy  : -3427.5459577 Eh     change    :  -0.1995401E-05 Eh
   gradient norm :     0.0017362 Eh/a0  converged?    E=T G=F D=F
   time step     :     0.3660250 fs     power     :   0.6115863E-10
   step length   :     0.0030442 a0     speed     :   0.2011763E-03

........................................................................
.............................. CYCLE   30 ..............................
........................................................................

 iter      E             dE          RMSdq      gap      omega  full diag
   1  -3478.8547531 -0.347885E+04  0.201E-04   11.43       0.0  T
   2  -3478.8547531 -0.107866E-08  0.117E-04   11.43      14.9  T
   3  -3478.8547531 -0.185082E-09  0.949E-06   11.43     184.6  T
     SCC iter.                  ...        3 min,  0.267 sec
     gradient                   ...        3 min, 43.510 sec
 * total energy  : -3427.5459602 Eh     change    :  -0.2450005E-05 Eh
   gradient norm :     0.0017300 Eh/a0  converged?    E=T G=F D=F
   time step     :     0.4026275 fs     power     :   0.7299548E-10
   step length   :     0.0032614 a0     speed     :   0.1959369E-03

........................................................................
.............................. CYCLE   31 ..............................
........................................................................

 iter      E             dE          RMSdq      gap      omega  full diag
   1  -3478.8540877 -0.347885E+04  0.200E-04   11.43       0.0  T
   2  -3478.8540877 -0.271712E-08  0.118E-04   11.43      14.9  T
   3  -3478.8540877 -0.158707E-09  0.123E-05   11.43     142.3  T
     SCC iter.                  ...        2 min, 59.847 sec
     gradient                   ...        3 min, 43.416 sec
 * total energy  : -3427.5459632 Eh     change    :  -0.3016184E-05 Eh
   gradient norm :     0.0014988 Eh/a0  converged?    E=T G=F D=F
   time step     :     0.4428903 fs     power     :   0.8080048E-10
   step length   :     0.0035573 a0     speed     :   0.1942831E-03

........................................................................
.............................. CYCLE   32 ..............................
........................................................................

 iter      E             dE          RMSdq      gap      omega  full diag
   1  -3478.8526745 -0.347885E+04  0.208E-04   11.43       0.0  T
   2  -3478.8526745 -0.628052E-08  0.123E-04   11.43      14.3  T
   3  -3478.8526745 -0.160526E-09  0.193E-05   11.43      90.9  T
     SCC iter.                  ...        3 min,  5.333 sec
     gradient                   ...        3 min, 44.782 sec
 * total energy  : -3427.5459664 Eh     change    :  -0.3209960E-05 Eh
   gradient norm :     0.0012612 Eh/a0  converged?    E=T G=F D=F
   time step     :     0.4871793 fs     power     :   0.7334860E-10
   step length   :     0.0039464 a0     speed     :   0.1959404E-03

........................................................................
.............................. CYCLE   33 ..............................
........................................................................

 iter      E             dE          RMSdq      gap      omega  full diag
   1  -3478.8510799 -0.347885E+04  0.203E-04   11.43       0.0  T
   2  -3478.8510799 -0.733598E-08  0.120E-04   11.43      14.6  T
   3  -3478.8510799 -0.229647E-09  0.214E-05   11.43      81.8  T
     SCC iter.                  ...        2 min, 56.544 sec
     gradient                   ...        3 min, 42.458 sec
 * total energy  : -3427.5459694 Eh     change    :  -0.3043539E-05 Eh
   gradient norm :     0.0013708 Eh/a0  converged?    E=T G=F D=F
   time step     :     0.5358972 fs     power     :   0.6065872E-10
   step length   :     0.0043840 a0     speed     :   0.1978791E-03

........................................................................
.............................. CYCLE   34 ..............................
........................................................................

 iter      E             dE          RMSdq      gap      omega  full diag
   1  -3478.8501928 -0.347885E+04  0.183E-04   11.43       0.0  T
   2  -3478.8501928 -0.308773E-08  0.109E-04   11.43      16.1  T
   3  -3478.8501928 -0.139607E-09  0.115E-05   11.43     152.8  T
     SCC iter.                  ...        2 min, 59.303 sec
     gradient                   ...        3 min, 43.298 sec
 * total energy  : -3427.5459727 Eh     change    :  -0.3294794E-05 Eh
   gradient norm :     0.0015783 Eh/a0  converged?    E=T G=F D=F
   time step     :     0.5894869 fs     power     :   0.6539097E-10
   step length   :     0.0048102 a0     speed     :   0.1973815E-03

........................................................................
.............................. CYCLE   35 ..............................
........................................................................

 iter      E             dE          RMSdq      gap      omega  full diag
   1  -3478.8506526 -0.347885E+04  0.199E-04   11.43       0.0  T
   2  -3478.8506526 -0.999989E-09  0.117E-04   11.43      15.0  T
   3  -3478.8506526 -0.777618E-10  0.738E-06   11.43     237.4  T
     SCC iter.                  ...        2 min, 58.099 sec
     gradient                   ...        3 min, 43.616 sec
 * total energy  : -3427.5459771 Eh     change    :  -0.4330019E-05 Eh
   gradient norm :     0.0014600 Eh/a0  converged?    E=T G=F D=F
   time step     :     0.6484356 fs     power     :   0.8247224E-10
   step length   :     0.0053297 a0     speed     :   0.1988161E-03

........................................................................
.............................. CYCLE   36 ..............................
........................................................................

 iter      E             dE          RMSdq      gap      omega  full diag
   1  -3478.8525689 -0.347885E+04  0.263E-04   11.43       0.0  T
   2  -3478.8525689 -0.737737E-08  0.152E-04   11.43      11.5  T
   3  -3478.8525689 -0.251475E-09  0.222E-05   11.43      79.0  T
     SCC iter.                  ...        3 min,  5.479 sec
     gradient                   ...        3 min, 44.389 sec
 * total energy  : -3427.5459822 Eh     change    :  -0.5166322E-05 Eh
   gradient norm :     0.0011156 Eh/a0  converged?    E=F G=F D=F
   time step     :     0.7132792 fs     power     :   0.8307661E-10
   step length   :     0.0060593 a0     speed     :   0.2054846E-03

........................................................................
.............................. CYCLE   37 ..............................
........................................................................

 iter      E             dE          RMSdq      gap      omega  full diag
   1  -3478.8549945 -0.347885E+04  0.296E-04   11.43       0.0  T
   2  -3478.8549945 -0.121513E-07  0.172E-04   11.43      10.2  T
   3  -3478.8549945 -0.431100E-09  0.298E-05   11.43      58.8  T
     SCC iter.                  ...        2 min, 56.620 sec
     gradient                   ...        3 min, 44.172 sec
 * total energy  : -3427.5459872 Eh     change    :  -0.4961010E-05 Eh
   gradient norm :     0.0012369 Eh/a0  converged?    E=T G=F D=F
   time step     :     0.7846071 fs     power     :   0.6803810E-10
   step length   :     0.0069508 a0     speed     :   0.2142872E-03

........................................................................
.............................. CYCLE   38 ..............................
........................................................................

 iter      E             dE          RMSdq      gap      omega  full diag
   1  -3478.8560402 -0.347886E+04  0.266E-04   11.43       0.0  T
   2  -3478.8560402 -0.567479E-08  0.157E-04   11.43      11.2  T
   3  -3478.8560402 -0.225100E-09  0.217E-05   11.43      80.7  T
     SCC iter.                  ...        2 min, 56.925 sec
     gradient                   ...        3 min, 44.473 sec
 * total energy  : -3427.5459926 Eh     change    :  -0.5408815E-05 Eh
   gradient norm :     0.0013247 Eh/a0  converged?    E=F G=F D=F
   time step     :     0.8630678 fs     power     :   0.7421175E-10
   step length   :     0.0078092 a0     speed     :   0.2188662E-03

........................................................................
.............................. CYCLE   39 ..............................
........................................................................

 iter      E             dE          RMSdq      gap      omega  full diag
   1  -3478.8549758 -0.347885E+04  0.294E-04   11.43       0.0  T
   2  -3478.8549758 -0.967793E-08  0.171E-04   11.43      10.2  T
   3  -3478.8549758 -0.221917E-09  0.289E-05   11.43      60.6  T
     SCC iter.                  ...        2 min, 58.513 sec
     gradient                   ...        3 min, 45.063 sec
 * total energy  : -3427.5459990 Eh     change    :  -0.6444266E-05 Eh
   gradient norm :     0.0010387 Eh/a0  converged?    E=F G=F D=F
   time step     :     0.9493746 fs     power     :   0.7701958E-10
   step length   :     0.0088666 a0     speed     :   0.2259089E-03

........................................................................
.............................. CYCLE   40 ..............................
........................................................................

 iter      E             dE          RMSdq      gap      omega  full diag
   1  -3478.8535121 -0.347885E+04  0.312E-04   11.43       0.0  T
   2  -3478.8535121 -0.980845E-08  0.181E-04   11.43       9.7  T
   3  -3478.8535121 -0.313321E-09  0.256E-05   11.43      68.5  T
     SCC iter.                  ...        3 min,  5.733 sec
     gradient                   ...        3 min, 42.870 sec
 * total energy  : -3427.5460055 Eh     change    :  -0.6442986E-05 Eh
   gradient norm :     0.0012799 Eh/a0  converged?    E=F G=F D=F
   time step     :     1.0443120 fs     power     :   0.6831597E-10
   step length   :     0.0101642 a0     speed     :   0.2354274E-03

........................................................................
.............................. CYCLE   41 ..............................
........................................................................

 iter      E             dE          RMSdq      gap      omega  full diag
   1  -3478.8545707 -0.347885E+04  0.318E-04   11.43       0.0  T
   2  -3478.8545707 -0.505270E-08  0.185E-04   11.43       9.5  T
   3  -3478.8545707 -0.373348E-09  0.143E-05   11.43     122.9  T
     SCC iter.                  ...        2 min, 56.225 sec
     gradient                   ...        3 min, 43.535 sec
 * total energy  : -3427.5460134 Eh     change    :  -0.7950537E-05 Eh
   gradient norm :     0.0011224 Eh/a0  converged?    E=F G=F D=F
   time step     :     1.1487432 fs     power     :   0.8388071E-10
   step length   :     0.0115067 a0     speed     :   0.2422938E-03

........................................................................
.............................. CYCLE   42 ..............................
........................................................................

 iter      E             dE          RMSdq      gap      omega  full diag
   1  -3478.8570084 -0.347886E+04  0.389E-04   11.44       0.0  T
   2  -3478.8570084 -0.181331E-07  0.226E-04   11.44       7.7  T
   3  -3478.8570084 -0.542514E-09  0.327E-05   11.44      53.6  T
     SCC iter.                  ...        2 min, 57.564 sec
     gradient                   ...        3 min, 44.227 sec
 * total energy  : -3427.5460222 Eh     change    :  -0.8757663E-05 Eh
   gradient norm :     0.0012033 Eh/a0  converged?    E=F G=F D=F
   time step     :     1.2500000 fs     power     :   0.7721762E-10
   step length   :     0.0131709 a0     speed     :   0.2548710E-03
 * RMSD in coord.:     0.0016838 a0     energy gain  -0.8982348E-04 Eh

........................................................................
.............................. CYCLE   43 ..............................
........................................................................

 iter      E             dE          RMSdq      gap      omega  full diag
   1  -3478.8570493 -0.347886E+04  0.606E-05   11.44       0.0  T
   2  -3478.8570493 -0.143700E-09  0.356E-05   11.44      49.2  T
   3  -3478.8570493  0.200089E-10  0.206E-06   11.44     850.8  T
     SCC iter.                  ...        2 min, 57.675 sec
     gradient                   ...        3 min, 43.209 sec
 * total energy  : -3427.5460239 Eh     change    :  -0.1686142E-05 Eh
   gradient norm :     0.0012205 Eh/a0  converged?    E=T G=F D=F
   time step     :     0.2500000 fs     power     :   0.8822125E-10
   step length   :     0.0025414 a0     speed     :   0.2458944E-03

........................................................................
.............................. CYCLE   44 ..............................
........................................................................

 iter      E             dE          RMSdq      gap      omega  full diag
   1  -3478.8566880 -0.347886E+04  0.610E-05   11.44       0.0  T
   2  -3478.8566880 -0.330601E-09  0.355E-05   11.44      49.3  T
   3  -3478.8566880  0.909495E-12  0.467E-06   11.44     375.0  T
     SCC iter.                  ...        2 min, 56.194 sec
     gradient                   ...        3 min, 42.864 sec
 * total energy  : -3427.5460257 Eh     change    :  -0.1861584E-05 Eh
   gradient norm :     0.0011298 Eh/a0  converged?    E=T G=F D=F
   time step     :     0.2500000 fs     power     :   0.9703833E-10
   step length   :     0.0024771 a0     speed     :   0.2396707E-03

........................................................................
.............................. CYCLE   45 ..............................
........................................................................

 iter      E             dE          RMSdq      gap      omega  full diag
   1  -3478.8560173 -0.347886E+04  0.718E-05   11.44       0.0  T
   2  -3478.8560173 -0.870386E-09  0.417E-05   11.44      42.1  T
   3  -3478.8560173 -0.700311E-10  0.817E-06   11.44     214.5  T
     SCC iter.                  ...        2 min, 57.155 sec
     gradient                   ...        3 min, 44.818 sec
 * total energy  : -3427.5460277 Eh     change    :  -0.1927289E-05 Eh
   gradient norm :     0.0009863 Eh/a0  converged?    E=T G=T D=F
   time step     :     0.2500000 fs     power     :   0.9931417E-10
   step length   :     0.0024460 a0     speed     :   0.2366654E-03

   *** GEOMETRY OPTIMIZATION CONVERGED AFTER 45 CYCLES ***

------------------------------------------------------------------------
 total energy gain   :        -0.0003950 Eh       -0.2478 kcal/mol
 total RMSD          :         0.0020399 a0        0.0011 Å
 total power (kW/mol):        -0.0230441 (step)   -0.0001 (real)
------------------------------------------------------------------------

 FIRE (total)                  0 d,  5 h, 17 min, 16.166 sec
 setup                          ...        0 min,  0.116 sec (  0.001%)
 velocities                     ...        0 min,  0.003 sec (  0.000%)
 propagation                    ...        0 min,  0.005 sec (  0.000%)
 singlepoint calculation        ...      317 min, 15.292 sec ( 99.995%)
 log and printout               ...        0 min,  0.688 sec (  0.004%)
 preconditioner                 ...        0 min,  0.000 sec (  0.000%)
 model hessian                  ...        0 min,  0.000 sec (  0.000%)
 hessian update                 ...        0 min,  0.000 sec (  0.000%)

================
 final structure:
================
3258
 xtb: 6.6.1 (8d0f1dd)
C          109.96733285285833       95.73413623299761       92.91544191322751
C          108.66871466039890       96.53101832517696       92.92904891504973
C          108.34229666589660       97.06122027245380       94.32242225309503
C          107.06345646099165       97.89491191395653       94.33718649178806
C          106.81371352889256       98.53574280907542       95.69989623355281
C          105.49409422226013       99.30377440859525       95.73898646116804
C          105.31976768587002      100.14874257203975       97.00126401596970
C          105.22404133606150       99.31438385167689       98.27545829072695
C          105.00005735545487      100.15578757428290       99.53227435302888
C          103.60790083527698      100.77981276707888       99.61789471420389
C          103.35244156363483      101.40343491935597      100.98842492625015
C          101.92016127297990      101.90922431526951      101.14500405199485
C          101.63432388877993      102.39066037394056      102.56604527906401
C          100.17100663148751      102.77927049557536      102.76276409210733
C           99.86385113774200      103.18514115255741      104.20297787661696
C           98.38052982610529      103.48476168074075      104.40480454896628
C           98.04809795156096      103.92358635026733      105.82989646649105
C           96.54741685999602      104.14451286454869      106.00712517118080
C           96.17571135708921      104.71537827071768      107.37486068650472
C           94.66036622639591      104.86511936284495      107.50962030743992
C           94.21457767302489      105.69556074947747      108.71340712878448
C           94.58006483371059      105.07705277138963      110.06065791741659
C           93.91322143947804      105.81353201487066      111.22201654784621
C           94.30088881279073      105.21162499285204      112.56942583840950
C           93.60182191963557      105.87600082728399      113.75384000246898
C           94.06667661839194      105.25948682825526      115.07083841817466
C           93.38957478802786      105.86086218953228      116.30023353487618
C           93.96291455817078      105.29864936270008      117.60464923576016
C           95.34114266312110      105.86582064397768      117.94141787037867
C           96.00723817903159      105.14207026702297      119.10917928701905
C           97.35362417598363      105.77827345400895      119.45423447228978
C           98.23654750056274      104.90221360792648      120.34235023181897
C           97.63615090413572      104.62687544386282      121.71861250022427
C           98.59663179006863      103.83283008207749      122.60176877085726
C           97.94116083973722      103.38672488589837      123.90646505001681
C           98.85027822832348      102.50531807123900      124.76482833370873
C           99.94718293290239      103.28320636202321      125.48949290404381
C          100.84658555093091      102.34999690581930      126.29943497610726
C          101.74760058624364      103.08318287668153      127.29355357021447
C          102.78357619777556      104.01278589525619      126.66234974791320
C          103.86516088141816      103.28024315815289      125.87047189530922
C          104.99079425839354      104.22963427710474      125.46607419318858
C          106.10509084184851      103.52944909776053      124.68841303708898
C          107.38308382620416      104.36595566645177      124.60218060626462
C          107.22145460225205      105.64807585759881      123.78895211838530
C          108.47519896541452      106.51813000898227      123.84158240082780
C          108.32169561109804      107.78960211923169      123.01087619394424
C          109.53975721853374      108.70387211294896      123.12109874392236
C          109.50665210312495      109.86189649285078      122.12308342105995
C          108.43997156330946      110.90342300105411      122.44816744836943
C          108.31569018760639      111.96636221599985      121.36020693287145
C          107.31046124578208      113.05046122692328      121.74020424105044
C          107.01434480397337      113.99893507706429      120.58199365033595
C          105.99088210953119      115.06368588116462      120.96449274793899
C          105.67077013355646      116.00861285882635      119.80996374132098
C          104.59565099533189      117.02104938944508      120.19372383386042
C          104.32258437400995      118.06463288639202      119.11205556496604
C          103.73319300872851      117.47443621211630      117.83345351381323
C          103.39096196419446      118.55773891196216      116.81604416033576
C          102.81956407627823      117.98806227710290      115.52094088079083
C          102.64185438966857      119.07650624574919      114.46660049934839
C          102.18516011995648      118.52963266337065      113.11570376134094
C          102.34621573559110      119.57164697738713      112.01088795922566
C          102.06904314985546      119.01555072778046      110.61295077988284
C          102.83222108966814      119.77770713322334      109.53285764961676
C          102.56668041311548      119.22272500161759      108.13635099756524
C          103.46997415235646      119.86392948127734      107.08715906618428
C          103.22470035416229      119.29676770636456      105.69225998837391
C          104.18734553038429      119.87887343510144      104.66149004770448
C          103.98965242026230      119.26186812942980      103.28028235212874
C          105.02821870591546      119.75474884462487      102.27640078688252
C          104.95352678966397      118.99230200705371      100.95582473148889
C          106.14428139829265      119.29178706999238      100.04684301910964
C          106.36727016166857      118.20035812018517       99.00266404037748
C          107.69202407812301      118.38462084171084       98.26421180178664
C          108.20240123266392      117.09324237821565       97.63011602724394
C          109.60614766349053      117.27706826621684       97.06201626179740
C          110.27509773258032      115.96089449557249       96.67668500672359
C          111.72350866280964      116.19039984645636       96.25616451536381
C          112.49754776149847      114.89655105657054       96.02403114187034
C          113.97215895933384      115.17896327957062       95.74650551894139
C          114.78937552159142      113.90282401260667       95.57694957825227
C          116.26625569433470      114.18810716708150       95.31634924053199
C          117.08499922104996      112.90189185866267       95.24451869856281
C          118.53598853828578      113.16372457311087       94.84962901924263
C          119.39631676776582      111.90109626282135       94.83480489613369
C          118.98704998205729      110.90780925901727       93.74943976976745
C          119.87683048502610      109.66799810733886       93.75284799929008
C          119.45982239013266      108.61276678558555       92.72800807652666
C          118.12313250758775      107.95646291349627       93.06810529473606
C          117.84887289805127      106.71921673916367       92.21523053926606
C          116.44535724335840      106.15097290841641       92.43042825593494
C          116.22664424473868      105.61066449632708       93.84185731877928
C          114.80096654484170      105.10333722170751       94.05293925504793
C          114.48686176660553      104.90668241541766       95.53376252344822
C          113.03226555722087      104.51218634716525       95.78552607670143
C          112.65023280876441      104.71359651248042       97.24980091219516
C          111.21906137267271      104.28396456161862       97.56541114150552
C          110.82423517801060      104.68887066121559       98.98340245273684
C          109.37934558739012      104.35258725140750       99.34174490332154
C          109.03915919124330      104.84023651357700      100.74822701811831
C          107.56868830160677      104.65115075235713      101.11176551191517
C          107.30132505585182      105.04845215311573      102.56151018755068
C          105.82294763555305      104.97371683983070      102.93392527308819
C          105.60675663762984      105.19699729032064      104.42904658617655
C          104.12971208880842      105.25624786384287      104.80720329853277
C          103.92936217930267      105.34112026654633      106.31837974824488
C          102.46293065238937      105.53240312599256      106.69301209452320
C          102.24635833719809      105.57227362171139      108.20324554041535
C          100.80211714733667      105.91290651630706      108.55902438507015
C          100.57077757046753      105.99448979258563      110.06571144260916
C           99.18925238280259      106.55408889894926      110.39639323165493
C           98.94558293216510      106.66874068814387      111.90050208754008
C           97.75182698192904      107.56734747001886      112.21710358997733
C           97.48795435364379      107.67215543020001      113.71738749249550
C           96.53215284002727      108.81186328137100      114.06171540697721
C           96.19773520045837      108.83913788332453      115.55099670585363
C           95.37204259915617      110.06137698265781      115.94266786077252
C           95.03097163879211      110.07331956122876      117.43095467595609
C           94.26302772698811      111.32689120394957      117.82973236819102
H           94.43265359934807      109.19142130954586      117.67224750772102
H           95.95456871383956      110.01575659861241      118.01261811323469
H           95.93370832656558      110.96568884755544      115.69946956252437
H           94.44774289477300      110.07964593259611      115.36005907691097
H           95.64841729898116      107.93306995566219      115.81014099657000
H           97.12544338965883      108.83528407372394      116.12859480031851
H           96.98811794538216      109.76252392747857      113.77269202823683
H           95.61164853754900      108.70410910470152      113.48414599475832
H           97.07171772004966      106.72961016781811      114.08053862542565
H           98.43481153606267      107.83390343349809      114.23762967645986
H           97.94720146991868      108.56605394823048      111.81790049003924
H           96.85990157940184      107.18700511514574      111.71475207675725
H           98.78531592833335      105.67615776450147      112.32824255296630
H           99.83516034608458      107.08879531714396      112.37571077410006
H           99.10014625634925      107.54662097753543      109.94727014340111
H           98.41994373992135      105.92238694970058      109.94497753806560
H          100.68734966927327      105.00326963057414      110.51013611919177
H          101.32923938886077      106.64317874028566      110.50985630643790
H          100.54990373843411      106.87694462825387      108.11009850164673
H          100.13410172860856      105.16250074981083      108.12927865774873
H          102.51261653091564      104.60502957002144      108.63493139067430
H          102.90945610748039      106.32082320008503      108.64286091226936
H          102.10502805937263      106.46743342230458      106.25532339544606
H          101.87104101668453      104.71814049370855      106.26822058496862
H          104.30684956281145      104.42829662725296      106.78391751198099
H          104.51323345792879      106.17520685263167      106.71425934718137
H          103.67136957075651      106.12580211026265      104.33053374601984
H          103.62249082021528      104.36555362435496      104.42884990802737
H          106.08726459726647      104.38810672409092      104.98440337102008
H          106.08913688202477      106.13074336339935      104.72759336180667
H          105.26829709909465      105.72502614440261      102.36760668370876
H          105.42915723305408      103.99403994307016      102.65418821155616
H          107.87314017748471      104.38980322309352      103.22034445720544
H          107.65959491615992      106.06752643082847      102.72757725364745
H          106.94854331398390      105.25573295861096      100.44699141910031
H          107.28641481351741      103.60662681033418      100.96352528847723
H          109.66114594452269      104.30548044361893      101.47028640288609
H          109.28660584637680      105.90257974099161      100.82518632873817
H          108.70575825828058      104.82259793318886       98.62296136632230
H          109.22385816529217      103.27335369979359       99.27910893149026
H          111.48917013382500      104.19764847746379       99.69636070602328
H          110.96719041558582      105.76785970336660       99.08925044921649
H          110.53954056688286      104.75747814500282       96.85338484225923
H          111.12014392623234      103.20271218620418       97.44798280067975
H          113.34457645629618      104.15958550694339       97.88277219774467
H          112.76063897474768      105.77346902473151       97.49398683473180
H          112.37988093264836      105.12542709112083       95.15915453663199
H          112.87723858953484      103.47030123702582       95.49862492778051
H          115.15312930531589      104.15055066999183       95.95582234740093
H          114.68682859378752      105.84507253975514       96.05583705129899
H          114.10063221641765      105.83396712306227       93.64067463543788
H          114.65055906325721      104.16820333106871       93.51138887430002
H          116.93968370948161      104.80819442072085       94.04054311913181
H          116.41748325263200      106.40733458364082       94.56227942063607
H          115.71028668797791      106.93487868665702       92.22892417559069
H          116.27192751865846      105.34879496663409       91.70903762692859
H          117.96193357131033      106.98503851564534       91.16111454338493
H          118.59014902043263      105.94956505783193       92.44275618015520
H          118.13687682571683      107.67395165081433       94.12200881605993
H          117.31080686253161      108.67075862796489       92.92131058250897
H          119.40790827731247      109.06535164477866       91.73487217860523
H          120.22879415642608      107.83736304374652       92.69834678901640
H          120.90701649999326      109.97111253136737       93.55312112256399
H          119.85479205365519      109.21649505326684       94.74817139688678
H          117.95207597656697      110.60665964620966       93.90892276973406
H          119.04826024244525      111.39487019414298       92.77313096700834
H          120.43870610033288      112.18821780265347       94.67415537118757
H          119.33434467930338      111.41428625110980       95.81134786261268
H          118.55817997494046      113.62068657722868       93.85811203149757
H          118.97195965668703      113.87859337038557       95.55123505011690
H          117.05882030813447      112.40302379655137       96.21667001720253
H          116.62226962318675      112.23506241181755       94.51562360872420
H          116.36775388303916      114.73316360496210       94.37525504212363
H          116.65825491765210      114.82828396388153       96.11025017540169
H          114.69610191656352      113.29464152168262       96.48048029446107
H          114.38405239178925      113.32596957446691       94.74184741179290
H          114.05709787398693      115.78722728798623       94.84290325952844
H          114.38484407890630      115.75727836307676       96.57673918418847
H          112.41317856364635      114.26198042813981       96.90981021162277
H          112.06108305181795      114.35254833909850       95.18302542243403
H          111.74731641384636      116.79807437423148       95.34916893116463
H          112.22536086007268      116.75855445985771       97.04428532661298
H          110.25674911743782      115.28527094195709       97.53613801054036
H          109.72082597905529      115.48169277867241       95.86649325853666
H          109.56862852530570      117.93852838938193       96.19490846626306
H          110.22399084366931      117.76815996565996       97.81942100411392
H          108.22538233528725      116.30748962603568       98.39032466249471
H          107.52110701087841      116.76424813009038       96.84358941534886
H          107.59116797290341      119.15625765949878       97.50004238767416
H          108.44352319508018      118.73254024610556       98.97807799394405
H          106.38366897820133      117.23436232567012       99.51541183127787
H          105.53820631582387      118.18442100656348       98.29297124669257
H          106.01293484947922      120.25756487703470       99.55678778485817
H          107.04395179729931      119.35943094458317      100.66412758061526
H          104.94359925164696      117.92132641623456      101.17764641109746
H          104.01936976070567      119.22508084841725      100.44263048116787
H          104.90071022925542      120.82503907522957      102.09843527275599
H          106.02289982722402      119.61145121046754      102.70765276123420
H          104.07099195337302      118.17454809255894      103.36594857757088
H          102.98524655832739      119.48604529966495      102.91636653476074
H          104.05361846856080      120.96243302963389      104.60112801634453
H          105.21288594057863      119.69258813704661      104.99167146370989
H          103.35138814873679      118.21100330767996      105.72243959297994
H          102.19520461382456      119.49806193126584      105.38931852108996
H          103.30647318078253      120.94514256245107      107.07636380496163
H          104.51386626990548      119.69186415303309      107.36284407651624
H          102.74463398975728      118.14368373561038      108.14377666542879
H          101.52016717017982      119.38279524258681      107.86774895088851
H          102.56080133728359      120.83633027299568      109.56723235889392
H          103.90259232621935      119.70228734558172      109.74256120171958
H          102.37599269142670      117.96658917566847      110.57613702700114
H          100.99964114553362      119.05447914642721      110.39730242979807
H          101.69658485928808      120.42630525673025      112.21129885629085
H          103.37655753529985      119.93430414172758      112.04132574577162
H          102.79560875362236      117.65746172165066      112.86467050032779
H          101.14590049886291      118.19942052589947      113.17606633701371
H          101.92740958152859      119.82138672648544      114.82409952605460
H          103.60259248735943      119.57991729768442      114.33140920462469
H          103.50233407512165      117.22583953847561      115.13736282582744
H          101.85936136918127      117.50615324024287      115.72156900639007
H          102.67297818964525      119.25665003654861      117.25121456252607
H          104.29656267275222      119.12484304029253      116.58532420291547
H          104.44392191744512      116.77956217706580      117.38259657707026
H          102.83195650533250      116.90857814317167      118.07917622254342
H          103.62281621203070      118.80295145798144      119.51319743628109
H          105.25132704063725      118.58717232709826      118.87267534136380
H          103.66817074902330      116.49048421444897      120.42178687342819
H          104.91326718445617      117.53783253264903      121.10211810173212
H          106.57757682382135      116.53898054136376      119.51299402690789
H          105.32916394565234      115.42143067299300      118.95611712054240
H          105.07081749553507      114.57614858592062      121.29513812380880
H          106.37570194666067      115.64489600780253      121.80580316377618
H          107.93866070883411      114.48261547146112      120.26176978140809
H          106.63654797619169      113.42067593419451      119.73530820280614
H          106.37831863538477      112.57830753288286      122.05938112431917
H          107.70015173879627      113.62037538385869      122.58737087475312
H          109.28999841831425      112.42420391107176      121.18065132470252
H          107.99831558803483      111.48855742981361      120.42944454378882
H          107.47347907321239      110.41184441762471      122.56450798268449
H          108.68412294870747      111.38236330951551      123.39852566858242
H          110.48304856738726      110.35245201170335      122.11499955949532
H          109.33042116228879      109.46221842699433      121.12127572496266
H          109.60884166087952      109.10025636430295      124.13680925176810
H          110.43601546454286      108.10783308499930      122.93827243386339
H          108.17464777077751      107.51918833965752      121.96221255258152
H          107.42965681158759      108.32072846569338      123.34618640034155
H          108.67888353214209      106.78933811844368      124.88035780458134
H          109.33224255616554      105.94553440038243      123.47880895437901
H          106.99744982924074      105.39377882709341      122.74958635828996
H          106.37995050044904      106.22439412797277      124.17711708973867
H          107.70270013139435      104.62472057472489      125.61477630043748
H          108.17644658129464      103.76098238612036      124.15470183721430
H          106.34407090626217      102.58772495667796      125.18928349086329
H          105.75602773364039      103.28643379949234      123.68178665535001
H          104.57037173644322      105.03617665071754      124.86320258184205
H          105.41529795602986      104.67716714516746      126.36847197178787
H          104.27683467783345      102.47529983944612      126.48456236596269
H          103.43298433941411      102.82999037104365      124.97599903833883
H          102.28409986871377      104.73544236465796      126.01609785157530
H          103.26561390035167      104.57631102022086      127.46572079302705
H          101.11549895534267      103.67220801213283      127.96351751085729
H          102.26935270125935      102.34191628006148      127.90443309251937
H          100.21332670906277      101.66102570180769      126.86496593894222
H          101.45417201133370      101.74894825999706      125.62073287471571
H          100.54632043124228      103.83386687695831      124.76422034695369
H           99.48282687607488      104.00967066715948      126.16130942118751
H           98.24023229823045      101.99209135795168      125.51251338266032
H           99.30603659088599      101.73826527165080      124.13352457810242
H           97.63631328208659      104.26348631642719      124.48284940461168
H           97.03636399047797      102.82372147676328      123.66333588485428
H           98.93318200738736      102.94864556777384      122.05437330105575
H           99.47511998138151      104.44310465653214      122.81643159776954
H           97.38857067580921      105.57319800279652      122.20586681937063
H           96.70993554477576      104.06143149557863      121.60236024616893
H           98.41986623737016      103.94994675486403      119.83726313882819
H           99.20434814998771      105.39626442191877      120.47090754599292
H           97.89045675871793      105.97580177765001      118.52208713036650
H           97.18326250174383      106.73936840627999      119.94422529607814
H           95.34759830838010      105.16938874012826      119.97805994270418
H           96.15918052116879      104.09336525894587      118.84054900267189
[...]
  3011   6 C     3012   6 C                                       1.5245568
  3012   6 C     3013   6 C                                       1.5248980
  3013   6 C     3014   6 C                                       1.5252811
  3014   6 C     3015   6 C                                       1.5247992
  3015   6 C     3016   6 C                                       1.5213636
  3015   6 C     3017   1 H                                       1.0926971
  3015   6 C     3018   1 H                                       1.0914884
  3014   6 C     3019   1 H                                       1.0929655
  3014   6 C     3020   1 H                                       1.0926039
  3013   6 C     3021   1 H                                       1.0932069
  3013   6 C     3022   1 H                                       1.0921487
  3012   6 C     3023   1 H                                       1.0922763
  3012   6 C     3024   1 H                                       1.0917180
  3011   6 C     3025   1 H                                       1.0924944
  3011   6 C     3026   1 H                                       1.0927137
  3010   6 C     3027   1 H                                       1.0912926
  3010   6 C     3028   1 H                                       1.0913628
  3009   6 C     3029   1 H                                       1.0920220
  3009   6 C     3030   1 H                                       1.0932156
  3008   6 C     3031   1 H                                       1.0925717
  3008   6 C     3032   1 H                                       1.0921472
  3007   6 C     3033   1 H                                       1.0924226
  3007   6 C     3034   1 H                                       1.0925076
  3006   6 C     3035   1 H                                       1.0923901
  3006   6 C     3036   1 H                                       1.0922809
  3005   6 C     3037   1 H                                       1.0923938
  3005   6 C     3038   1 H                                       1.0923668
  3004   6 C     3039   1 H                                       1.0916352
  3004   6 C     3040   1 H                                       1.0926772
  3003   6 C     3041   1 H                                       1.0912200
  3003   6 C     3042   1 H                                       1.0930640
  3002   6 C     3043   1 H                                       1.0920660
  3002   6 C     3044   1 H                                       1.0911761
  3001   6 C     3045   1 H                                       1.0938564
  3001   6 C     3046   1 H                                       1.0940288
  3000   6 C     3047   1 H                                       1.0899139
  3000   6 C     3048   1 H                                       1.0928849
  2999   6 C     3049   1 H                                       1.0927794
  2999   6 C     3050   1 H                                       1.0915279
  2998   6 C     3051   1 H                                       1.0925432
  2998   6 C     3052   1 H                                       1.0935412
  2997   6 C     3053   1 H                                       1.0928273
  2997   6 C     3054   1 H                                       1.0895833
  2996   6 C     3055   1 H                                       1.0926248
  2996   6 C     3056   1 H                                       1.0919241
  2995   6 C     3057   1 H                                       1.0914098
  2995   6 C     3058   1 H                                       1.0925920
  2994   6 C     3059   1 H                                       1.0935142
  2994   6 C     3060   1 H                                       1.0918859
  2993   6 C     3061   1 H                                       1.0912275
  2993   6 C     3062   1 H                                       1.0924152
  2992   6 C     3063   1 H                                       1.0928606
  2992   6 C     3064   1 H                                       1.0932785
  2991   6 C     3065   1 H                                       1.0925991
  2991   6 C     3066   1 H                                       1.0930752
  2990   6 C     3067   1 H                                       1.0928091
  2990   6 C     3068   1 H                                       1.0911733
  2989   6 C     3069   1 H                                       1.0925747
  2989   6 C     3070   1 H                                       1.0928856
  2988   6 C     3071   1 H                                       1.0932017
  2988   6 C     3072   1 H                                       1.0924646
  2987   6 C     3073   1 H                                       1.0922705
  2987   6 C     3074   1 H                                       1.0928733
  2986   6 C     3075   1 H                                       1.0921139
  2986   6 C     3076   1 H                                       1.0913199
  2985   6 C     3077   1 H                                       1.0922862
  2985   6 C     3078   1 H                                       1.0930840
  2984   6 C     3079   1 H                                       1.0931241
  2984   6 C     3080   1 H                                       1.0931668
  2983   6 C     3081   1 H                                       1.0900197
  2983   6 C     3082   1 H                                       1.0924103
  2982   6 C     3083   1 H                                       1.0932355
  2982   6 C     3084   1 H                                       1.0932940
  2981   6 C     3085   1 H                                       1.0915291
  2981   6 C     3086   1 H                                       1.0932739
  2980   6 C     3087   1 H                                       1.0928091
  2980   6 C     3088   1 H                                       1.0917325
  2979   6 C     3089   1 H                                       1.0932885
  2979   6 C     3090   1 H                                       1.0915565
  2978   6 C     3091   1 H                                       1.0917978
  2978   6 C     3092   1 H                                       1.0912536
  2977   6 C     3093   1 H                                       1.0931164
  2977   6 C     3094   1 H                                       1.0927680
  2976   6 C     3095   1 H                                       1.0910528
  2976   6 C     3096   1 H                                       1.0931916
  2975   6 C     3097   1 H                                       1.0931278
  2975   6 C     3098   1 H                                       1.0928463
  2974   6 C     3099   1 H                                       1.0920008
  2974   6 C     3100   1 H                                       1.0929268
  2973   6 C     3101   1 H                                       1.0933532
  2973   6 C     3102   1 H                                       1.0928042
  2972   6 C     3103   1 H                                       1.0917656
  2972   6 C     3104   1 H                                       1.0924237
  2971   6 C     3105   1 H                                       1.0939108
  2971   6 C     3106   1 H                                       1.0914316
  2970   6 C     3107   1 H                                       1.0909969
  2970   6 C     3108   1 H                                       1.0939900
  2969   6 C     3109   1 H                                       1.0927769
  2969   6 C     3110   1 H                                       1.0918663
  2968   6 C     3111   1 H                                       1.0924869
  2968   6 C     3112   1 H                                       1.0930315
  2967   6 C     3113   1 H                                       1.0910179
  2967   6 C     3114   1 H                                       1.0931619
  2966   6 C     3115   1 H                                       1.0917579
  2966   6 C     3116   1 H                                       1.0924112
  2965   6 C     3117   1 H                                       1.0934885
  2965   6 C     3118   1 H                                       1.0917701
  2964   6 C     3119   1 H                                       1.0935004
  2964   6 C     3120   1 H                                       1.0924222
  2963   6 C     3121   1 H                                       1.0906705
  2963   6 C     3122   1 H                                       1.0910207
  2962   6 C     3123   1 H                                       1.0926067
  2962   6 C     3124   1 H                                       1.0911945
  2961   6 C     3125   1 H                                       1.0918629
  2961   6 C     3126   1 H                                       1.0922903
  2960   6 C     3127   1 H                                       1.0932527
  2960   6 C     3128   1 H                                       1.0922187
  2959   6 C     3129   1 H                                       1.0925783
  2959   6 C     3130   1 H                                       1.0913188
  2958   6 C     3131   1 H                                       1.0928933
  2958   6 C     3132   1 H                                       1.0928654
  2957   6 C     3133   1 H                                       1.0927009
  2957   6 C     3134   1 H                                       1.0931204
  2956   6 C     3135   1 H                                       1.0925055
  2956   6 C     3136   1 H                                       1.0931237
  2955   6 C     3137   1 H                                       1.0924646
  2955   6 C     3138   1 H                                       1.0914407
  2954   6 C     3139   1 H                                       1.0923042
  2954   6 C     3140   1 H                                       1.0933306
  2953   6 C     3141   1 H                                       1.0924535
  2953   6 C     3142   1 H                                       1.0929110
  2952   6 C     3143   1 H                                       1.0899692
  2952   6 C     3144   1 H                                       1.0926553
  2951   6 C     3145   1 H                                       1.0918192
  2951   6 C     3146   1 H                                       1.0924442
  2950   6 C     3147   1 H                                       1.0924481
  2950   6 C     3148   1 H                                       1.0918679
  2949   6 C     3149   1 H                                       1.0928974
  2949   6 C     3150   1 H                                       1.0915060
  2948   6 C     3151   1 H                                       1.0917751
  2948   6 C     3152   1 H                                       1.0921667
  2947   6 C     3153   1 H                                       1.0904768
  2947   6 C     3154   1 H                                       1.0925891
  2946   6 C     3155   1 H                                       1.0936070
  2946   6 C     3156   1 H                                       1.0924061
  2945   6 C     3157   1 H                                       1.0925442
  2945   6 C     3158   1 H                                       1.0933931
  2944   6 C     3159   1 H                                       1.0918333
  2944   6 C     3160   1 H                                       1.0902106
  2943   6 C     3161   1 H                                       1.0923904
  2943   6 C     3162   1 H                                       1.0922115
  2942   6 C     3163   1 H                                       1.0920443
  2942   6 C     3164   1 H                                       1.0927407
  2941   6 C     3165   1 H                                       1.0920605
  2941   6 C     3166   1 H                                       1.0935381
  2940   6 C     3167   1 H                                       1.0923023
  2940   6 C     3168   1 H                                       1.0909510
  2939   6 C     3169   1 H                                       1.0924554
  2939   6 C     3170   1 H                                       1.0934873
  2938   6 C     3171   1 H                                       1.0923140
  2938   6 C     3172   1 H                                       1.0921007
  2937   6 C     3173   1 H                                       1.0915170
  2937   6 C     3174   1 H                                       1.0923235
  2936   6 C     3175   1 H                                       1.0923385
  2936   6 C     3176   1 H                                       1.0927260
  2935   6 C     3177   1 H                                       1.0929452
  2935   6 C     3178   1 H                                       1.0929439
  2934   6 C     3179   1 H                                       1.0924151
  2934   6 C     3180   1 H                                       1.0923369
  2933   6 C     3181   1 H                                       1.0920827
  2933   6 C     3182   1 H                                       1.0908963
  2932   6 C     3183   1 H                                       1.0920740
  2932   6 C     3184   1 H                                       1.0932000
  2931   6 C     3185   1 H                                       1.0926682
  2931   6 C     3186   1 H                                       1.0921936
  2930   6 C     3187   1 H                                       1.0912515
  2930   6 C     3188   1 H                                       1.0914217
  2929   6 C     3189   1 H                                       1.0924908
  2929   6 C     3190   1 H                                       1.0926110
  2928   6 C     3191   1 H                                       1.0921028
  2928   6 C     3192   1 H                                       1.0923886
  2927   6 C     3193   1 H                                       1.0928274
  2927   6 C     3194   1 H                                       1.0922187
  2926   6 C     3195   1 H                                       1.0921355
  2926   6 C     3196   1 H                                       1.0923086
  2925   6 C     3197   1 H                                       1.0925370
  2925   6 C     3198   1 H                                       1.0910819
  2924   6 C     3199   1 H                                       1.0928548
  2924   6 C     3200   1 H                                       1.0920710
  2923   6 C     3201   1 H                                       1.0934252
  2923   6 C     3202   1 H                                       1.0929327
  2922   6 C     3203   1 H                                       1.0926702
  2922   6 C     3204   1 H                                       1.0916056
  2921   6 C     3205   1 H                                       1.0931962
  2921   6 C     3206   1 H                                       1.0934686
  2920   6 C     3207   1 H                                       1.0923685
  2920   6 C     3208   1 H                                       1.0911907
  2919   6 C     3209   1 H                                       1.0930963
  2919   6 C     3210   1 H                                       1.0933649
  2918   6 C     3211   1 H                                       1.0922681
  2918   6 C     3212   1 H                                       1.0908620
  2917   6 C     3213   1 H                                       1.0921750
  2917   6 C     3214   1 H                                       1.0932868
  2916   6 C     3215   1 H                                       1.0930281
  2916   6 C     3216   1 H                                       1.0910877
  2915   6 C     3217   1 H                                       1.0915659
  2915   6 C     3218   1 H                                       1.0922594
  2914   6 C     3219   1 H                                       1.0940577
  2914   6 C     3220   1 H                                       1.0917876
  2913   6 C     3221   1 H                                       1.0909289
  2913   6 C     3222   1 H                                       1.0924124
  2912   6 C     3223   1 H                                       1.0937574
  2912   6 C     3224   1 H                                       1.0923884
  2911   6 C     3225   1 H                                       1.0924337
  2911   6 C     3226   1 H                                       1.0928894
  2910   6 C     3227   1 H                                       1.0927744
  2910   6 C     3228   1 H                                       1.0905898
  2909   6 C     3229   1 H                                       1.0915465
  2909   6 C     3230   1 H                                       1.0930160
  2908   6 C     3231   1 H                                       1.0930338
  2908   6 C     3232   1 H                                       1.0924277
  2907   6 C     3233   1 H                                       1.0926890
  2907   6 C     3234   1 H                                       1.0932246
  2906   6 C     3235   1 H                                       1.0924562
  2906   6 C     3236   1 H                                       1.0903539
  2905   6 C     3237   1 H                                       1.0925290
  2905   6 C     3238   1 H                                       1.0933307
  2904   6 C     3239   1 H                                       1.0930612
  2904   6 C     3240   1 H                                       1.0913333
  2903   6 C     3241   1 H                                       1.0906825
  2903   6 C     3242   1 H                                       1.0930702
  2902   6 C     3243   1 H                                       1.0935177
  2902   6 C     3244   1 H                                       1.0924859
  2901   6 C     3245   1 H                                       1.0909054
  2901   6 C     3246   1 H                                       1.0911259
  2900   6 C     3247   1 H                                       1.0929031
  2900   6 C     3248   1 H                                       1.0924975
  2899   6 C     3249   1 H                                       1.0928239
  2899   6 C     3250   1 H                                       1.0923578
  2898   6 C     3251   1 H                                       1.0922993
  2898   6 C     3252   1 H                                       1.0925294
  2897   6 C     3253   1 H                                       1.0870468
  2897   6 C     3254   1 H                                       1.0877754
  2897   6 C     3255   1 H                                       1.0880533
  3016   6 C     3256   1 H                                       1.0871403
  3016   6 C     3257   1 H                                       1.0874461
  3016   6 C     3258   1 H                                       1.0879901

 * 2 distinct bonds (by element types)

   Z      Z             #   av. dist./Å        max./Å        min./Å
   1 H    6 C        2178     1.0922797     1.0941899     1.0868275
   6 C    6 C        1071     1.5274335     1.5341309     1.5213636


optimized geometry written to: xtbopt.xyz


           -------------------------------------------------
          | TOTAL ENERGY            -3427.546027669936 Eh   |
          | GRADIENT NORM               0.000986945095 Eh/α |
          | HOMO-LUMO GAP              11.435306261924 eV   |
           -------------------------------------------------

------------------------------------------------------------------------
 * finished run on 2024/10/04 at 03:00:45.266     
------------------------------------------------------------------------
 total:
 * wall-time:     0 d,  5 h, 39 min, 26.738 sec
 *  cpu-time:     1 d,  5 h, 40 min, 31.420 sec
 * ratio c/w:     5.245 speedup
 SCF:
 * wall-time:     0 d,  0 h, 14 min, 27.196 sec
 *  cpu-time:     0 d,  1 h, 32 min, 24.444 sec
 * ratio c/w:     6.394 speedup
 ANC optimizer:
 * wall-time:     0 d,  5 h, 24 min, 17.813 sec
 *  cpu-time:     1 d,  4 h,  7 min,  9.708 sec
 * ratio c/w:     5.203 speedup

