3795
 energy: -5103.077247490956 gnorm: 0.000959448337 xtb: 6.6.1 (8d0f1dd)
C          105.33077115493721      130.42210020776378      102.44469118472378
C          105.32903192273787      130.12627394335550      103.92455613308314
C          106.23339036576462      129.49615194771519      101.62906611585026
C          107.71161548326040      129.75132006926376      101.92118659728227
H          105.98888735128625      128.45954734309555      101.86793077382312
H          106.03740411527554      129.64951245356232      100.56603597028905
C          108.59199515031541      128.60644005672688      101.42100043208876
H          108.02875061291685      130.67724308903180      101.43801358218205
H          107.84987014807325      129.86491603791893      102.99669715403130
C          108.77222309187914      128.62955388428719       99.91386523850623
H          109.59063055621625      128.70938279751371      101.85235765002368
H          108.17368476534969      127.64932532290403      101.72697731951757
N          108.53914483184124      127.44411027222252       99.31537336578612
O          105.51350816797982      128.83266632162920      104.20463400038030
O          105.11935355867982      130.93729934720207      104.78915261721248
H          105.53227465595020      128.69096449611209      105.16474761970143
H          105.61814329358701      131.46602966284593      102.31318343020480
H          104.29314859008313      130.31998066701971      102.11165882621792
C          108.73061697144158      127.25735449426247       97.89496476694892
H          108.16269741893477      126.67920967722728       99.85820768604171
C          107.65701445573157      126.37504358871378       97.26310589478290
H          108.72398782359186      128.25598827861236       97.44818356756232
H          109.71729663521269      126.81123142848151       97.71244461142381
C          107.82071496200014      124.90572533101800       97.65089211833683
H          106.67251538981135      126.72909542130873       97.57291471623790
H          107.72305623523221      126.47213088958931       96.17738574363283
C          106.77897732267634      124.02097920938276       96.96744882805486
H          108.82039973383010      124.57129181645641       97.36350441495075
H          107.72587984656978      124.81617266876520       98.73320314747519
C          106.92086319087316      122.53322185643648       97.30250298951405
H          105.78213902631980      124.35695052976529       97.26210379238407
H          106.86096878928595      124.14410372586602       95.88536689413681
C          106.83465812714988      122.29091331768092       98.80633250462290
H          106.11371597433441      121.98904866286463       96.80658258687023
H          107.86814627794406      122.15072919851382       96.91841255466350
N          106.50506035761215      120.91905206613104       99.12584464266736
H          107.78541034364616      122.55610678570278       99.27971002351566
H          106.05865805637892      122.94937121194769       99.21733072554069
C          106.31546627375823      120.42493471863352      100.36344042216787
H          106.41398826463092      120.26525787717848       98.36108116371253
O          109.14365073477921      129.61767105305594       99.30541667414913
C          106.63614452632068      121.38992617187408      101.48923269839332
C          106.11232341178165      120.95182979855291      102.85178608127580
H          107.72567560952074      121.47751635564731      101.51683279604092
H          106.23711756371695      122.37612219028001      101.25553566945322
C          104.59761335210266      121.12534880993971      102.95402875204749
H          106.37633409017093      119.90832218744424      103.02388144659596
H          106.58773274358015      121.56140356671355      103.62016979389091
C          104.09672730367197      120.95008483437952      104.38486702016090
H          104.32588647303197      122.12305638411711      102.60512119470735
H          104.10542789907743      120.40030059849946      102.30375291342658
C          104.49516510528578      122.08921021217060      105.30912165044269
H          103.00854381524483      120.87220639898489      104.40541533270431
H          104.49176616175517      120.02409893702129      104.80868349801987
N          103.98182778281546      121.97862418209516      106.53552789610059
C          104.21267992135540      122.94790554139695      107.58451821411566
H          103.32199452694218      121.22911426087406      106.72499495150088
O          105.94401112580023      119.27554065044963      100.53899314185296
C          102.95893907941272      123.14250160077951      108.42780125840858
H          105.02645438439232      122.60466316917388      108.23499856482472
H          104.52973365386799      123.88188700850012      107.11304983406870
C          103.26416346709371      123.89786660925743      109.71793814278128
H          102.19420941361783      123.66511736386239      107.85008103638593
H          102.56469991699689      122.15595625770752      108.67711685342464
C          102.06167844999580      123.92315475512628      110.65801978783479
H          104.10435097383180      123.41228283489026      110.21665340629266
H          103.56689495935302      124.92026635681532      109.48627976032340
C          102.43414612274755      124.45262258360819      112.03965010264564
H          101.27387693078801      124.54659812753334      110.23020647174114
H          101.66459273011390      122.91069565995052      110.75999240945519
C          101.23011066177477      124.46911224669707      112.97493338888849
N          101.56236459076692      125.06307656289592      114.24930109261052
H          100.41962954617782      125.04592562104735      112.51128460419990
H          100.86445149963431      123.45641516218274      113.15955048697333
C          101.19007807693652      124.57693546381256      115.43364179788711
H          102.17425664872533      125.87233293223827      114.22970257065890
O          105.23198220464786      123.01709498666484      104.98296599220230
C          101.57289338196931      125.45362140163243      116.60996974539550
C          102.50314057440723      124.71456921623297      117.57124611201529
H          102.06460150291461      126.35518440100802      116.24712255417295
H          100.65751656616354      125.73559521567721      117.13547990372855
C          103.01631076717491      125.65235155794274      118.65980538511248
H          101.97259414548756      123.87572033498704      118.02374642936347
H          103.34759813560103      124.31263130529948      117.00746071797595
C          103.80900062100045      124.90961018716268      119.73992314318470
H          103.65076011418559      126.41735052160229      118.20681623570307
H          102.17040731572305      126.15649983892297      119.13226213892403
C          105.00834371333913      124.20754088156502      119.12977987344088
H          104.16460600803936      125.63159559576859      120.47737489667654
H          103.16517875718287      124.17934469749738      120.23002775178560
N          104.80426510527759      122.92683564760858      118.82717227268775
C          105.80435527241798      122.06515260733219      118.24189155796952
H          103.91182478392635      122.49142346730505      119.04925888816666
H          103.21937866732691      123.82844286903560      112.46992314336100
H          102.82282602208727      125.46896123653453      111.94982679900689
O          100.58403333602851      123.51628287390707      115.57290322338112
O          106.07361041050055      124.78512601709915      118.91944621031635
C          105.75899182438100      120.68201433907610      118.88513862566688
H          105.62287790872867      121.96945405645887      117.16335875924169
H          106.77871621745938      122.54317128707770      118.37516434441048
C          106.52493617343437      119.64995354170945      118.06554269229719
H          106.16604921175326      120.72179933151185      119.89597246857231
H          104.71425896624793      120.37610339478127      118.97197798029535
C          106.24429697261172      118.22906708826395      118.54799553876924
H          106.23984663014693      119.73716556222026      117.01591114393763
H          107.59195148270335      119.86522147823759      118.13548616910983
C          106.75886518302720      117.16826745349917      117.57658654244212
H          106.68140665549336      118.08450014171540      119.53682333384945
H          105.16545686884210      118.10294837892835      118.65358956798627
C          108.25807326148423      117.30660893688753      117.32640528603768
H          106.55370947422617      116.17580665217760      117.98313229905733
H          106.23273889198899      117.25294198158774      116.62282449506074
N          108.77591118334279      116.23245227776555      116.51330042410940
H          108.46298356232330      118.25388627761552      116.81835664939098
H          108.79767704973706      117.28915735659670      118.27532512702473
C          109.74684333629236      115.41784963238743      116.92499895527138
H          108.33445842151279      116.09165670666107      115.60320578585697
C          110.23456097733882      114.42869479510195      115.89183890922587
C          111.50662456672215      114.95578714114065      115.21425662504821
H          110.47592342069321      113.48756110264942      116.38842850906930
H          109.46631618429490      114.25263834416521      115.14441143749868
C          111.27759897226211      116.20675282197075      114.36829502481936
H          112.23998678847687      115.19574057062442      115.98799106885535
H          111.91951501262633      114.15556716876146      114.60078035140755
C          110.43384688957784      115.96408342659053      113.11578193635451
H          110.78091582820494      116.96864523357168      114.97269491045274
H          112.25155456974863      116.61989734439290      114.09176855615290
C          110.95221094243800      114.90463456968649      112.16503468070901
H          109.41095743868027      115.70267184672531      113.38597813646535
H          110.37946028274679      116.89334989798245      112.53997953753641
N          112.26291667293759      114.96780120673419      111.87732740698922
C          112.89093651190879      114.07217286844053      110.93175813887122
H          112.86917250476567      115.53296129142133      112.44749949375733
O          110.25148138763086      115.49833099736229      118.04559282377281
C          114.02083677756849      114.76714891399253      110.17751842700670
H          113.26453555808786      113.18567116429658      111.45284927438371
H          112.10756151231016      113.75971611145542      110.23680858779440
C          114.27537712704094      114.15126817146719      108.80194538072816
H          113.75471990499388      115.81563583315889      110.02349892582416
H          114.93495936680961      114.74078614432422      110.77303287172383
C          114.57077688587285      112.65130546876722      108.79043262070590
H          113.40096227134724      114.33449926141151      108.17500116792731
H          115.11709894965111      114.67991373638645      108.35551637434676
C          115.78269730717182      112.26378945398251      109.63520718403380
H          113.69565577763018      112.09653459348934      109.13025036884184
H          114.76535295087062      112.35433372325865      107.75836980792390
C          116.36109192854872      110.91034144686208      109.21713956865169
H          116.56850699182441      113.01089765013099      109.50235598039835
H          115.50605605293626      112.23919430375676      110.69007737403605
N          115.43324517118755      109.81264164041954      109.37266663424738
H          116.62720243790569      110.94264810590001      108.15720008014391
H          117.27044856776844      110.70083451609543      109.79536837817481
O          110.20948393631627      114.10925673583903      111.60796601405515
C          115.12087637194641      109.00117093762323      108.34334188492070
H          115.14775765040243      109.54527424752195      110.30858444701073
C          114.22858119432205      107.82770778541102      108.70543901036484
C          113.12853708984194      107.61198555924044      107.66727838396237
H          114.85799322725066      106.93293483494945      108.74025171594793
H          113.80101338392018      107.98094043507290      109.69532463392520
C          112.27003457629512      106.39672660255651      108.00269519811791
H          112.48934549002904      108.49695038460236      107.63033835472325
H          113.58284595949262      107.48512428067521      106.68405491026411
C          111.20527066498724      106.16787658545826      106.92878364231662
H          112.90293752896103      105.51026206885446      108.08458778543736
H          111.77600248136740      106.56118763928561      108.96142172440005
C          110.28868762228045      105.02127702064116      107.30456554500964
H          110.62128270064781      107.08062656153456      106.81694363642588
H          111.69062569555589      105.94147807626818      105.98040427245607
N          109.24349709270469      105.36370851711422      108.05629064988408
O          115.53580245432717      109.18571591325413      107.21168172948998
C          108.21420021960776      104.43173430065778      108.47352081077889
H          109.19702482008339      106.30780678718874      108.44628570656454
C          107.01451892883988      105.18878425801398      109.03486124906590
H          107.92407625109283      103.83403891625012      107.60303406040750
H          108.60730480011922      103.75058469651609      109.23782764828545
C          107.31863111878616      105.72297386010095      110.43010762287470
H          106.77164990060939      106.01653633961485      108.36670728138290
H          106.15067818315299      104.52569883420017      109.07503655749163
C          106.22851245782849      106.62689550436792      110.99765376393329
H          107.48018949457756      104.87967096010433      111.10503145296583
H          108.23941996073258      106.30297114323388      110.38769763277813
C          106.63806309805418      107.09355072839791      112.39127670825599
H          106.10602759447615      107.49801503399925      110.35167903030751
H          105.27602292852913      106.09610018654043      111.03762913479869
C          105.79453031842098      108.24894756447567      112.92101962315240
H          106.58443559155964      106.25569320200299      113.09110340264996
H          107.67807465687697      107.42808763296846      112.35887222211525
N          106.30518597700515      108.64505547690565      114.21790372807919
H          105.84151223687212      109.09864935845593      112.23064355403953
H          104.75183281903443      107.95636668155521      113.05070139061559
C          105.59161294578189      108.63516469366004      115.34235323524237
H          107.31355454629433      108.73111978949262      114.27700629030865
O          110.49771480978839      103.86602392912745      106.93449682382560
C          106.40088618993882      108.89009086182193      116.60116580925607
C          106.68563382281346      107.54445579655274      117.27363944721382
H          107.33525195023421      109.39158969029894      116.34779602230138
H          105.82547212233686      109.51815117658495      117.28013685308238
C          107.59361898278880      107.67828760353535      118.49315669667672
H          105.73403931480354      107.09890057951309      117.56914851586635
H          107.15740678845077      106.87661986020100      116.54792933755589
C          107.78900822467776      106.33351666431835      119.20126034937644
H          108.57060812562206      108.04974970300925      118.17484678347310
H          107.18009467821440      108.39493475736082      119.20393100589590
C          106.48351033789045      105.82747434585130      119.78044896828179
H          108.15072432342983      105.59256277913235      118.48659091484558
H          108.51104316918602      106.45856007911186      120.00785037007580
N          106.10334975111626      106.44396331190586      120.89795268317850
C          104.89630917587391      106.12276531964586      121.62219872563118
H          106.72255422528492      107.14650195602557      121.30196297740912
O          104.38219005219699      108.42325423444667      115.37624293727875
C          105.20789615694120      105.60204383418980      123.02485008741294
H          104.27656003692211      107.02237219182999      121.68596271059559
H          104.36200897202669      105.35742154065113      121.05302723823354
C          103.95028268503916      105.19773264689535      123.79418111618300
H          105.85565874030924      104.72768551991858      122.93580641292795
H          105.75855053913774      106.36196271988288      123.57924279418479
C          102.93333006321470      106.32515730730701      124.00269833385232
H          103.45202508946657      104.38478228265176      123.25954299406560
H          104.25795281160130      104.80414563523071      124.76394761656077
C          103.52519440826669      107.61898298313568      124.55976635802416
H          102.44562661042015      106.55123453917967      123.05203113297102
H          102.15954814813054      105.96459072094571      124.68488306799887
C          104.13619286679652      107.45911571134361      125.95163527693215
H          104.29380887103950      107.99992926905612      123.88778697275193
H          102.73714762492341      108.37492743989451      124.60398096461957
N          105.03868305002332      108.55122144922332      126.24756030357858
H          103.34574898836156      107.41989325854605      126.71103727770985
H          104.72576304334819      106.54252195931105      126.02520803264530
C          106.31845089828157      108.32707110241179      126.60870978138627
H          104.82515217837904      109.43302461050146      125.79767833663581
O          105.83084171707515      104.93603854688683      119.23849748724052
C          107.13976496259750      109.59852974730107      126.78071185101975
C          108.62243212806116      109.35513870450011      126.49825023736203
H          106.74708021120504      110.38792919527468      126.14087682115810
H          107.01168707238391      109.90803714798857      127.82063513732145
C          109.00924947817505      109.65538995974742      125.04788166385543
H          109.22574029811130      109.98532873631501      127.15318859016782
H          108.84029045555513      108.31103344413145      126.73510495666220
C          108.18404017887367      108.84921906572198      124.05066136177261
H          108.85584567478985      110.72431775443134      124.86996182438955
H          110.07225471767292      109.42706184725466      124.92361432788533
C          108.53316642488534      109.01510056241983      122.59049116544007
H          108.24999479851677      107.78416457745841      124.28627388455637
H          107.12980002408828      109.12953678298766      124.13773577278499
N          109.49437897647991      109.89264475666140      122.27090144784813
O          106.76235962508032      107.21879894471934      126.85085119397071
C          109.84662937205924      110.15820289335721      120.89139918086659
H          109.92017392495676      110.46660319102999      122.97789957103359
C          111.12659534765278      110.97973166306771      120.76829804866040
H          109.94850973651204      109.19355586006765      120.38553154040645
H          109.01424480917149      110.69033149356821      120.41253804117673
C          112.40183548204094      110.13707086233619      120.77444651874522
H          111.08083077747645      111.53702769439988      119.83065570589469
H          111.16722106105776      111.71301217919155      121.57533619373625
C          112.67220815637329      109.44561517888613      122.10616077932649
H          112.32123012326531      109.37138882823206      120.00116636754518
H          113.25187434201594      110.77647866679023      120.52096229753558
C          113.83260697327852      108.46032885330246      121.98034240536177
H          112.90290246458305      110.19200058313577      122.86926763291073
H          111.77777812452732      108.90230852259711      122.40731967623540
C          114.09158225711074      107.68760584576640      123.26569319202309
H          113.60770270584233      107.73682162172626      121.19562284850687
H          114.74290191362053      108.99350766616082      121.70173971938794
N          112.88277538491835      107.02584093920795      123.70552015148391
H          114.87138313890277      106.93805971281708      123.08575455020950
H          114.43139976049588      108.34960836407024      124.06919798155531
C          112.73653475728284      106.55778063111079      124.94363317449509
H          112.16541356726172      106.85569879859108      123.00534778825130
O          107.94210818968607      108.38877587500502      121.71725743311349
C          111.38469935058541      105.92559587333018      125.21477873767921
C          111.40808673841552      104.78066084779346      126.23629988697095
H          110.72172350051792      106.71112457491490      125.58747147579722
H          110.97385593552501      105.58518652261492      124.26555534187621
C          112.64439115165683      103.88214335650262      126.14748284782979
H          111.37778472761215      105.19555505184768      127.24544325573552
H          110.50282174056042      104.18686677649907      126.09759258187933
C          112.94831244746497      103.38174813988805      124.73234764016475
H          113.49630327384642      104.44792339772633      126.52447280373146
H          112.50297456770194      103.02321396311750      126.80693196090056
C          114.29040902000483      102.67331243341687      124.68053843211587
H          112.17671037061153      102.68307009419597      124.40596662211568
H          112.98817258277214      104.22122960409969      124.03560375213297
N          115.32840729831126      103.47046937867285      125.01052763140309
C          116.68830344623251      102.99940763320342      125.11496823148104
H          115.15595406386852      104.44972034069654      125.17935907311673
O          113.62848442740642      106.66178807722703      125.78642636179445
C          117.59641730469784      103.63262912195484      124.06182547269729
H          117.07146469443947      103.21607626520938      126.11956583487240
H          116.65217874464162      101.91578212597648      124.98057359389342
C          119.03712032417704      103.14224481780413      124.17473064869779
H          117.20915480069912      103.38943748867553      123.07219484690754
H          117.56987797799214      104.71986191293550      124.17699604600253
C          119.90629811444441      103.69845768168565      123.04781952931151
H          119.45037656422799      103.44008663320841      125.14205030892816
H          119.04979476413050      102.05143653670045      124.13546385053115
C          121.38216762909875      103.34800205856328      123.23835952971463
H          119.53742049685273      103.30507977972380      122.09883379380598
H          119.80666854890822      104.78650732763082      123.01592315824628
C          122.25785804413353      103.90720393506479      122.12143540474233
H          121.72884104881039      103.76438199305883      124.18610183312654
H          121.50466200760137      102.26409467161258      123.28694461654966
N          122.10404522069886      103.14832101927195      120.89866373490939
H          122.00130809067757      104.95914298458656      121.94674649599115
H          123.31640308178467      103.86239884344758      122.39082076768857
C          123.11615358513063      102.98381477188288      120.02759946696652
H          121.19986817645551      102.74082098686340      120.72843416155874
O          114.42472697352011      101.50249896005815      124.37869159845607
C          122.86702249868067      102.09029473530705      118.82145915338253
C          121.43810972139501      101.64236465308601      118.53309579341600
H          123.26281542933263      102.62080028847701      117.95320753557112
H          123.50436782813732      101.21368461322223      118.97145581082468
C          120.54570302622794      102.79099045539904      118.06293732290533
H          121.46985659373499      100.89095497519631      117.74071854002219
H          121.00539059848525      101.15575196748550      119.41245814796318
C          119.12033785900569      102.30800861718998      117.77990687713645
H          120.51246582853629      103.57557062220224      118.82127859228470
H          120.96232098077731      103.21671162667201      117.14857248234425
C          118.53220369230816      101.65933506354541      119.01408736830767
H          118.49746532320029      103.16172039342251      117.50689029271288
H          119.12193717639869      101.59744318942950      116.95500712080113
N          118.18300749604386      100.37881984237734      118.86169260198494
O          124.20828983272271      103.49773012972955      120.19927184618702
C          117.63944074713415       99.56734045773644      119.92663457460773
H          118.43372687242882       99.90155424763888      118.00250577599803
C          118.52064203825729       98.34720390410195      120.19128447539489
H          117.57753696499285      100.19612673630974      120.81864989868930
H          116.63044433925043       99.24989077632431      119.64564260406716
C          118.09334628512509       97.55771677048010      121.42968845811751
H          118.51412677994813       97.70544152659301      119.30852630825612
H          119.54848969334603       98.68742600406007      120.33915366288521
C          116.64755994133780       97.05916829633814      121.41053195357830
H          118.76287495906546       96.70139658113827      121.54058386667279
H          118.22111575224767       98.19216486370240      122.30943376194652
C          116.34284890332981       96.10165322732686      120.26192373013443
H          116.45210492777352       96.54531495933875      122.35440375987223
H          115.96634169354249       97.90985242874780      121.36245526212174
C          114.87465597616212       95.65794698553330      120.28794260462296
H          116.54109418868808       96.59083912755368      119.30552852012779
H          116.99147351699499       95.22401817488273      120.33273757385885
N          114.48107065302941       94.74735148609072      119.22645013702865
H          114.65459291510817       95.16820371339928      121.24011972002339
H          114.23895771641028       96.54573302065243      120.21321073598980
H          114.69801085332426       95.15056873467979      118.32035415612300
H          115.00043333858700       93.87888531109759      119.30223792936694
O          118.39202498761557      102.26801468046817      120.07349717835996
C          110.65497980170744      109.58044996083771      116.19473830507752
C          110.17920514817864      108.47707706094104      115.26982282595679
C          111.81572968537870      109.22157705170193      117.11752890828922
C          113.16118592679858      109.15080324802649      116.39598211475663
H          111.87605782724482      109.98955729780596      117.89024659464056
H          111.60702770900141      108.26612833599796      117.60133235469571
C          114.29201919369129      108.78084860884869      117.36339722806566
H          113.10982164160197      108.40794514765405      115.59941496107857
H          113.37513488956212      110.12080328075550      115.94283766878681
C          115.64688569095870      108.88382229952531      116.68467346907285
H          114.28408349836518      109.48089221173424      118.20217016461102
H          114.14335281613805      107.77081802670035      117.74570089664003
N          116.12817367905558      107.75304044664581      116.17581934558127
O          110.84717053527075      107.35099874931777      115.36784181523694
O          109.24579316783428      108.63844447017381      114.51382428406438
H          110.50539301952617      106.63156559210493      114.76335832304824
H          109.78688434628293      109.87758715110348      116.79029527236085
H          110.92261345682310      110.44137025386773      115.57778331565756
C          117.42505532590599      107.66111948240952      115.54111150915291
H          115.61862624853075      106.87204102968725      116.22395520832427
C          118.14850673493733      106.37269388894624      115.92218429685275
H          117.29425429628580      107.67900694713826      114.45272447235284
H          118.00343298705393      108.54157697115615      115.83482502040678
C          118.63264386677236      106.32724161644563      117.37211741183270
H          117.47851928737202      105.53434597518253      115.73214169397443
H          119.01221930232873      106.27029044351519      115.26445392515305
C          117.53571007358013      106.03456568733620      118.39568950975020
H          119.39599065089683      105.55041800279420      117.44917450879599
H          119.10494608123163      107.28066778177535      117.62111027477265
C          118.12795166126513      105.78307096508088      119.78045267925448
H          116.85017918339582      106.88139717126224      118.45191659971729
H          116.96289721516501      105.16213388195617      118.07830686463664
C          117.06940283901498      105.56114440986987      120.85556094196824
H          118.77426407761362      104.90487961060630      119.75210702874152
H          118.74017001459049      106.63886677574722      120.06797602423784
N          116.47509884193319      104.24752640072880      120.75459985083326
H          117.53186903196972      105.67717599193715      121.84419058957076
H          116.25723692982461      106.28884264332100      120.77213753865266