3864
 energy: -5104.215734602722 gnorm: 0.000852535791 xtb: 6.6.1 (8d0f1dd)
C           39.47659883315939       48.64994260442283       68.86878905635231
C           39.15002308481673       48.94911337846648       70.18685225541618
C           37.81036436639753       49.12406053742912       70.51277346063013
C           36.82503353215331       49.01627087442522       69.54610059223715
C           37.16530693105344       48.72678298046758       68.23599335687257
C           38.49611314483031       48.54332841002566       67.89990984346525
C           40.21741125869988       49.05570885723196       71.24720280838648
C           40.96569377599467       47.72365477296177       71.37122311006989
C           41.21302710898873       50.19498433726115       70.97603166226273
C           40.66188148559787       51.59553992220719       71.29432853362398
C           41.80280816492557       52.54791795937287       71.56477914663338
C           42.76745760482314       52.80763496543739       70.59726588284771
C           43.80738683584897       53.68331303313326       70.85020054549985
C           43.90121190952760       54.31906186539899       72.07634106985485
C           42.95088180946851       54.06606342263988       73.04970360402579
C           41.91443346680376       53.18515118350907       72.79388415857510
C           39.77720585399244       52.14472324533318       70.16895002227145
C           39.06708534722180       53.44352369263596       70.57985383150182
C           37.98854402497959       53.16155406184006       71.59172532688198
C           36.87582986060458       52.39655600083307       71.26130463395724
C           35.89868412452824       52.12568426453577       72.20124852441991
C           36.01630273549880       52.61479855759875       73.49133706567424
C           37.11760678232366       53.38124525919780       73.83139369825504
C           38.09312947732749       53.65094279964654       72.88739405317858
C           38.51096387540176       54.15222619278224       69.34036177047771
C           37.86550326639591       55.51038562325493       69.64099078907363
C           38.81624350733363       56.39577622611877       70.40466188447579
C           38.49325643098199       56.82782755581109       71.68473819695313
C           39.35745953859315       57.63635133492036       72.40210001074956
C           40.56307183853017       58.02791846407796       71.84613648554505
C           40.89553458754445       57.60478685743540       70.57081901341139
C           40.03009097042110       56.79668416800067       69.85720285212798
C           37.43713262998951       56.15934747263186       68.31700268211161
C           36.89434542686890       57.58099380105749       68.49795675223790
C           35.64484453051036       57.58534146944576       69.34019766443186
C           35.58726513435907       58.33323670029420       70.50933163781852
C           34.44412483941046       58.34799968539278       71.28939362746758
C           33.33453582761014       57.61353306150157       70.90871700954293
C           33.37812247818319       56.86840282626905       69.74239079117856
C           34.52184617132439       56.85674594315298       68.96544658683933
C           36.62574050596461       58.23973753549608       67.13597233486976
C           37.92621258034495       58.54785443570885       66.36005574718116
C           37.97374382745814       57.78326152026717       65.06092811020243
C           38.97415653176364       56.85488181642022       64.80726438205545
C           39.03341772331141       56.18842774130461       63.59516169137857
C           38.08697771434776       56.43561530068897       62.61721145220510
C           37.06894136647596       57.33992039038031       62.86826077245185
C           37.01341769365877       58.00505013608050       64.07864850265905
C           38.07412883695275       60.05457489528797       66.09684033310612
C           39.43868005040005       60.41018872981319       65.47810810325100
C           40.52182872027368       60.28496643137377       66.52089853158223
C           40.64962578179751       61.21891815616526       67.54333623010439
C           41.64401570183416       61.10031009458681       68.49669892628336
C           42.52661231605283       60.03504477653284       68.45332173419396
C           42.39579585759810       59.08428210128221       67.45749718798962
C           41.40277391257766       59.21081850305115       66.50158057241146
C           39.38428679978533       61.81416703432289       64.86044715881845
C           40.70586645889860       62.25083372536221       64.20760411573441
C           40.68523288902421       63.73866158582204       63.96320243889848
C           41.62614527162851       64.56756235082619       64.55881063737216
C           41.61726730555406       65.93232752404100       64.32818163160081
C           40.66090256032105       66.49076824308344       63.49827115380533
C           39.71952589845542       65.67410480662174       62.89421322584474
C           39.73533934786484       64.31023653707575       63.12279026961389
C           40.99621209882056       61.50337070423365       62.88905974171531
C           42.17473398384893       60.52569840177419       62.98808191642540
C           43.41254319254652       61.18126025401533       63.54318561882994
C           43.93562926819266       62.34139234656038       62.98282455890121
C           45.07942849801784       62.92270818505030       63.49725927659256
C           45.72132979084948       62.35568973879932       64.58513954070182
C           45.21362950203814       61.19943765506060       65.14992838895037
C           44.07012983123043       60.61898416146317       64.63083548848390
C           42.44249256921461       59.91366896819478       61.60535561776089
C           43.39120075821415       58.69594698541340       61.63663468734819
C           42.86459841357669       57.67626143142198       60.65603069834640
C           41.91934187073354       56.75429549550749       61.09183639825768
C           41.37387524080632       55.82787083211185       60.22378403127680
C           41.77222838193482       55.79917500111368       58.89880234215931
C           42.69752447257628       56.72376446760393       58.44862910712607
C           43.22580095281885       57.66405962775807       59.31679375536209
C           44.85378262479473       59.11019194903756       61.41167153069802
C           45.84131094178552       57.95104331367963       61.17640245063576
C           47.26035171541509       58.45971682506556       61.26073717456885
C           47.81960427593173       58.81353393244765       62.48452537903383
C           49.14721016975096       59.18580388186849       62.57701427948149
C           49.93485317268317       59.24664452384953       61.44017608285055
C           49.37940845856543       58.94475016087203       60.20918469288878
C           48.05510553730161       58.54730517107078       60.12448542359039
C           45.63996702705657       56.78127508181276       62.14407448069413
C           46.51958894361175       55.57876779338299       61.77700613223611
C           45.99591432017151       54.89004441363402       60.54087758731986
C           44.75190035577690       54.26960693310345       60.53878313042469
C           44.29177155851818       53.61025639853845       59.41393510029722
C           45.06648550714631       53.55505476342064       58.26856851154962
C           46.30490790069840       54.17142794824181       58.25619749139072
C           46.76260928283506       54.83387249960858       59.38290371066363
C           46.59682667905194       54.59042013721978       62.95171747082549
C           47.62833927734411       55.01128658932115       64.02325790062758
C           46.97591788769865       55.31913491263359       65.34479094418572
C           47.13849606626235       56.56109164851344       65.94541490176911
C           46.57346983471621       56.83343784435795       67.17931184968883
C           45.83815941352155       55.86214394368102       67.83631946180331
C           45.65657532002905       54.62585631822672       67.23992782739134
C           46.21362737621656       54.36160882409445       66.00360298775028
C           48.67092605269418       53.89445954340810       64.18238176545228
C           49.75359593924026       54.17486042017448       65.23226298997297
C           50.55483411178428       55.39984907298485       64.87324295920151
C           51.28571709722745       55.45854451459032       63.69221203428079
C           52.01938795845729       56.58326890445252       63.36167860543510
C           52.03451882152611       57.67578935457410       64.21215586471686
C           51.30976792468356       57.63193773960226       65.39051059798508
C           50.57554755629646       56.50425422422737       65.71548577069949
C           50.65393419438058       52.93477164031400       65.36844525581354
C           51.72701636181337       53.09201064227926       66.45327524675629
C           51.11554637311889       53.51834548759761       67.76636953074419
C           50.16967879849972       52.72829802666551       68.41103175222037
C           49.60207643631707       53.13532569886106       69.60420517997309
C           49.97654343029991       54.33677026627603       70.18188852448431
C           50.93049905834093       55.12273645449433       69.55979244219603
C           51.49357620502821       54.71462627866406       68.36293697038928
C           52.52243756923604       51.79511538150623       66.68617818457155
C           53.29017395132342       51.24286171937445       65.47389499907278
C           53.82716026104898       49.87484868219423       65.81848995468887
C           54.69792883596193       49.68777722527050       66.88569223140379
C           55.15259308412997       48.42520566235883       67.21721730612033
C           54.76527877504844       47.32711895413814       66.46909083774746
C           53.91728361645965       47.50037504698674       65.39045330824374
C           53.44502910493195       48.76312453355641       65.08076327955287
C           54.41638653629473       52.17773094834708       65.01649352019390
C           55.06204440448225       51.72713393205778       63.69787772833396
C           54.03608324995634       51.70210393877759       62.59427993899496
C           53.67140455283204       50.50481292192168       61.98963932363873
C           52.71312072675837       50.47694561295985       60.99183087467205
C           52.10809423623007       51.65064364967933       60.57613827018596
C           52.46975284411944       52.84804399827308       61.16752546643691
C           53.42882399196259       52.87535501054732       62.16368258921600
C           56.23706192848597       52.65641435868756       63.33705601988427
C           57.58281184914884       52.15237837178426       63.88443584648897
C           58.54948930513237       53.30405658847184       64.00616545251818
C           58.96868003797023       53.74090803417592       65.25621690085548
C           59.86387422930960       54.78815364703422       65.38173766536738
C           60.35606654607491       55.42000467168691       64.25328009309037
C           59.93515307287404       55.00542888418993       63.00163330154628
C           59.03570067874441       53.96238274166933       62.88244464934655
C           58.16127731247052       51.03704793851427       63.00194415598174
C           59.41048900076166       50.40288149107229       63.62886933359042
H           39.72678728678056       49.25591180598568       72.20704545983551
H           42.09102313293633       50.02801101458411       71.60593760667761
H           41.53985021621313       50.15672481881633       69.93617695163825
H           40.05273726459706       51.52614650520638       72.20303386285366
H           40.40182965945893       52.34356204657887       69.29655550070382
H           39.03693232923277       51.39751467012526       69.88518537625552
H           39.80895605979455       54.10647150230360       71.04089134925144
H           39.33915583197319       54.31894355681268       68.64964422147126
H           37.77637134512121       53.51680949676654       68.84158669107104
H           36.97419395857735       55.35067541545681       70.25847346412596
H           36.68064720329270       55.52945745672915       67.84485538950989
H           37.65373648889393       58.17793865170020       69.01663074998567
H           35.98948546022017       57.57761755820882       66.54606056873554
H           36.06889227133394       59.16448724373802       67.30410006906287
H           38.78169090294308       58.24628124709142       66.97299309174485
H           37.28054245275771       60.38465432750665       65.42384611699202
H           37.95748693946094       60.59308715646304       67.03992209551771
H           39.64207527443983       59.69289044456274       64.67646034242958
H           38.58781677308885       61.83388136275097       64.11365968637962
H           39.12033872871273       62.54154412766076       65.63140341136948
H           41.51398496844423       62.04120783165880       64.91618979568204
H           41.88622501609570       59.71874619234291       63.66973509186597
H           41.48138167129056       59.59916297133300       61.18926149894447
H           42.84618619849279       60.67842134725620       60.94037353204217
H           43.31908562677599       58.25788067834790       62.63807896998478
H           44.91790868957415       59.78444029207506       60.55338548240748
H           45.17611274107003       59.68303113519117       62.28399550998137
H           45.67972297873083       57.55838208810557       60.16728312016061
H           45.85228823432585       57.09120259745978       63.16821494594694
H           44.59948993445676       56.46517262893261       62.09412490213128
H           47.53363761530770       55.93669532550834       61.56381644275515
H           45.60994897750152       54.49683085763268       63.40763338364779
H           46.86830818966042       53.60623960788426       62.56464189486962
H           48.15141110630368       55.91413953138367       63.68718931359534
H           48.15686903245904       52.97277473885010       64.45564620946872
H           49.14702919380111       53.73462436102378       63.21468496607235
H           49.26311079194580       54.35585145984212       66.19589193638268
H           50.03121933525107       52.06793367649525       65.59892433692039
H           51.14111293181848       52.74643345823735       64.41070394681314
H           52.41293992060567       53.88410148118496       66.13571451868970
H           53.22691494474174       51.97781234084919       67.50185212055905
H           51.83418233852537       51.01583074848384       67.02559190916330
H           52.58607445549674       51.12678463049005       64.64435451625202
H           54.01224177087111       53.18047678068770       64.87738609333941
H           55.18681354519006       52.23325143951736       65.78826283223555
H           55.44149170041318       50.70882233927406       63.83911533602959
H           56.30985882200432       52.75643113841108       62.25226973372695
H           56.04368842475618       53.65211588758190       63.74516434750115
H           40.50880851135867       48.49641129610335       68.59520282000055
H           38.76469100030212       48.30121384686820       66.88146238914869
H           36.39561450056726       48.63872684357464       67.48217579286857
H           35.78850406371262       49.15775978375346       69.81901524767643
H           37.53471051628828       49.35777120580084       71.53217993609393
H           42.71377232175138       52.31995607418486       69.63491642620326
H           44.55050855431463       53.87157427718178       70.08881783140177
H           44.71191423375019       55.00573626064114       72.27395386774833
H           43.01625179390381       54.55548149039065       74.01121011015850
H           41.17894027932849       52.98896698921980       73.56213999542183
H           36.76940520822351       52.00654973193883       70.26019187072752
H           35.04003949219834       51.52805702423823       71.92922293173879
H           35.25408084017423       52.40141991079759       74.22684275722585
H           37.21658174438235       53.76995405225919       74.83524618845622
H           38.94842720967660       54.25571881566765       73.15673439309577
H           37.55123729358847       56.52649456226328       72.12256363577887
H           39.08808908975067       57.96236641739027       73.39704224512617
H           41.23909889570489       58.66030013828097       72.40355392239766
H           41.83106379512039       57.91141902586445       70.12732859926206
H           40.30715235693817       56.48036535442484       68.86235131066726
H           38.29344714665442       56.19252436042367       67.64296130904286
H           36.45177428215896       58.90643489725358       70.81566697223526
H           34.41939560320170       58.93367496469382       72.19745197961139
H           32.44153708897752       57.62204039994091       71.51675766795944
H           32.51426173358609       56.29416194359169       69.43866979655022
H           34.54314365388861       56.26950362168837       68.05991282881214
H           39.72227014100006       56.64766427995724       65.56097030419761
H           39.83122536961176       55.48041391829742       63.42207861040686
H           38.13269984668370       55.92973521468619       61.66515068118697
H           36.31876141417567       57.52875294251667       62.11303052963534
H           36.21355381589502       58.70802816409984       64.26365161941759
H           39.97125847715517       62.05781391785892       67.59767446336994
H           41.73174832090479       61.84336797852358       69.27694858206394
H           43.31032705599379       59.94925495995293       69.19312580602353
H           43.07417742801191       58.24360862655621       67.42220168262760
H           41.31478542896642       58.46159343786427       65.72661894897715
H           42.37942824823739       64.13687857566751       65.20445596972499
H           42.36019984632183       66.56157153234957       64.79745376596507
H           40.65037908064654       67.55685563608171       63.32131955538802
H           38.97420164705552       66.10182140089194       62.23850724888714
H           39.00425451187499       63.68152583572335       62.63567928907641
H           40.11190802971608       60.94528400539590       62.57383610768532
H           41.21046062043885       62.22871441806906       62.10256691381212
H           43.44919211735539       62.80758925398743       62.13991287652924
H           45.47439877016361       63.82245773664425       63.04724927728505
H           46.61239330173074       62.81531910060281       64.98662317884077
H           45.70692253883194       60.74855349729171       66.00002023095136
H           43.67994071521607       59.71907573363570       65.08406616672191
H           41.59749410910118       56.77314581738428       62.12422097985897
H           40.63544261066940       55.12877939639804       60.58519599291517
H           41.35610834436353       55.07129887159937       58.21721915141044
H           43.00365251394842       56.70714489465539       57.41347819221196
H           43.92007467846977       58.40469687285853       58.95214188582666
H           47.21499230064130       58.79052860141160       63.38004779808369
H           49.57699926318792       59.41539217458286       63.54296536003773
H           50.97498128955999       59.52657859878853       61.52367617709252
H           49.98134111450216       59.00403064399978       59.31205956430386
H           47.63624080959124       58.29223721959146       59.16051047945933
H           44.13745334136080       54.29297985701854       61.42680820126676
H           43.32291740374698       53.13259636967373       59.43685969549638
H           44.71130478932657       53.03704163858245       57.39038579114317
H           46.91845208574458       54.12900278966095       57.36757541477449
H           47.73378788214513       55.31135135290045       59.36887674322443
H           47.72304446976864       57.32168157852679       65.44480404736380
H           46.71188110824083       57.80627035159477       67.63251513490724
H           45.40545167408536       56.07294010978920       68.80487429450092
H           45.07586987771730       53.86065828389846       67.73524939589622
H           46.05739540596339       53.39380345356641       65.55121128994965
H           51.28556932583502       54.61261302531418       63.02241810332202
H           52.58079781286806       56.61204686328207       62.43795892455540
H           52.60883018105542       58.55579034235038       63.95839766464130
H           51.31674058809612       58.48053394237984       66.06176086378616
H           50.01125356209938       56.47822396995255       66.63801114973532
H           49.87404950776487       51.78125006466318       67.98357648077705
H           48.86371261829142       52.51254894813760       70.08899666640555
H           49.53113480938030       54.65620474252631       71.11322046298693
H           51.23646184930010       56.05881287191821       70.00592158310621
H           52.23290594649553       55.34142713336407       67.88264295577581
H           55.02128318362917       50.53311048602699       67.47613665820430
H           55.81351787135307       48.30013801627555       68.06311217160072
H           55.11449734497696       46.33770722884179       66.72928972341508
H           53.61886393575886       46.64977948338370       64.79549498087272
H           52.76212089149294       48.88714670754601       64.25278534083492
H           54.14247193876353       49.58424929694158       62.30858557426767
H           52.43425373984358       49.53723122991182       60.53668673898506
H           51.36184242181938       51.62873971963931       59.79559294075190
H           52.00208064294630       53.77195241369979       60.85682321176978
H           53.71008802187512       53.81974446666599       62.60687514694325
H           58.71746692892712       53.65676021036593       61.89696365129075
H           60.31416600321132       55.49079176904043       62.11375712347722
H           61.06282673162249       56.23205184286132       64.34949832147724
H           60.18276612470584       55.10770514392377       66.36352056977641
H           58.59093642395001       53.25267123653030       66.14422482709061
H           40.26150170192888       46.90640920793935       71.51210023392383
H           41.55246925513509       47.51779980182957       70.47987159610808
H           41.63946357924298       47.74620562268653       72.22506359755138
H           57.41462807923861       51.74149341098136       64.88662461282824
H           57.40247768244765       50.26790079010834       62.84936866813901
H           58.42273801756807       51.44459834132101       62.02392481203002
C           60.16770141211639       49.53041637646408       62.61409293106080
C           59.05332697799673       49.59178700577706       64.84852265541303
C           59.51165542471499       49.96560831901362       66.10484986082891
C           59.24973957496185       49.18672499360108       67.21870200145939
C           58.53058670932489       48.01190486001222       67.08896201273022
C           58.05072005378808       47.63923744517076       65.84517028080528
C           58.30176640973304       48.42699660185654       64.73869844005708
H           60.09123868278510       50.87287340316625       66.21010601463162
H           59.62025964323607       49.49092338154108       68.18762795518299
H           58.34816102909760       47.38816792492521       67.95239670375997
H           57.48369454096819       46.72741507248224       65.73471436321715
H           57.92260984449626       48.11690420474770       63.77601295629150
C           61.37283151871821       48.85069843441266       63.26943086880565
H           59.49585384973858       48.77810365908930       62.20011784415485
H           60.51096235860364       50.15847535065480       61.78921152701391
C           62.21468310365031       48.02140421272941       62.33963183207999
C           61.65277084476133       47.05773603069846       61.51094791070585
C           62.44985895152534       46.26099351685136       60.70978061951442
C           63.82577143690902       46.40769653525314       60.73082584033246
C           64.39784001707186       47.37104027502597       61.54133167987548
C           63.59637068631397       48.17070557455182       62.33521529964012
H           60.58148844851139       46.92031242783350       61.48961844327368
H           61.99017299654531       45.52132607415146       60.07095898312917
H           64.45637695878513       45.77454628709906       60.12342075614104
H           65.47071288218231       47.49967185614695       61.55553036809513
H           64.05272406826194       48.91915560184038       62.96864483949528
H           60.07972646386179       51.21440060049016       63.94035005292309
H           62.00072528405595       49.61672821727081       63.73193271583965
H           61.01183040073717       48.20141722107778       64.07398656050789
C           36.95249421460468       62.19682600498311       43.97088120251109
C           37.02621080453314       62.78059525825405       45.22988714977400
C           38.28040104999970       62.98915209778931       45.78907750084879
C           39.42932616869705       62.62439666112142       45.11029416673595
C           39.34152442419178       62.02407568301354       43.86693386801547
C           38.09799436012307       61.80914071277533       43.29841166639633
C           35.78944259422837       63.22584450799079       45.96951589429508
C           35.27884555303582       64.53513445622598       45.35826644144392
C           34.67048062694234       62.17604764114535       45.95819580255879
C           35.14028014701370       60.78497527510855       46.40612045845722
C           35.87947069350610       60.86409547963350       47.72182014253220
C           35.24182606246062       61.28840671670883       48.88262999330946
C           35.92246168946129       61.34661355165510       50.08518835864930
C           37.25697839330509       60.98454186652857       50.14972895357526
C           37.90620564181135       60.57198409802095       49.00072467240847
C           37.22085137077880       60.51198483875077       47.79995902713330
C           33.96999506087938       59.79840106849475       46.55293752892099
C           33.07543195645518       59.61040167841516       45.31344611036000
C           31.80003654582134       58.94491322244376       45.77074293891823
C           31.80541942347193       57.67561172257687       46.33671055660541
C           30.64870081717606       57.12622840768235       46.85701817477395
C           29.45633772914358       57.82650636329553       46.79956483509253
C           29.43109364700061       59.08209672252888       46.21859307778665
C           30.59632413874957       59.63732879690202       45.71896455983017
C           33.78279068774947       58.83864195534008       44.19350290219627
C           32.99485272015340       58.85601001588586       42.87465798179360
C           32.78491092323357       60.27693534140206       42.41499585719848
C           33.86301947590060       61.06404298349964       42.02362536954656
C           33.67632996225777       62.37565176174384       41.62678372124239
C           32.40497627679584       62.92430120441628       41.60863751727342
C           31.32193968195707       62.14626157074298       41.97970973353001
C           31.51307446176198       60.83399078024307       42.37719857037723
C           33.72583767478296       58.06186168368234       41.77807005750769
C           33.55802889662976       56.53942561919622       41.89732809557277
C           34.72974812329013       55.82447971751294       41.26924680474728
C           35.06272299416341       56.03342472388017       39.93545986346956
C           36.11295670047226       55.34769466616866       39.35360124428489
C           36.84611530933178       54.43367739798921       40.09188292956635
C           36.53155531131765       54.22522838066606       41.42276098161263
C           35.48559098113846       54.92057270993030       42.00543488342763
C           32.25438108538280       56.06721658791302       41.23484161620756
C           32.00884327505546       54.57643197650693       41.50624466293583
C           31.60498899438158       54.36077187519922       42.94313837778797
C           32.41830757036451       53.64939032224289       43.81470671272643
C           32.03558845177471       53.42852719362060       45.12614931422493
C           30.82830988174922       53.92083629311035       45.58744310424117
C           30.01343407837995       54.64617801643188       44.73329287798553
C           30.39979946067684       54.86254963413921       43.42415974409289
C           30.97314308298525       53.95289097357807       40.54446821910244
C           31.53410048049448       52.71238176478204       39.82000968529159
C           32.21534727636681       53.13227369525906       38.54004714497837
C           33.59713154773381       53.09176687918213       38.41638934593461
C           34.21818955770534       53.47170489582409       37.23859745109304
C           33.46434967613157       53.90751770124617       36.16397589506425
C           32.08414832089585       53.95662491939832       36.27603755466472
C           31.46716658768265       53.57117106258784       37.45195371669420
C           30.46959578663429       51.63225476653891       39.54622924934791
C           30.45204743239306       50.51537221146103       40.60596067162844
C           29.77963531396546       49.28688720453230       40.04379078804988
C           28.45015077021490       49.31048914368090       39.63984817718841
C           27.85041569927013       48.18096348807615       39.11336921608123