3795
 energy: -5103.584304895785 gnorm: 0.000936970897 xtb: 6.6.1 (8d0f1dd)
C          111.28668534507659      124.85388697904203      124.12718474577396
C          111.60749350727116      125.15617627964831      122.68407805845160
C          111.83578905377477      123.47694985902841      124.52605508141014
C          111.26361619325050      122.36146372855066      123.65544882217843
H          112.92183335373777      123.49506239997777      124.42979086148510
H          111.59575700482472      123.30546315820835      125.57630911093742
C          111.69365789663362      120.96725254373094      124.12666351980992
H          110.17363460910993      122.41777148163480      123.65697013427605
H          111.59710305754336      122.51375850601119      122.62645828866658
C          111.16851582849927      119.93205485903326      123.15098384745413
H          112.77586087277484      120.92413492881391      124.21267537263618
H          111.24920322084336      120.76689397988180      125.10276910334807
N          112.04968003179305      119.30312265719485      122.36009848367641
O          112.87386675021298      125.49221584116576      122.49766460798693
O          110.81123093062085      125.08149476113114      121.77456963621312
H          113.07002348175673      125.65393172585492      121.52640835263595
H          110.20600638408501      124.89592383106273      124.26407290959907
H          111.75370151202205      125.61713573771233      124.75044358719042
C          113.46911510113087      119.54664845333269      122.18617351254632
H          111.63017101306126      118.68431296819070      121.67758707864326
C          114.04159572266902      118.59747545482871      121.13364272262014
H          113.62819699854107      120.58312735133370      121.86831165368477
H          113.98676588972178      119.39133664902872      123.13812193817040
C          114.05687840854664      117.15136814279397      121.62519082746518
H          113.44690362096944      118.68945891049995      120.22463207584771
H          115.05945832037580      118.91353707406532      120.89984428347456
C          114.60550763132439      116.14477367111375      120.61035165339783
H          114.66778765721325      117.10456165263317      122.52898893118736
H          113.04367325565114      116.85799503018512      121.90112056090513
C          113.62916122106628      115.82958278247887      119.47669415067175
H          115.53978530840696      116.51452900912865      120.18646708452592
H          114.81608238899356      115.21156980876239      121.13698673642423
C          113.96216075801404      114.51657824780590      118.77970730442813
H          112.62169047263961      115.72789858935479      119.88169976584490
H          113.62974331118002      116.63503566155353      118.74176569969023
N          115.21011317310661      114.58473868606258      118.04629746322048
H          114.04480509057257      113.70899991702676      119.51379793268278
H          113.14687437740058      114.25434603990908      118.09252368010820
C          115.83473464243340      113.49518076572186      117.60472017167464
H          115.56263477551029      115.50911023682001      117.81014333529134
O          109.97110805006723      119.67204333382767      123.06693959740205
C          117.14625149242744      113.74837374624717      116.88597069949088
C          118.31633881467778      113.76614157951290      117.87787687079796
H          117.30128319682248      112.94211460899150      116.16725939201977
H          117.10074433092410      114.70113695570164      116.35960808352881
C          119.65693447502319      113.72614456883495      117.14225692482256
H          118.25200592553165      114.67416079072815      118.48060723818931
H          118.24094844056276      112.91081664624537      118.55234398563717
C          120.83301667282889      114.11530061395108      118.04039507249199
H          119.82617735687076      112.73221824730543      116.72598365553871
H          119.62499900660487      114.43929671731749      116.31488807963450
C          121.09693554918141      113.16949476070522      119.19893126651876
H          121.74520832255786      114.16469596955714      117.44090289201188
H          120.65074313617994      115.10213338794496      118.46212229170513
N          121.43882327796008      111.93638865941439      118.83780925217116
C          121.78801792608427      110.87384093995239      119.75479257470219
H          121.48202202083874      111.69957706375227      117.84820286942477
O          115.39401382175282      112.35440949999769      117.76582981153953
C          121.21498811096284      109.54696950573098      119.26280792292798
H          122.88014422626249      110.79698578666658      119.81665278877296
H          121.40886260489711      111.14330749797841      120.74237031254934
C          121.81608259500466      108.33841201620911      119.97870946887325
H          120.13247318510041      109.54932457187999      119.39015107582216
H          121.42486712761695      109.47359532120230      118.19395926119334
C          121.30778837500083      108.20167665463499      121.41156172414769
H          121.55998329201171      107.43307911233418      119.42403850167028
H          122.90264251177219      108.43098369071626      119.98249110574126
C          121.87181811458363      106.98057948304108      122.13939712241158
H          121.55982235555911      109.09831547622056      121.97700447313093
H          120.21893726435690      108.11231722316749      121.39491602533872
C          123.37190746898277      107.05104043624233      122.39728059259126
N          123.72389988898715      108.23309473297064      123.15368534044875
H          123.68715758717825      106.15853071186808      122.95135163047692
H          123.93878966529540      107.05921631620164      121.46163437807500
C          124.98503397734652      108.66864995274443      123.23592883422943
H          122.97595753600034      108.77942843772567      123.56104625089034
O          121.04423227825636      113.55033341678913      120.37082551169379
C          125.15044789332211      109.96098692069577      124.01936103414101
C          125.79631808263781      111.04035402039358      123.15037660597054
H          124.17389628428970      110.30003419172940      124.35641817746820
H          125.78366591837876      109.75967612570182      124.88618013871252
C          124.95969001073597      111.33052248349091      121.90694824056207
H          125.89639985581611      111.95859672717272      123.73205605446277
H          126.79530846029984      110.71735410839513      122.85231616349228
C          125.47903834313837      112.55406994277328      121.13964550387243
H          124.97474470348011      110.45330200917516      121.25714698975878
H          123.92522245385881      111.51330781454004      122.20361326789954
C          126.90717284866342      112.32836116844869      120.68686058783214
H          124.83283205291943      112.75259316187274      120.28336883598145
H          125.46346005141002      113.42735967593507      121.79441518083334
N          127.04499822109786      111.69928591020268      119.51211986944092
C          128.33594176747005      111.38381699396309      118.93452998293854
H          126.22924564774665      111.46778809719474      118.96730702034043
H          121.36382780042037      106.88373039463134      123.10046135943323
H          121.66897345124013      106.07606005174812      121.56115461256890
O          125.92388657643669      108.07635372245238      122.71688447179322
O          127.87559737416964      112.66891924185170      121.35721324431188
C          128.28628225081266      110.09731912626459      118.12033802601461
H          128.66427123289253      112.21459965409124      118.30213961189878
H          129.04332768280833      111.28844670519641      119.76171327883290
C          129.64124417638280      109.77345198855416      117.48870118425975
H          127.98994924683359      109.27996740065913      118.77977516338477
H          127.54315134863327      110.19804903526466      117.32813539204774
C          129.92368734798782      110.59002731294738      116.22388477454096
H          130.42311010040544      109.94820258675726      118.22832093939085
H          129.66704421799824      108.71517691308927      117.22621204231356
C          131.41568334348833      110.62225937432038      115.88342767806351
H          129.37241170774172      110.15208437457314      115.39095157936910
H          129.57581371356312      111.61628994348604      116.34693238848803
C          132.14816859723626      111.65452603191106      116.74062525576367
H          131.84474009270102      109.63297295031559      116.05371979041317
H          131.55414158033506      110.87514946622098      114.83077597045839
N          133.58577888161111      111.53978761677550      116.62554413546447
H          131.83652804983080      112.65970913052344      116.43993794572825
H          131.91240392762447      111.51232668987871      117.79754060546013
C          134.40901712398733      111.61661861390523      117.68202341248926
H          133.97293226361242      111.70513070309886      115.70502089445303
C          135.88034966001808      111.43236963846452      117.34710679738845
C          136.30470899567410      110.04945823349772      117.84676940763882
H          136.03847905191935      111.51004758048252      116.27280029319361
H          136.46282132544621      112.20154269292830      117.85599276262333
C          137.71452883290564      109.66129411295472      117.40945553602198
H          136.23921263508828      110.03627910012337      118.93411194049560
H          135.59657628246680      109.31208036065375      117.46322168460919
C          138.15348702240831      108.33147007001202      118.04239584283086
H          137.73751677296730      109.56447389366424      116.32193285830063
H          138.42233826386567      110.44148273484252      117.69367505100951
C          137.07344319540434      107.29250010973294      117.81231420853520
H          139.07804793270506      107.99593370560264      117.57091487128120
H          138.32462910664518      108.45153754699898      119.11136712219147
N          136.38157138695473      106.95519846196380      118.90195748810807
C          135.19224380070921      106.13102631870809      118.89051870955961
H          136.69563646281782      107.30477362555499      119.80096186776925
O          134.01769063336238      111.73109220028788      118.83786160263061
C          133.90985555934080      106.97083729483739      118.95641787431344
H          135.20321271313728      105.55250364828316      117.96331651977360
H          135.23477836374940      105.45095269599835      119.74437375957740
C          133.81018114719583      107.78863774333171      120.24406491578603
H          133.88780433980861      107.64452155569177      118.09703322507939
H          133.05430376616462      106.29835524718345      118.88115511753895
C          132.55305251027548      108.65764808797434      120.27157431512421
H          133.80086495073681      107.10831467808949      121.09698449934436
H          134.69025935999599      108.42666805178168      120.32212366005955
C          132.55891669525417      109.74327486764467      121.35381684074284
H          132.45772899024709      109.16167539591586      119.30784739659822
H          131.68502763888907      108.00973043572853      120.40263902358339
C          132.82226360298176      109.19475281106983      122.75493279726288
H          133.30458608648777      110.49922372633826      121.10118892741302
H          131.58363764152216      110.23683555941068      121.35091630488017
N          132.64507698861567      110.20641858739015      123.78268368259974
H          132.14647957305536      108.35459167615690      122.95103274813606
H          133.84828244842947      108.83775059290899      122.84207310829743
O          136.83959046429962      106.84041964939165      116.69171552113097
C          133.54971634562685      110.49276529199261      124.73019802562328
H          131.81056902316459      110.77134289767234      123.72961136363189
C          133.15116118326310      111.58000519883311      125.70835440020566
C          132.22792119812638      111.05466452547920      126.81594171245492
H          134.06823575849194      111.95631071016425      126.16528510736771
H          132.67035974435353      112.39674635889426      125.16960110239113
C          131.89371107634088      112.15400559781723      127.82528911544068
H          131.30462256671990      110.66822394888150      126.38254195487987
H          132.72640958880649      110.22973296683493      127.33201395084747
C          131.17240476424180      111.62891603540886      129.07293770315809
H          132.82268032026707      112.62550367597601      128.15247770671806
H          131.28046670978873      112.92009928527266      127.34997194651076
C          129.79868663866708      111.04833208114025      128.78749521368630
H          131.77750727506233      110.85266501459780      129.54557031396288
H          131.05049756462606      112.45356514914120      129.77702876213593
N          128.87215545509710      111.93467646482706      128.43650071119356
O          134.62688656087320      109.90712323819128      124.81808964095526
C          127.49118522659558      111.59731594432834      128.14252559615429
H          129.11286472773244      112.91989791482477      128.41125495608082
C          126.57186223824134      112.75636438381619      128.51907987764633
H          127.39466368399241      111.38657994453733      127.07070119691218
H          127.23840401660858      110.68833096629915      128.69412565471637
C          125.16562436541483      112.63669264957383      127.92946626100853
H          126.51028295301194      112.83145907155743      129.60583057153585
H          127.03177396061257      113.67335947150146      128.14558951939551
C          124.30877720084628      111.58026704940083      128.62585022679923
H          124.66919787850729      113.60412217145092      128.02683638471498
H          125.24943877829202      112.40787010618132      126.86662343168524
C          122.85009267927798      111.58660533923134      128.16271227689347
H          124.73524014241147      110.58870259240277      128.47152218498397
H          124.31155864564694      111.76632340965278      129.70004037758719
C          122.70820643064864      111.18089914155254      126.70468041172975
H          122.28315332969417      110.89150888717694      128.78477155655605
H          122.42836210707115      112.58237808587074      128.31424656466743
N          121.32525947658365      110.96951462470436      126.31032595751982
H          123.14022889655499      111.95021618831265      126.05569300696669
H          123.26383306641338      110.25260586302633      126.53184179860294
C          121.02923233800567      110.47242652979806      125.10099660750907
H          120.58962542093562      111.11625497107840      126.98961488093248
O          129.56873343808226      109.83856568614361      128.88166085486910
C          119.56343082706343      110.23589076701110      124.82934946794873
C          119.10003553715843      110.81515164221970      123.48789090084695
H          119.41794428780064      109.15316542479029      124.80765092708134
H          118.97368826481338      110.64227747448382      125.65008722147664
C          117.61369401938360      110.52517007321048      123.30645006493643
H          119.27666289543515      111.89149535256216      123.47377794033315
H          119.67563600547619      110.36695249129977      122.67901335543058
C          117.00030359046502      111.05669891916028      122.00478667511766
H          117.46135176700862      109.44527932310989      123.34495668373015
H          117.08108395685350      110.97371690440380      124.14671820453164
C          115.49142278701368      111.06431508922570      122.16629519902764
H          117.33671595374052      112.07265060256439      121.80145281847855
H          117.28071564009579      110.41379679792169      121.17116263739537
N          114.95694845499997      109.85474809341635      122.36973412150427
C          113.61313026208934      109.64806565326728      122.85337725351137
H          115.54577504743600      109.03262376658323      122.29176961691448
O          121.90448605978386      110.21645916178200      124.27688653218152
C          113.58885369364906      108.93292537630401      124.20711390867437
H          113.13974534602632      110.62608550352650      122.94815584394460
H          113.05058448184133      109.05443325542656      122.12733663855390
C          114.43624746588583      109.62117194974191      125.27623792821292
H          112.55136449851352      108.88302944089237      124.53886746593435
H          113.95079313712715      107.91165923543878      124.08025623514682
C          113.98935611695087      111.05227446163143      125.57371157792302
H          114.38355152410567      109.02598873353369      126.19017662684891
H          115.47652488896333      109.61749998928289      124.95388169019049
C          114.62258382466952      111.61033192932214      126.84831069192398
H          114.25613223664973      111.69885540263139      124.73649648703437
H          112.90297580509282      111.06940197060381      125.68273574282325
C          116.14340668071634      111.67844088366208      126.75697009597538
H          114.24819007998603      112.62097997665487      127.02277911901172
H          114.33513229304954      110.99263192944539      127.70228191254961
N          116.69990671091966      112.35444146328445      127.90979884806742
H          116.58242997431431      110.67811613814602      126.72184670039861
H          116.42272720335021      112.21691141933459      125.84303321824819
C          117.91176459146905      112.09674718653349      128.40896734285818
H          116.12671588765843      113.06481124317675      128.35120708727280
O          114.82287001331524      112.09619338477940      122.15168698081749
C          118.21823969479524      112.87498731452946      129.67769679514393
C          119.38063907098264      112.27448073459739      130.45962928487353
H          118.44102310720633      113.90908735313529      129.40660360387454
H          117.31953037846574      112.88214529345609      130.29690923962252
C          119.50783457341001      112.90065451939172      131.84513482312786
H          119.21851006520254      111.19914645002333      130.56016068954014
H          120.30870571213283      112.41420148667605      129.90165358038030
C          120.74363582452705      112.39686160877885      132.59141135857044
H          119.54424308833890      113.98703336893635      131.76005780546427
H          118.62368652754544      112.64706839487755      132.43457337797525
C          122.05773532504504      112.72609452933440      131.90676134885058
H          120.77135964814559      112.84637127941421      133.58667587536820
H          120.68971270101602      111.31258099996610      132.71064980006503
N          122.25884899469281      114.01083373597977      131.63197926730822
O          118.70368654725398      111.31255355472990      127.89196683454134
C          123.48926497838399      114.55085912389293      131.09284133141020
H          121.52118309942188      114.69081367529128      131.79812638150264
C          123.76843938003815      115.91648290994443      131.71773139738931
H          124.28771284018401      113.83842402424906      131.30834112336569
H          123.40156968444715      114.65410790472984      130.00501138887341
C          124.96603646852942      116.63082440592714      131.09058359070841
H          122.87409244645137      116.53042716388178      131.59014107494590
H          123.93277091039550      115.79503747936363      132.78957604415206
C          126.30060176670332      115.99469891502923      131.47501390903744
H          124.85281112979273      116.62788875463895      130.00606662522665
H          124.96681810868952      117.66853778827748      131.42830540844494
C          127.50744049429154      116.74981402746486      130.91668021329676
H          126.37782934175952      115.97014940776266      132.56359716886439
H          126.33607771054444      114.96553425967087      131.11645046577641
C          127.53955067807485      116.72255762583166      129.38486603437383
H          127.50152750320829      117.78113096435456      131.27284057204039
H          128.41804163325065      116.27296673637079      131.28492127886761
N          128.85672113412133      116.99293346375238      128.84879762462629
H          127.25989275693225      115.72108077556689      129.04878974689416
H          126.84223725440214      117.45107455396524      128.96931046834115
C          129.66700428118747      116.02534222791245      128.41082103576278
H          129.15344412243442      117.95837844290355      128.75529306254538
O          122.88797984309222      111.84828588369560      131.64947140335724
C          130.96853221357182      116.50691226531718      127.80833798176802
C          130.74002531615091      116.71822020486142      126.30902287307387
H          131.28810829226728      117.43909452093685      128.27221476719203
H          131.73188698020351      115.74234351671220      127.95961277315315
C          132.03973144453656      116.98004112916472      125.55686222644884
H          130.26735430440235      115.82429617776020      125.89773655959873
H          130.05742755607488      117.55819299597917      126.17421758323928
C          131.78681172293261      117.08421540473091      124.04967607368275
H          132.50157512421481      117.90112418929830      125.91864224131722
H          132.73499954946581      116.15901957288496      125.74410844232969
C          133.11291888667245      117.17913085062614      123.32079700279752
H          131.25573274631009      116.19150494233000      123.72056858361896
H          131.18321056992531      117.96337911240309      123.83061947214949
N          133.72600825921538      116.00630020453518      123.18778510501005
C          135.05916076824963      115.80943644459694      122.66204770019598
H          133.23043463181054      115.16245370255696      123.47602544557348
O          129.36192881413425      114.83467524138860      128.42888036819883
C          135.14467196630176      114.46009263500339      121.95825279189046
H          135.29150175957272      116.63563402661755      121.98668026239912
H          135.78014152673086      115.83707792118980      123.48966675598471
C          136.57441581794527      114.08535977648114      121.57856755920743
H          134.73554198354324      113.70353644067383      122.63022730700615
H          134.52765480053961      114.47428431010594      121.05831578575703
C          136.66632110790428      112.63598459288045      121.09697384632392
H          136.91988156488898      114.75575433765340      120.78973049148094
H          137.23195417973122      114.22258294548328      122.43947713068262
C          136.67871126463223      111.63285447671032      122.25185998316665
H          135.81819460757873      112.42285239791649      120.44236072818676
H          137.58135575114281      112.50300147294968      120.51623097305952
C          136.53791349275156      110.21364407564253      121.71811622922463
H          137.61097722106095      111.72561096126141      122.81236856275943
H          135.85370101642508      111.83119271740291      122.93768238680757
N          136.63434455780239      109.22207510506846      122.76836002753973
H          135.57378745779525      110.12980419706909      121.20355577275133
H          137.33502562777153      109.99632668850478      121.00063139833418
C          137.17447662568031      108.01947531450550      122.55997049902084
H          136.18576399441815      109.44755772144062      123.64861888152613
O          133.57538407635590      118.25115707998559      122.92482580826481
C          137.35972443869352      107.13124010526367      123.77612895977863
C          136.13073554046707      106.96763117253711      124.66866460000689
H          137.69621019602252      106.15664540243093      123.41638992469539
H          138.17154670090213      107.56994756291483      124.36211943070627
C          135.00163891117418      106.19797829606176      123.98575994100561
H          136.42827117394384      106.43270695107329      125.57298068430440
H          135.75886826179746      107.94354404185948      124.98022114436107
C          133.72014212099424      106.31054013997581      124.81148044573546
H          134.82516934388423      106.60425985073583      122.98852670570692
H          135.28126119953345      105.14823905490513      123.87279904899901
C          132.56351151689316      105.54484167401054      124.20054883146311
H          133.89698929591700      105.96264137701451      125.82872379293624
H          133.44111952800614      107.36432860719958      124.86561026877905
N          131.98392232722711      104.67272051828112      125.03768775761159
O          137.57166372991247      107.66569163334675      121.44700248469498
C          130.85622600500625      103.83634284980680      124.68219504956433
H          132.25372982154144      104.69079332102220      126.01351126352127
C          129.83112724619227      103.75444051659531      125.80858845055549
H          130.39652236782663      104.26467646163741      123.78799432076883
H          131.22628952970913      102.83198702189955      124.44805861477438
C          128.62023457330059      102.89321273183012      125.44115841071613
H          130.31321077651208      103.34766147940545      126.70047599687479
H          129.49028874919870      104.76503247674017      126.04456655842127
C          128.97314904729291      101.42846945963143      125.18319505803154
H          127.91209540911500      102.93800393463098      126.26874082769328
H          128.13309355855512      103.30723120209012      124.55565179379796
C          127.74323637875290      100.53194219994806      125.03247101850651
H          129.56159705071045      101.34933357209819      124.26772461334227
H          129.58364739833368      101.05322992841739      126.00793104347106
C          126.95465520379805      100.34594825415837      126.33731766213967
H          127.07876959009771      100.93802149562819      124.26578904968287
H          128.07316919335395       99.54522959020984      124.69359876077813
N          125.95362384813068       99.29243122418907      126.29741912395127
H          127.65009436549580      100.10952568650492      127.14962126967647
H          126.43114857741878      101.27019063967776      126.59594833739433
H          125.28611685583438       99.48171858048079      125.55232963058127
H          126.39636389448670       98.40659431380632      126.07826821306998
O          132.18986978864132      105.70806261157799      123.04279315008866
C          100.94682595226681      130.22597470914209      118.72903386599506
C          102.40723335346546      129.86522909598952      118.88509187223008
C          100.04216182858099      129.80602690330602      119.89047036682712
C           99.43456277261383      128.41434401612935      119.70968926312143
H          100.61081511511522      129.85066102847739      120.82091155845968
H           99.22314885186128      130.52218041658418      119.96563727187220
C          100.45336764341006      127.27680001480454      119.85056988221655
H           98.64718571340246      128.26787879956873      120.45239622479464
H           98.97330820512904      128.35757458639409      118.72140008336828
C          100.76853514286260      127.01450074731724      121.31095104274466
H          100.02505910390317      126.36230042674038      119.43839896291763
H          101.36297615999325      127.52332834245247      119.30601125117452
N          101.88959447203341      127.57914974721940      121.76015338489647
O          103.06394559825010      129.95541376241431      117.75022189155236
O          102.93386634540023      129.55325831746751      119.93521058149257
H          104.05530572762120      129.82946182401332      117.87827754528183
H          100.59432408551964      129.81877555912493      117.78043051812280
H          100.93761326926760      131.31439709765368      118.62859100815454
C          102.33461300373678      127.50930912136336      123.13489117475294
H          102.39765768632823      128.21845072960681      121.15687740441045
C          102.52514708238320      128.90914099938522      123.71417679674460
H          101.58064471210693      126.95480379770143      123.69887302833361
H          103.27906811346404      126.95785883754517      123.16952983461056
C          103.05193027794036      128.89137083701175      125.14836923130734
H          103.21751179706986      129.46226119892916      123.07504974317351
H          101.56440601211229      129.42830622139195      123.69199526581197
C          104.48181366469217      128.36692449759164      125.26598284482429
H          103.02193599994382      129.91187535262318      125.53541040294930
H          102.39412107158972      128.28171239840540      125.77062486545968
C          105.02666397006922      128.56996764087748      126.67793744948291
H          104.50808530112047      127.30196598569856      125.03240263352048
H          105.12149947061131      128.88819914099116      124.55041747809409
C          106.43636170249209      128.00849443715734      126.83757572351088
H          105.04487170220489      129.63411841237544      126.91536476213807
H          104.36928713147218      128.06903197718893      127.39073864524696
N          106.41731925536517      126.56204877535784      126.77346395799324
H          107.09212175184381      128.38080432481249      126.04649732385211
H          106.84965704433968      128.31766832701658      127.80452078916153