3864
 energy: -5104.061534732612 gnorm: 0.000921720723 xtb: 6.6.1 (8d0f1dd)
C           43.18387643372994       43.33993972189425       47.99259959559979
C           43.79912675492529       44.31776291839103       47.22283014233401
C           45.17581618785854       44.25035663142290       47.04568163619154
C           45.90585761786013       43.21439061121391       47.59431511247082
C           45.28187386695538       42.23690383888236       48.34908970580716
C           43.91640882760706       42.31036335274060       48.55787947180896
C           42.98718430263251       45.41654962961856       46.58111400937464
C           43.16605934223566       46.73133144390491       47.34071120938800
C           43.39422120998135       45.56794726599087       45.10958054471653
C           42.36524783062960       46.25872583803741       44.20285878052096
C           43.01747609156745       46.49045755079018       42.86226389045011
C           43.45008221634200       45.42874809873868       42.07520678915237
C           44.08909040384400       45.64940298480142       40.86963777629818
C           44.29037869958132       46.94296135516999       40.41774367836805
C           43.85989031025378       48.00677914837718       41.18950441640845
C           43.23562044859158       47.78125240679543       42.40358310530902
C           41.07234699733402       45.43675193338370       44.08561229167147
C           40.16911065852209       45.89122865912672       42.93181763762518
C           39.99658500727305       47.39113776452746       42.92500546819681
C           39.56460275419560       48.08038075503794       44.05245454619021
C           39.43787533710167       49.45786692092375       44.03750334769988
C           39.74405811042141       50.17212580868377       42.89151354942549
C           40.17356195011973       49.49856248970396       41.76196263764342
C           40.28800143244307       48.11972927355188       41.77995966110886
C           38.77831031086965       45.23666361196906       42.98824013465462
C           38.74768696738547       43.70876042108973       43.14771195547306
C           37.30555694629776       43.27162092056926       43.25329400974704
C           36.43108674488458       43.38651630228217       42.17802419616115
C           35.10648292698104       43.00568568988602       42.29489386289615
C           34.62921985070078       42.50402470008523       43.49485456085880
C           35.48870471110191       42.38874199642840       44.57348661449026
C           36.81396714760450       42.76759981822281       44.45030783641522
C           39.46572987462579       42.98840855240137       42.00358940421009
C           39.59484023669825       41.47938466511904       42.26238899369717
C           40.44009800819284       41.22588178397671       43.48544914464545
C           39.89778008643696       40.58098906507532       44.58950634902902
C           40.64894514872099       40.36945816001494       45.73282390245925
C           41.96034393063984       40.80539844884431       45.79256409795511
C           42.51702037184474       41.44599787256202       44.69842924711634
C           41.76393019635715       41.65074246523213       43.55610502250179
C           40.14056462357485       40.79500354155534       41.00151809050696
C           40.28421662906572       39.26599350533610       41.12791894426503
C           39.87702680376800       38.59431725630751       39.84043595679535
C           40.46368392329578       38.96327346932583       38.63438620310027
C           40.10047692748095       38.34312566375097       37.45253908319225
C           39.14544946788629       37.33977902631307       37.45676387315996
C           38.55507936643627       36.96450863318772       38.65082811057878
C           38.91799966150977       37.59006347887544       39.83104847690534
C           41.73073465494480       38.88938360670866       41.47339925511242
C           41.93609941243270       37.38140686221841       41.67999297856023
C           41.48349643814193       36.96926145890326       43.05674229885442
C           40.43043171596749       36.07865037589929       43.21710003987957
C           40.00207354036603       35.70417974567939       44.47882643117216
C           40.62668075277606       36.21350038677141       45.60362525384823
C           41.68318654975609       37.09584852743299       45.45693402523424
C           42.10522470177253       37.46972086250438       44.19477976318871
C           43.40928688859307       37.01201999191770       41.44102861990123
C           43.73555820169560       36.98337231854715       39.93689501213073
C           43.38525959594962       35.63381387630892       39.36307784745982
C           42.30699070485193       35.50013500966224       38.49852483952903
C           41.96234120756856       34.26423296040872       37.97978265373713
C           42.69847706636184       33.14164703841055       38.31425156976142
C           43.77867848117370       33.26411575696012       39.17232688475812
C           44.11698980529422       34.49887564120641       39.69461684632169
C           45.20180434753458       37.33513654436930       39.64677965642662
C           45.51718272142023       38.81660103136979       39.88236712299312
C           44.64808633037501       39.75137837273550       39.07445702819174
C           44.15363059317478       40.90240074652591       39.68027666173999
C           43.39291468431067       41.81395724541022       38.97064701230850
C           43.10137819947796       41.58691949523460       37.63615472014681
C           43.58652819875417       40.44421375207424       37.02216898484346
C           44.35648008434892       39.53790889648411       37.73235814893812
C           47.00278715516062       39.13255752143130       39.60697835099069
C           47.88292964955031       39.00832649304474       40.86124746646181
C           47.97306245278031       37.57545482636926       41.32097404291171
C           47.39481908373148       37.17623510994649       42.52011891745897
C           47.44461747022226       35.85460975477020       42.92820126283576
C           48.08664946564424       34.91028530994982       42.14706898552161
C           48.67802251330513       35.29715785188488       40.95558889730509
C           48.61898832437124       36.61618266034152       40.54654103743468
C           49.27084694412562       39.60086090692988       40.58594528150446
C           50.25451458803254       39.48375899423905       41.77138545984549
C           51.62662150054867       39.26353869936929       41.17882808276381
C           52.09816621845955       37.96661644056104       41.00578880683406
C           53.31360764703786       37.72879575455240       40.39092085435768
C           54.08135956105027       38.78876039200014       39.93875289113797
C           53.62728265272411       40.08379703485443       40.11271289845337
C           52.40734937803246       40.31920917327937       40.72385134393748
C           50.21370728652015       40.69329729586826       42.72015748175609
C           49.12836574288297       40.60958134694697       43.82170696526532
C           48.26274520085695       41.84566110439559       43.81901331877087
C           48.78132266963181       43.08209792647122       44.19138798916836
C           47.98438850080599       44.21274576159025       44.20151963820297
C           46.65486238523293       44.13248434885725       43.82293664831531
C           46.12932099584001       42.91064551737628       43.44552101867870
C           46.92438676642728       41.77845405878662       43.45334369000796
C           49.76768215267267       40.39603846450877       45.20328654098527
C           48.73259013162243       40.41026231926580       46.33586076373165
C           47.74580424441019       39.27538348098343       46.21461724721455
C           46.39425261502675       39.54141728359475       46.03170841177477
C           45.46939108808989       38.51307140258112       45.98161848433110
C           45.88168230176382       37.19921663705464       46.12382788794050
C           47.22684191574580       36.92314630716793       46.30901571813849
C           48.15144710496369       37.95177671453330       46.34929150120742
C           49.40499164086611       40.35965433242026       47.72214621003504
C           49.56018186540487       41.73428232776499       48.39294816607537
C           50.60958032253497       42.59151167179067       47.73468777795009
C           50.27365398587622       43.83491384722155       47.21422565877795
C           51.23527895313467       44.65176888248943       46.64681200633437
C           52.55369543593776       44.23751827202120       46.59240997251003
C           52.90229362158901       42.99923290684475       47.10295432392851
C           51.93809241642273       42.18554048712378       47.66824541582377
C           49.84713879526113       41.57215276544964       49.90266782163516
C           48.82849776585672       42.29951411886074       50.80804815388430
C           48.68060746185456       41.49370256760236       52.07199632914041
C           49.56179508473851       41.59931564600328       53.13991184183399
C           49.40445397424676       40.80027619120061       54.25833828365285
C           48.38946818682339       39.86194553261394       54.31717074843883
C           47.52910422157968       39.72574640956429       53.24215082352841
C           47.66716486341791       40.54477701029243       52.13884135536568
C           49.23436776082635       43.75940918141880       51.03328306563190
C           48.39470540763311       44.48270318698929       52.09490851731427
C           46.91573791837710       44.45791256425714       51.79495498039197
C           46.01943775221757       43.91445019671409       52.70605188744721
C           44.65374398226943       44.00945832832874       52.50022043599527
C           44.16225520965056       44.64646281355895       51.37501117278817
C           45.04729611128186       45.16048271219319       50.44399867528446
C           46.40918235476040       45.06456925562028       50.65140785046954
C           48.82190479283506       45.95682821497767       52.21987870603388
C           50.11916479969666       46.20565329750603       53.01214372372325
C           50.73498881044397       47.49271968763923       52.51837769968176
C           50.02130714440338       48.68552709204305       52.54311652982499
C           50.53863838944145       49.83607415865727       51.97721784030076
C           51.79215949224667       49.82024969722474       51.38948020048106
C           52.52624680536633       48.64774937741554       51.38612677916878
C           51.99898229985114       47.49652886489648       51.94394419152993
C           49.85172319406745       46.22533369035229       54.52214196747153
C           51.13713086224140       46.30965058239445       55.35909223813395
C           52.04569678926610       45.13392533312716       55.09667776025938
C           51.65207327851031       43.83675002531135       55.40844598672215
C           52.50975974869913       42.77036279218898       55.20813145667687
C           53.77088927973460       42.97635947706041       54.67821018636733
C           54.16606387293131       44.25957322883096       54.34466068828812
C           53.31175305572214       45.32728599268129       54.55721871549210
C           50.79220017927997       46.38557348132314       56.85424447706361
C           52.02343867023367       46.62960770300461       57.74127067171666
H           41.93389454128921       45.12640024058437       46.63526252347314
H           44.32010191075751       46.14704762599276       45.05961328730756
H           43.59764972381239       44.57301372945472       44.70819085841053
H           42.11709084734866       47.23764788759650       44.62532304983860
H           41.32795669355989       44.38491272216746       43.94782171114630
H           40.51478760908984       45.52104831827445       45.01856759462205
H           40.64871248226480       45.61404465026763       41.98724696685390
H           38.21978543328989       45.66290514749515       43.82515197824679
H           38.25241448421127       45.50655066082443       42.07097683115764
H           39.24436988911894       43.44484226597529       44.08643815026369
H           40.46092113656074       43.41435472777882       41.87526184925715
H           38.59158333424400       41.08116410755732       42.45374633907432
H           39.44983496514703       41.01769296374088       40.18394155180528
H           41.10763477262410       41.22696855343566       40.73642035606509
H           39.63054796650133       38.90956990329017       41.93131479478647
H           42.37322308243451       39.23400167099195       40.66195263840613
H           42.02662628417541       39.41768516839153       42.38028384943899
H           41.33697569190179       36.83562104361521       40.94324921730313
H           44.04693762725290       37.73136128213235       41.95539833191991
H           43.61313792270364       36.03001179084558       41.87315234626396
H           43.11302303166887       37.72583101187434       39.42780209421903
H           45.32779635386128       39.03906640083454       40.93800269573963
H           47.38131510318716       38.47747473072172       38.82129127907695
H           47.08585249687103       40.15848764170733       39.23813509964270
H           47.41645572160252       39.59918192189681       41.65387218253636
H           49.70095660481840       39.08542042803317       39.72326561588640
H           49.16203349642220       40.65270316705350       40.30942660446113
H           49.99423743165320       38.58618220504274       42.34308064094111
H           51.18982888243044       40.78401759049969       43.20249611567917
H           50.06374322571635       41.60309804525644       42.13446362061213
H           48.48704926195302       39.74564511241039       43.62694830595638
H           50.29792928650922       39.44079890360339       45.20052095018885
H           50.49803890882059       41.18461851721872       45.39695351094947
H           48.17028463027173       41.34659393909841       46.26011621232470
H           48.78351487743351       39.74340629727055       48.37729802463909
H           50.37930544621987       39.87587910231269       47.63395359997115
H           48.59988657773474       42.24750893895042       48.29262600464672
H           49.82574276971592       40.50971715787092       50.15797726565093
H           50.84905093440383       41.93849251078494       50.13444021835328
H           47.85093294349009       42.29608768565055       50.31248059928261
H           50.28367091398878       43.80109844970782       51.32714545482692
H           49.15288316627475       44.28517167963816       50.07978037710512
H           48.55058796120699       43.98468418863565       53.05699785471429
H           48.94672343005350       46.36357815295236       51.21393224431467
H           48.00860732257385       46.51091069123520       52.69304551759812
H           50.82265065773811       45.39322885677905       52.80657699239009
H           49.21919544444135       47.08204882824480       54.76661498455512
H           49.30627699412864       45.31840612283116       54.79208460960650
H           42.11426350551336       43.38640925753760       48.14584636028783
H           43.41966456168238       41.55833329996849       49.15462686683462
H           45.85548610087648       41.42064580214469       48.76471087327273
H           46.97051718413449       43.17208220642600       47.41746829216115
H           45.68670403575455       45.00606239425387       46.46840271508169
H           43.28715965926099       44.41510123566410       42.41125643636907
H           44.44495657594400       44.81440997444826       40.28311773322947
H           44.78180838196017       47.10836555640052       39.46981978392046
H           44.00134102443345       49.02481104534562       40.85914238894304
H           42.90860266913095       48.62473136199166       42.99486679650936
H           39.33659410819457       47.54184423036546       44.96151715037228
H           39.11221816889196       49.97464857421427       44.92878300767011
H           39.65012339661289       51.24832481329658       42.87854250426106
H           40.43515940132997       50.04521784806243       40.86833919381819
H           40.62558177916977       47.59677723950688       40.89609996586911
H           36.78021317844964       43.77357578134502       41.23201981558767
H           34.44495120418059       43.10625144713163       41.44573897520226
H           33.59488193438324       42.20708975431695       43.58878956674388
H           35.12943191676453       42.00062370591564       45.51577981173903
H           37.47644849762673       42.66962864610554       45.29733140314309
H           38.91932258212071       43.14473652814382       41.07235809590557
H           38.87126339516196       40.24378350657034       44.55454471243333
H           40.20815490698937       39.86107947479751       46.57825108905275
H           42.55065874223224       40.65289828419904       46.68403556694687
H           43.54303827551885       41.78493578639052       44.74564523058652
H           42.21298333393449       42.13936015273620       42.70194361027277
H           41.21002702164158       39.74389300136046       38.61348133097386
H           40.56867502214564       38.64343208789988       36.52592464391351
H           38.86415436707022       36.85310335233596       36.53435167337743
H           37.80904542865047       36.18308026742965       38.66346980897384
H           38.44942519683278       37.29645355580153       40.76022765583991
H           39.94375846084530       35.67155081827277       42.34158178229467
H           39.17926017273102       35.01147057198612       44.58366080559409
H           40.29342188379205       35.92272167551165       46.58942638525554
H           42.17737642117906       37.49365992926677       46.33183696366272
H           42.93001434083526       38.15946254159800       44.09232659009712
H           41.72886731195656       36.37256785130157       38.22901143628395
H           41.11655304820501       34.18084178953565       37.31258656900710
H           42.43352660450704       32.17589862642754       37.90924225380424
H           44.35907338149139       32.39171966453158       39.43681009721064
H           44.96007326818319       34.58005318044155       40.36614423862839
H           45.85404803781029       36.73421796069048       40.27968072544782
H           45.42129382952783       37.07411285224891       38.60908864802914
H           44.36962835338260       41.08654443214259       40.72436614074324
H           43.02934028983861       42.70570628569224       39.46032450180162
H           42.50362410179979       42.29237913119052       37.07800757153908
H           43.36265230339626       40.25908224802145       35.98127494289410
H           44.72361833322528       38.65489687536001       37.23200258394583
H           46.89038902868300       37.89849085992851       43.14779369925091
H           46.97814359887429       35.56825320926080       43.85863270653049
H           48.12675788468242       33.87773112899639       42.46236695888985
H           49.18330096543834       34.56606173466164       40.34100714326135
H           49.07788503751084       36.90052245210452       39.61087961198108
H           51.50106139371100       37.13352384773791       41.35067091675461
H           53.66159600090337       36.71361084492258       40.26519531719043
H           55.02803211040008       38.60520478928873       39.45121506279227
H           54.22283356720893       40.91906084081776       39.77639909115256
H           52.06875511657679       41.33597970207952       40.85369397932678
H           49.81511103851147       43.15590328395918       44.49537383610744
H           48.39898620637801       45.16288127057835       44.50682189898927
H           46.03129137505938       45.01381074836178       43.81856991154203
H           45.09531371511327       42.83993922258820       43.14200779309734
H           46.49176956030196       40.82513151265110       43.18261941003386
H           46.06139884501457       40.56627895830509       45.93712260788462
H           44.42289223198483       38.74190278480248       45.83944761679290
H           45.15570210528581       36.39915065048133       46.09318147719128
H           47.56307900761598       35.90326451201219       46.43320376541212
H           49.19544653571284       37.71662865516460       46.49932593940468
H           49.24661872103241       44.17158504362701       47.25323961287681
H           50.96128732284222       45.61813531345808       46.25013328477799
H           53.30251744862976       44.88122713151886       46.15753627957537
H           53.93124819686779       42.67369906915977       47.06562819683187
H           52.22882012684195       41.22429425762171       48.06642502048650
H           50.37552666581913       42.30895475203096       53.10703534050047
H           50.08336960645602       40.90718160496161       55.09153489137654
H           48.27526527647526       39.24040614813161       55.19196994934465
H           46.74907513941965       38.97730777580567       53.25214810081568
H           46.98185865398376       40.44298554480426       51.30916254999887
H           46.38897864847433       43.41990892217746       53.59415972131899
H           43.97765742068199       43.59501088332279       53.23467429355946
H           43.09763845568303       44.74862985770635       51.21791725724318
H           44.67519126132468       45.64544465861336       49.55665292050796
H           47.08367713496113       45.48261553457882       49.91930143658033
H           49.04347104500955       48.72073033375552       52.99775842434410
H           49.95611731942896       50.74589765879882       51.99314959655718
H           52.18968883836406       50.71564062017710       50.93422817979310
H           53.50972548346498       48.61924762085843       50.94194899685823
H           52.57677513104297       46.58441780300020       51.92607593451893
H           53.63007454216285       46.32667767237921       54.29500466051454
H           55.13989670156592       44.43390085709027       53.91254000289829
H           54.43914222775500       42.14207508911522       54.52648275892046
H           52.19529871740229       41.76917961812976       55.46703356982437
H           50.66684877547187       43.65003505488962       55.81270271202320
H           42.59004601596438       47.52381347466584       46.86781539050014
H           42.83030440408520       46.62432767454776       48.37101483146210
H           44.21484813208032       47.02154492615276       47.34300451042114
H           51.66503901221780       47.22848797193965       55.07880529259220
H           50.07089979311992       47.19052921543500       57.01543503871201
H           50.31630338796969       45.45074379427789       57.15623928421412
C           51.69793261345703       46.35506808832726       59.21953203157684
C           52.51268410825169       48.04230779171370       57.55565416064880
C           51.75329726378903       49.11669096888145       58.00389969156588
C           52.16671233676384       50.41570461126063       57.78004147398948
C           53.35780253577229       50.66167244097348       57.12033000695914
C           54.14319038086487       49.60050377045755       56.70437193240173
C           53.71785231167625       48.30027101674725       56.91686284388977
H           50.82652912742544       48.94028943917492       58.53010359641450
H           51.55229796653885       51.24107116282695       58.10561627937460
H           53.65687524377149       51.68267173771643       56.92975271413625
H           55.08811799381647       49.77772977079793       56.20911795569035
H           54.32696352552043       47.47249789205254       56.58034095184068
C           51.77810000578655       44.86564289634961       59.54895149441448
H           52.40992664170284       46.90404888109453       59.84070058058120
H           50.69727647501264       46.73029174921059       59.44540501955187
C           51.19001750958260       44.47447788014301       60.87791551989154
C           50.93341778660317       45.39226932191118       61.88809691146914
C           50.37435353802189       44.98363958243138       63.08841164388708
C           50.09291443401963       43.64895132339525       63.31512561603977
C           50.36211938005003       42.72266592181237       62.32232863158060
C           50.88999336523087       43.13597454857567       61.11355045746448
H           51.16219829530593       46.43677469595038       61.74142904636540
H           50.16313097496933       45.71946455989270       63.85270292029564
H           49.66372095028137       43.32657945881562       64.25269868032825
H           50.15269152982576       41.67653459880797       62.48809909393363
H           51.05937580137547       42.40958456862170       60.33030640757814
H           52.81740747027752       45.94116612672005       57.43003361626324
H           51.26729990330993       44.28953054733898       58.77209105647710
H           52.82856848702941       44.55562782617569       59.52412468758475
C           50.27681046233679       52.16038939863976       54.30601712956877
C           49.12714372545069       52.93549940017174       54.38643449131211
C           48.11818524993089       52.53045083155754       55.25161523353260
C           48.25496708877737       51.37799375419031       56.00316886168013
C           49.39505740861056       50.60161268355217       55.89400570313373
C           50.41213203077866       50.99877626835982       55.04482644436475
C           48.98956615247074       54.17810339091474       53.54243514665426
C           47.81642153105360       54.04176618383491       52.56784229927180
C           48.82306534778930       55.42557040542466       54.41779479088088
C           50.02628087680232       55.65397818086596       55.34119769812329
C           51.27849692140290       55.97367510675159       54.56585138789015
C           51.36066790298189       57.11715760545094       53.77944833125084
C           52.52682166060053       57.43006827552242       53.10773763826867
C           53.63903586257099       56.61425522105223       53.22434054541018
C           53.56996928883709       55.47089128143946       54.00131010153292
C           52.39389348767856       55.15060626000269       54.65813544321426
C           49.71934622550919       56.78143515322768       56.33566118618193
C           50.89313199234056       57.07307942821893       57.27928154170951
C           51.33949370799645       55.82372203504829       57.99489861379453
C           50.44017058441681       55.07052374811494       58.74132853186723
C           50.85334542559592       53.93587366149094       59.41499232207788
C           52.18047471501719       53.54068944418729       59.36847104959058
C           53.08304383481865       54.28048376126668       58.62464572158729
C           52.66391455388220       55.41007449997562       57.94300336133045
C           50.52237415280852       58.17192515797518       58.29922374042143
C           51.24538568835370       59.50250094815501       58.05013206725854
C           51.00699873651889       60.06451829221367       56.67174865160674
C           49.72390345347335       60.18390898363628       56.15021729095446
C           49.51684650415788       60.74461373752824       54.90283225488955
C           50.58183423734329       61.25227351221277       54.17978590237040
C           51.86282299950489       61.15059170015066       54.69207161774012
C           52.07116089413775       60.53925709354075       55.91563777894412
C           50.79487137798242       60.52746402306558       59.10302165525981
C           51.72728606765574       61.74123093118057       59.23466041169971
C           53.08495782636921       61.30593575857486       59.72422599737262
C           53.24953697655357       60.68841564967294       60.95894367478888
C           54.49490493127777       60.26415081076604       61.38506328949286
C           55.59873925683820       60.43671022116764       60.56971560525510
C           55.45152454917930       61.05107401871490       59.33769144849040
C           54.20637504163514       61.49386006568228       58.92803589246485
C           51.08356250664952       62.75628682430200       60.19046093996169
C           51.98483201658102       63.94321924192401       60.54220379108028
C           52.42714547156233       64.69717388829325       59.31132564136558
C           53.75293266274883       65.08123046909705       59.16508801262624
C           54.16439962212711       65.80993594572251       58.06355313880403
C           53.25937356313511       66.15077936637597       57.07473471180703
C           51.93481851537867       65.77145294772630       57.20700733618168
C           51.52326165505733       65.06144329741515       58.31966995662824
C           51.29627237812560       64.94288940457471       61.49771258433416
C           50.50169631536156       64.32566593911862       62.66290472946669
C           49.80947651561284       65.42673366250993       63.43074917023747
C           50.53165415528585       66.36122435632690       64.16420229503406
C           49.88642127618002       67.36285859766110       64.86578469756307
C           48.50465180652571       67.45063278434809       64.84608232849841
C           47.77504220556598       66.53357710062012       64.11118674150822
C           48.42463064654741       65.53358029800700       63.40918688534465
C           51.36465131905574       63.46738293973211       63.59862926098440
C           50.53504816797386       62.57011154060176       64.53511703053611
C           51.38590316767024       62.05739946208757       65.67448575205219
C           50.93329649905801       62.15607142168154       66.98358454421945
C           51.67051121973568       61.63542743866698       68.03227124640652