      -----------------------------------------------------------      
     |                   =====================                   |     
     |                           x T B                           |     
     |                   =====================                   |     
     |                         S. Grimme                         |     
     |          Mulliken Center for Theoretical Chemistry        |     
     |                    University of Bonn                     |     
      -----------------------------------------------------------      

   * xtb version 6.6.1 (8d0f1dd) compiled by 'stahn@M-Bot' on 2023-08-01

   xtb is free software: you can redistribute it and/or modify it under
   the terms of the GNU Lesser General Public License as published by
   the Free Software Foundation, either version 3 of the License, or
   (at your option) any later version.
   
   xtb is distributed in the hope that it will be useful,
   but WITHOUT ANY WARRANTY; without even the implied warranty of
   MERCHANTABILITY or FITNESS FOR A PARTICULAR PURPOSE.  See the
   GNU Lesser General Public License for more details.
   
   Cite this work as:
   * C. Bannwarth, E. Caldeweyher, S. Ehlert, A. Hansen, P. Pracht,
     J. Seibert, S. Spicher, S. Grimme, WIREs Comput. Mol. Sci., 2020, 11,
     e01493. DOI: 10.1002/wcms.1493
   
   for GFN2-xTB:
   * C. Bannwarth, S. Ehlert and S. Grimme., J. Chem. Theory Comput., 2019,
     15, 1652-1671. DOI: 10.1021/acs.jctc.8b01176
   for GFN1-xTB:
   * S. Grimme, C. Bannwarth, P. Shushkov, J. Chem. Theory Comput., 2017,
     13, 1989-2009. DOI: 10.1021/acs.jctc.7b00118
   for GFN0-xTB:
   * P. Pracht, E. Caldeweyher, S. Ehlert, S. Grimme, ChemRxiv, 2019, preprint.
     DOI: 10.26434/chemrxiv.8326202.v1
   for GFN-FF:
   * S. Spicher and S. Grimme, Angew. Chem. Int. Ed., 2020, 59, 15665-15673.
     DOI: 10.1002/anie.202004239
   
   for ALPB and GBSA implicit solvation:
   * S. Ehlert, M. Stahn, S. Spicher, S. Grimme, J. Chem. Theory Comput.,
     2021, 17, 4250-4261. DOI: 10.1021/acs.jctc.1c00471
   
   for DFT-D4:
   * E. Caldeweyher, C. Bannwarth and S. Grimme, J. Chem. Phys., 2017,
     147, 034112. DOI: 10.1063/1.4993215
   * E. Caldeweyher, S. Ehlert, A. Hansen, H. Neugebauer, S. Spicher,
     C. Bannwarth and S. Grimme, J. Chem. Phys., 2019, 150, 154122.
     DOI: 10.1063/1.5090222
   * E. Caldeweyher, J.-M. Mewes, S. Ehlert and S. Grimme, Phys. Chem. Chem. Phys.
     2020, 22, 8499-8512. DOI: 10.1039/D0CP00502A
   
   for sTDA-xTB:
   * S. Grimme and C. Bannwarth, J. Chem. Phys., 2016, 145, 054103.
     DOI: 10.1063/1.4959605
   
   in the mass-spec context:
   * V. Asgeirsson, C. Bauer and S. Grimme, Chem. Sci., 2017, 8, 4879.
     DOI: 10.1039/c7sc00601b
   * J. Koopman and S. Grimme, ACS Omega 2019, 4, 12, 15120-15133.
     DOI: 10.1021/acsomega.9b02011
   
   for metadynamics refer to:
   * S. Grimme, J. Chem. Theory Comput., 2019, 155, 2847-2862
     DOI: 10.1021/acs.jctc.9b00143
   
   for SPH calculations refer to:
   * S. Spicher and S. Grimme, J. Chem. Theory Comput., 2021, 17, 1701-1714
     DOI: 10.1021/acs.jctc.0c01306
   
   with help from (in alphabetical order)
   P. Atkinson, C. Bannwarth, F. Bohle, G. Brandenburg, E. Caldeweyher
   M. Checinski, S. Dohm, S. Ehlert, S. Ehrlich, I. Gerasimov, C. Hölzer
   A. Katbashev, J. Koopman, C. Lavigne, S. Lehtola, F. März, M. Müller,
   F. Musil, H. Neugebauer, J. Pisarek, C. Plett, P. Pracht, F. Pultar,
   J. Seibert, P. Shushkov, S. Spicher, M. Stahn, M. Steiner, T. Strunk,
   J. Stückrath, T. Rose, and J. Unsleber
   
 * started run on 2024/10/04 at 14:12:38.449     

           -------------------------------------------------
          |                Calculation Setup                |
           -------------------------------------------------

          program call               : /home/abt-grimme/AK-bin/xtb input.xyz --input input.inp --opt
          hostname                   : boar061.thch.uni-bonn.de
          coordinate file            : input.xyz
          omp threads                :                     8

   ID    Z sym.   atoms
    1    6 C      1-146, 294-300, 306, 309-314, 323-468, 616-622, 628,
                  631-636, 645-790, 938-944, 950, 953-958, 967-1112,
                  1260-1266, 1272, 1275-1280, 1289-1434, 1582-1588, 1594,
                  1597-1602, 1611-1756, 1904-1910, 1916, 1919-1924,
                  1933-2078, 2226-2232, 2238, 2241-2246, 2255-2400,
                  2548-2554, 2560, 2563-2568, 2577-2722, 2870-2876, 2882,
                  2885-2890, 2899-3044, 3192-3198, 3204, 3207-3212,
                  3221-3366, 3514-3520, 3526, 3529-3534, 3543-3688,
                  3836-3842, 3848, 3851-3856
    2    1 H      147-293, 301-305, 307, 308, 315-322, 469-615, 623-627, 629,
                  630, 637-644, 791-937, 945-949, 951, 952, 959-966,
                  1113-1259, 1267-1271, 1273, 1274, 1281-1288, 1435-1581,
                  1589-1593, 1595, 1596, 1603-1610, 1757-1903, 1911-1915,
                  1917, 1918, 1925-1932, 2079-2225, 2233-2237, 2239, 2240,
                  2247-2254, 2401-2547, 2555-2559, 2561, 2562, 2569-2576,
                  2723-2869, 2877-2881, 2883, 2884, 2891-2898, 3045-3191,
                  3199-3203, 3205, 3206, 3213-3220, 3367-3513, 3521-3525,
                  3527, 3528, 3535-3542, 3689-3835, 3843-3847, 3849, 3850,
                  3857-3864

molecular fragmentation (1/2 indicates fragments):
111111111111111111111111111111111111111111111111111111111111111111111111
111111111111111111111111111111111111111111111111111111111111111111111111
111111111111111111111111111111111111111111111111111111111111111111111111
111111111111111111111111111111111111111111111111111111111111111111111111
111111111111111111111111111111111122222222222222222222222222222222222222
222222222222222222222222222222222222222222222222222222222222222222222222
222222222222222222222222222222222222222222222222222222222222222222222222
222222222222222222222222222222222222222222222222222222222222222222222222
222222222222222222222222222222222222222222222222222222222222222222222222
222222222222222222222222222222222222222222222222222222222222222222222222
222222222222222222222222222222222222222222222222222222222222222222222222
222222222222222222222222222222222222222222222222222222222222222222222222
222222222222222222222222222222222222222222222222222222222222222222222222
222222222222222222222222222222222222222222222222222222222222222222222222
222222222222222222222222222222222222222222222222222222222222222222222222
222222222222222222222222222222222222222222222222222222222222222222222222
222222222222222222222222222222222222222222222222222222222222222222222222
222222222222222222222222222222222222222222222222222222222222222222222222
222222222222222222222222222222222222222222222222222222222222222222222222
222222222222222222222222222222222222222222222222222222222222222222222222
222222222222222222222222222222222222222222222222222222222222222222222222
222222222222222222222222222222222222222222222222222222222222222222222222
222222222222222222222222222222222222222222222222222222222222222222222222
222222222222222222222222222222222222222222222222222222222222222222222222
222222222222222222222222222222222222222222222222222222222222222222222222
222222222222222222222222222222222222222222222222222222222222222222222222
222222222222222222222222222222222222222222222222222222222222222222222222
222222222222222222222222222222222222222222222222222222222222222222222222
222222222222222222222222222222222222222222222222222222222222222222222222
222222222222222222222222222222222222222222222222222222222222222222222222
222222222222222222222222222222222222222222222222222222222222222222222222
222222222222222222222222222222222222222222222222222222222222222222222222
222222222222222222222222222222222222222222222222222222222222222222222222
222222222222222222222222222222222222222222222222222222222222222222222222
222222222222222222222222222222222222222222222222222222222222222222222222
222222222222222222222222222222222222222222222222222222222222222222222222
222222222222222222222222222222222222222222222222222222222222222222222222
222222222222222222222222222222222222222222222222222222222222222222222222
222222222222222222222222222222222222222222222222222222222222222222222222
222222222222222222222222222222222222222222222222222222222222222222222222
222222222222222222222222222222222222222222222222222222222222222222222222
222222222222222222222222222222222222222222222222222222222222222222222222
222222222222222222222222222222222222222222222222222222222222222222222222
222222222222222222222222222222222222222222222222222222222222222222222222
222222222222222222222222222222222222222222222222222222222222222222222222
222222222222222222222222222222222222222222222222222222222222222222222222
222222222222222222222222222222222222222222222222222222222222222222222222
222222222222222222222222222222222222222222222222222222222222222222222222
222222222222222222222222222222222222222222222222222222222222222222222222
222222222222222222222222222222222222222222222222222222222222222222222222
222222222222222222222222222222222222222222222222222222222222222222222222
222222222222222222222222222222222222222222222222222222222222222222222222
222222222222222222222222222222222222222222222222222222222222222222222222
222222222222222222222222222222222222222222222222
# atoms in fragment 1/2:   322  3542
 fragment masses (1/2) :     2085.00    22935.05
CMA distance (Bohr)    :  20.973
constraining FC (au)   :  0.0500

           -------------------------------------------------
          |                 G F N 2 - x T B                 |
           -------------------------------------------------

        Reference                      10.1021/acs.jctc.8b01176
      * Hamiltonian:
        H0-scaling (s, p, d)           1.850000    2.230000    2.230000
        zeta-weighting                 0.500000
      * Dispersion:
        s8                             2.700000
        a1                             0.520000
        a2                             5.000000
        s9                             5.000000
      * Repulsion:
        kExp                           1.500000    1.000000
        rExp                           1.000000
      * Coulomb:
        alpha                          2.000000
        third order                    shell-resolved
        anisotropic                    true
        a3                             3.000000
        a5                             4.000000
        cn-shift                       1.200000
        cn-exp                         4.000000
        max-rad                        5.000000


          ...................................................
          :                      SETUP                      :
          :.................................................:
          :  # basis functions                9624          :
          :  # atomic orbitals                9624          :
          :  # shells                         5784          :
          :  # electrons                      9624          :
          :  max. iterations                   250          :
          :  Hamiltonian                  GFN2-xTB          :
          :  restarted?                      false          :
          :  GBSA solvation                  false          :
          :  PC potential                    false          :
          :  electronic temp.          300.0000000     K    :
          :  accuracy                    1.0000000          :
          :  -> integral cutoff          0.2500000E+02      :
          :  -> integral neglect         0.1000000E-07      :
          :  -> SCF convergence          0.1000000E-05 Eh   :
          :  -> wf. convergence          0.1000000E-03 e    :
          :  Broyden damping             0.4000000          :
          ...................................................

 iter      E             dE          RMSdq      gap      omega  full diag
   1  -5195.7112184 -0.519571E+04  0.368E+00    4.32       0.0  T
   2  -5198.2706051 -0.255939E+01  0.217E+00    4.32       1.0  T
   3  -5198.1994663  0.711388E-01  0.494E-01    4.13       1.0  T
   4  -5198.4042660 -0.204800E+00  0.241E-01    4.07       1.0  T
   5  -5198.5561704 -0.151904E+00  0.460E-02    4.12       1.0  T
   6  -5198.5581904 -0.201995E-02  0.284E-02    4.11       1.0  T
   7  -5198.5593880 -0.119766E-02  0.110E-02    4.12       1.0  T
   8  -5198.5596876 -0.299601E-03  0.286E-03    4.12       1.0  T
   9  -5198.5597044 -0.167968E-04  0.122E-03    4.12       1.3  T
  10  -5198.5597059 -0.145017E-05  0.519E-04    4.12       3.1  T
  11  -5198.5597061 -0.197027E-06  0.275E-04    4.12       5.8  T
  12  -5198.5597062 -0.170831E-06  0.981E-05    4.12      16.4  T

   *** convergence criteria satisfied after 12 iterations ***

         #    Occupation            Energy/Eh            Energy/eV
      -------------------------------------------------------------
         1        2.0000           -0.6510402             -17.7157
       ...           ...                  ...                  ...
      4806        2.0000           -0.3821325             -10.3984
      4807        2.0000           -0.3818375             -10.3903
      4808        2.0000           -0.3817653             -10.3884
      4809        2.0000           -0.3817559             -10.3881
      4810        2.0000           -0.3812679             -10.3748
      4811        2.0000           -0.3812094             -10.3732
      4812        2.0000           -0.3797221             -10.3328 (HOMO)
      4813                         -0.2283104              -6.2126 (LUMO)
      4814                         -0.2265916              -6.1659
      4815                         -0.2263552              -6.1594
      4816                         -0.2263423              -6.1591
      4817                         -0.2262831              -6.1575
       ...                                ...                  ...
      9624                          0.6817484              18.5513
      -------------------------------------------------------------
                  HL-Gap            0.1514117 Eh            4.1201 eV
             Fermi-level           -0.3040163 Eh           -8.2727 eV

 SCC (total)                   0 d,  0 h, 48 min,  1.143 sec
 SCC setup                      ...        0 min,  0.710 sec (  0.025%)
 Dispersion                     ...        0 min,  6.894 sec (  0.239%)
 classical contributions        ...        0 min,  0.152 sec (  0.005%)
 integral evaluation            ...        0 min, 11.603 sec (  0.403%)
 iterations                     ...       42 min, 10.780 sec ( 87.839%)
 molecular gradient             ...        5 min,  4.338 sec ( 10.563%)
 printout                       ...        0 min, 26.666 sec (  0.926%)

         :::::::::::::::::::::::::::::::::::::::::::::::::::::
         ::                     SUMMARY                     ::
         :::::::::::::::::::::::::::::::::::::::::::::::::::::
         :: total energy           -5104.056015076299 Eh    ::
         :: gradient norm              0.021840232068 Eh/a0 ::
         :: HOMO-LUMO gap              4.120121935179 eV    ::
         ::.................................................::
         :: SCC energy             -5198.559706245709 Eh    ::
         :: -> isotropic ES            0.265897512994 Eh    ::
         :: -> anisotropic ES          0.779219117547 Eh    ::
         :: -> anisotropic XC          3.253024295730 Eh    ::
         :: -> dispersion             -7.020587366222 Eh    ::
         :: repulsion energy          93.362762650316 Eh    ::
         :: add. restraining           0.000000000000 Eh    ::
         :: total charge              -0.000000000029 e     ::
         :::::::::::::::::::::::::::::::::::::::::::::::::::::

      ----------------------------------------------------------- 
     |              Fast Inertial Relaxation Engine              |
      ----------------------------------------------------------- 

          ...................................................
          :                      SETUP                      :
          :.................................................:
          :   energy convergence        0.5000000E-05 Eh    :
          :   grad. convergence         0.1000000E-02 Eh/a0 :
          :   optimization log               true           :
          :   writing optlog all                1     steps :
          :   Hessian reset                    20     steps :
          :   time step scaling                 5     steps :
          :   maximium step len.        1.0000000     a0    :
          :   initial time step         0.2500000     fs    :
          :   maximum time step         1.2500000     fs    :
          :   power reset thr           0.0000000     au    :
          :   alpha parameter           0.1000000           :
          :   BFGS update                   false           :
          :   preconditioning               false           :
          ...................................................

........................................................................
.............................. CYCLE    1 ..............................
........................................................................

 iter      E             dE          RMSdq      gap      omega  full diag
   1  -5198.5609117 -0.519856E+04  0.304E-04    4.12       0.0  T
   2  -5198.5609117 -0.145246E-07  0.187E-04    4.12       8.6  T
   3  -5198.5609117  0.289765E-07  0.830E-05    4.12      19.4  T
     SCC iter.                  ...       10 min, 35.672 sec
     gradient                   ...        5 min,  5.158 sec
 * total energy  : -5104.0560692 Eh     change    :  -0.5410073E-04 Eh
   gradient norm :     0.0204509 Eh/a0  converged?    E=F G=F D=F
   time step     :     0.2500000 fs     power     :   0.2776078E-08
   step length   :     0.0025596 a0     speed     :   0.2476578E-03

........................................................................
.............................. CYCLE    2 ..............................
........................................................................

 iter      E             dE          RMSdq      gap      omega  full diag
   1  -5198.5626976 -0.519856E+04  0.446E-04    4.12       0.0  T
   2  -5198.5626976 -0.279178E-07  0.273E-04    4.12       5.9  T
   3  -5198.5626976  0.396149E-07  0.995E-05    4.12      16.2  T
     SCC iter.                  ...       10 min, 37.771 sec
     gradient                   ...        5 min,  5.689 sec
 * total energy  : -5104.0561421 Eh     change    :  -0.7295390E-04 Eh
   gradient norm :     0.0184911 Eh/a0  converged?    E=F G=F D=F
   time step     :     0.2500000 fs     power     :   0.3671213E-08
   step length   :     0.0037573 a0     speed     :   0.3635356E-03

........................................................................
.............................. CYCLE    3 ..............................
........................................................................

 iter      E             dE          RMSdq      gap      omega  full diag
   1  -5198.5650469 -0.519857E+04  0.573E-04    4.12       0.0  T
   2  -5198.5650470 -0.431100E-07  0.351E-04    4.12       4.6  T
   3  -5198.5650469  0.598957E-07  0.120E-04    4.12      13.4  T
     SCC iter.                  ...       10 min, 35.567 sec
     gradient                   ...        5 min,  2.916 sec
 * total energy  : -5104.0562252 Eh     change    :  -0.8311416E-04 Eh
   gradient norm :     0.0161578 Eh/a0  converged?    E=F G=F D=F
   time step     :     0.2500000 fs     power     :   0.4086382E-08
   step length   :     0.0048363 a0     speed     :   0.4679359E-03

........................................................................
.............................. CYCLE    4 ..............................
........................................................................

 iter      E             dE          RMSdq      gap      omega  full diag
   1  -5198.5679422 -0.519857E+04  0.683E-04    4.12       0.0  T
   2  -5198.5679423 -0.570180E-07  0.419E-04    4.12       3.8  T
   3  -5198.5679422  0.905766E-07  0.142E-04    4.12      11.3  T
     SCC iter.                  ...       10 min, 32.803 sec
     gradient                   ...        5 min,  3.785 sec
 * total energy  : -5104.0563094 Eh     change    :  -0.8412171E-04 Eh
   gradient norm :     0.0137176 Eh/a0  converged?    E=F G=F D=F
   time step     :     0.2500000 fs     power     :   0.4027549E-08
   step length   :     0.0057672 a0     speed     :   0.5580043E-03

........................................................................
.............................. CYCLE    5 ..............................
........................................................................

 iter      E             dE          RMSdq      gap      omega  full diag
   1  -5198.5713629 -0.519857E+04  0.771E-04    4.12       0.0  T
   2  -5198.5713630 -0.670634E-07  0.475E-04    4.12       3.4  T
   3  -5198.5713628  0.133526E-06  0.165E-04    4.12       9.7  T
     SCC iter.                  ...       10 min, 36.411 sec
     gradient                   ...        5 min,  4.967 sec
 * total energy  : -5104.0563866 Eh     change    :  -0.7724784E-04 Eh
   gradient norm :     0.0115058 Eh/a0  converged?    E=F G=F D=F
   time step     :     0.2500000 fs     power     :   0.3588612E-08
   step length   :     0.0065263 a0     speed     :   0.6314547E-03

........................................................................
.............................. CYCLE    6 ..............................
........................................................................

 iter      E             dE          RMSdq      gap      omega  full diag
   1  -5198.5757125 -0.519858E+04  0.925E-04    4.12       0.0  T
   2  -5198.5757126 -0.889477E-07  0.575E-04    4.12       2.8  T
   3  -5198.5757123  0.256015E-06  0.219E-04    4.12       7.3  T
     SCC iter.                  ...       10 min, 34.739 sec
     gradient                   ...        5 min,  4.627 sec
 * total energy  : -5104.0564582 Eh     change    :  -0.7154144E-04 Eh
   gradient norm :     0.0097317 Eh/a0  converged?    E=F G=F D=F
   time step     :     0.2750000 fs     power     :   0.2846971E-08
   step length   :     0.0078703 a0     speed     :   0.6922675E-03

........................................................................
.............................. CYCLE    7 ..............................
........................................................................

 iter      E             dE          RMSdq      gap      omega  full diag
   1  -5198.5810822 -0.519858E+04  0.107E-03    4.12       0.0  T
   2  -5198.5810823 -0.107500E-06  0.672E-04    4.12       2.4  T
   3  -5198.5810818  0.447325E-06  0.282E-04    4.12       5.7  T
     SCC iter.                  ...       10 min, 35.954 sec
     gradient                   ...        5 min,  5.143 sec
 * total energy  : -5104.0565178 Eh     change    :  -0.5961910E-04 Eh
   gradient norm :     0.0087986 Eh/a0  converged?    E=F G=F D=F
   time step     :     0.3025000 fs     power     :   0.1976192E-08
   step length   :     0.0091674 a0     speed     :   0.7330521E-03

........................................................................
.............................. CYCLE    8 ..............................
........................................................................

 iter      E             dE          RMSdq      gap      omega  full diag
   1  -5198.5874106 -0.519859E+04  0.119E-03    4.12       0.0  T
   2  -5198.5874107 -0.122995E-06  0.754E-04    4.12       2.1  T
   3  -5198.5874100  0.671845E-06  0.345E-04    4.12       4.7  T
     SCC iter.                  ...       10 min, 35.684 sec
     gradient                   ...        5 min,  4.356 sec
 * total energy  : -5104.0565630 Eh     change    :  -0.4523409E-04 Eh
   gradient norm :     0.0085460 Eh/a0  converged?    E=F G=F D=F
   time step     :     0.3327500 fs     power     :   0.1191782E-08
   step length   :     0.0102797 a0     speed     :   0.7472695E-03

........................................................................
.............................. CYCLE    9 ..............................
........................................................................

 iter      E             dE          RMSdq      gap      omega  full diag
   1  -5198.5944154 -0.519859E+04  0.127E-03    4.12       0.0  T
   2  -5198.5944156 -0.141607E-06  0.810E-04    4.12       2.0  T
   3  -5198.5944148  0.799179E-06  0.386E-04    4.12       4.2  T
     SCC iter.                  ...       10 min, 36.422 sec
     gradient                   ...        5 min,  5.099 sec
 * total energy  : -5104.0565948 Eh     change    :  -0.3177382E-04 Eh
   gradient norm :     0.0083737 Eh/a0  converged?    E=F G=F D=F
   time step     :     0.3660250 fs     power     :   0.5923679E-09
   step length   :     0.0111376 a0     speed     :   0.7360280E-03

........................................................................
.............................. CYCLE   10 ..............................
........................................................................

 iter      E             dE          RMSdq      gap      omega  full diag
   1  -5198.6015973 -0.519860E+04  0.132E-03    4.12       0.0  T
   2  -5198.6015975 -0.161976E-06  0.834E-04    4.12       1.9  T
   3  -5198.6015967  0.772337E-06  0.396E-04    4.12       4.1  T
     SCC iter.                  ...       10 min, 35.615 sec
     gradient                   ...        5 min,  4.512 sec
 * total energy  : -5104.0566148 Eh     change    :  -0.2001702E-04 Eh
   gradient norm :     0.0080773 Eh/a0  converged?    E=F G=F D=F
   time step     :     0.4026275 fs     power     :   0.1247416E-09
   step length   :     0.0117537 a0     speed     :   0.7061333E-03

........................................................................
.............................. CYCLE   11 ..............................
........................................................................

 iter      E             dE          RMSdq      gap      omega  full diag
   1  -5198.6082364 -0.519861E+04  0.133E-03    4.12       0.0  T
   2  -5198.6082366 -0.168982E-06  0.821E-04    4.12       2.0  T
   3  -5198.6082360  0.604830E-06  0.364E-04    4.12       4.4  T
     SCC iter.                  ...       10 min, 35.884 sec
     gradient                   ...        5 min,  3.998 sec
 * total energy  : -5104.0566235 Eh     change    :  -0.8675850E-05 Eh
   gradient norm :     0.0081182 Eh/a0  converged?    E=F G=F D=F
   time step     :     0.4428903 fs     power     :  -0.2481757E-09
   step length   :     0.0121154 a0     speed     :   0.6616943E-03

........................................................................
.............................. CYCLE   12 ..............................
........................................................................
 * reset velocities

 iter      E             dE          RMSdq      gap      omega  full diag
   1  -5198.6080693 -0.519861E+04  0.594E-05    4.12       0.0  T
   2  -5198.6080693 -0.513410E-08  0.527E-05    4.12      30.5  T
   3  -5198.6080693 -0.116033E-07  0.190E-05    4.12      84.7  T
     SCC iter.                  ...       10 min, 36.414 sec
     gradient                   ...        5 min,  2.220 sec
 * total energy  : -5104.0566272 Eh     change    :  -0.3741729E-05 Eh
   gradient norm :     0.0079763 Eh/a0  converged?    E=T G=F D=T
   time step     :     0.2214451 fs     power     :   0.1783809E-09
   step length   :     0.0003733 a0     speed     :   0.4077085E-04

........................................................................
.............................. CYCLE   13 ..............................
........................................................................

 iter      E             dE          RMSdq      gap      omega  full diag
   1  -5198.6077264 -0.519861E+04  0.726E-05    4.12       0.0  T
   2  -5198.6077264 -0.119871E-08  0.507E-05    4.12      31.8  T
   3  -5198.6077264  0.220280E-08  0.221E-05    4.12      72.7  T
     SCC iter.                  ...       10 min, 36.512 sec
     gradient                   ...        5 min,  3.858 sec
 * total energy  : -5104.0566330 Eh     change    :  -0.5769204E-05 Eh
   gradient norm :     0.0076557 Eh/a0  converged?    E=F G=F D=T
   time step     :     0.2214451 fs     power     :   0.3393352E-09
   step length   :     0.0007400 a0     speed     :   0.8082721E-04

........................................................................
.............................. CYCLE   14 ..............................
........................................................................

 iter      E             dE          RMSdq      gap      omega  full diag
   1  -5198.6072117 -0.519861E+04  0.104E-04    4.12       0.0  T
   2  -5198.6072117 -0.239015E-08  0.733E-05    4.12      22.0  T
   3  -5198.6072117  0.419914E-08  0.319E-05    4.12      50.5  T
     SCC iter.                  ...       10 min, 36.467 sec
     gradient                   ...        5 min,  4.413 sec
 * total energy  : -5104.0566411 Eh     change    :  -0.8113112E-05 Eh
   gradient norm :     0.0071913 Eh/a0  converged?    E=F G=F D=F
   time step     :     0.2214451 fs     power     :   0.4699016E-09
   step length   :     0.0010919 a0     speed     :   0.1192654E-03

........................................................................
.............................. CYCLE   15 ..............................
........................................................................

 iter      E             dE          RMSdq      gap      omega  full diag
   1  -5198.6065309 -0.519861E+04  0.135E-04    4.12       0.0  T
   2  -5198.6065309 -0.410637E-08  0.950E-05    4.12      16.9  T
   3  -5198.6065309  0.730233E-08  0.410E-05    4.12      39.3  T
     SCC iter.                  ...       10 min, 39.290 sec
     gradient                   ...        5 min,  3.889 sec
 * total energy  : -5104.0566509 Eh     change    :  -0.9781487E-05 Eh
   gradient norm :     0.0066051 Eh/a0  converged?    E=F G=F D=F
   time step     :     0.2214451 fs     power     :   0.5607956E-09
   step length   :     0.0014221 a0     speed     :   0.1553389E-03

........................................................................
.............................. CYCLE   16 ..............................
........................................................................

 iter      E             dE          RMSdq      gap      omega  full diag
   1  -5198.6056919 -0.519861E+04  0.163E-04    4.12       0.0  T
   2  -5198.6056919 -0.576438E-08  0.114E-04    4.12      14.1  T
   3  -5198.6056919  0.111904E-07  0.492E-05    4.12      32.7  T
     SCC iter.                  ...       10 min, 32.121 sec
     gradient                   ...        5 min,  3.383 sec
 * total energy  : -5104.0566616 Eh     change    :  -0.1072736E-04 Eh
   gradient norm :     0.0059270 Eh/a0  converged?    E=F G=F D=F
   time step     :     0.2214451 fs     power     :   0.6069487E-09
   step length   :     0.0017246 a0     speed     :   0.1883784E-03

........................................................................
.............................. CYCLE   17 ..............................
........................................................................

 iter      E             dE          RMSdq      gap      omega  full diag
   1  -5198.6047037 -0.519860E+04  0.187E-04    4.12       0.0  T
   2  -5198.6047038 -0.734326E-08  0.131E-04    4.12      12.3  T
   3  -5198.6047037  0.153605E-07  0.565E-05    4.12      28.5  T
     SCC iter.                  ...       10 min, 37.485 sec
     gradient                   ...        5 min,  2.803 sec
 * total energy  : -5104.0566725 Eh     change    :  -0.1091934E-04 Eh
   gradient norm :     0.0051973 Eh/a0  converged?    E=F G=F D=F
   time step     :     0.2214451 fs     power     :   0.6081237E-09
   step length   :     0.0019939 a0     speed     :   0.2178021E-03

........................................................................
.............................. CYCLE   18 ..............................
........................................................................

 iter      E             dE          RMSdq      gap      omega  full diag
   1  -5198.6034508 -0.519860E+04  0.228E-04    4.12       0.0  T
   2  -5198.6034508 -0.105847E-07  0.161E-04    4.12      10.0  T
   3  -5198.6034508  0.243435E-07  0.699E-05    4.12      23.0  T
     SCC iter.                  ...       10 min, 36.215 sec
     gradient                   ...        5 min,  3.590 sec
 * total energy  : -5104.0566840 Eh     change    :  -0.1143619E-04 Eh
   gradient norm :     0.0043939 Eh/a0  converged?    E=F G=F D=F
   time step     :     0.2435896 fs     power     :   0.5627268E-09
   step length   :     0.0024741 a0     speed     :   0.2456811E-03

........................................................................
.............................. CYCLE   19 ..............................
........................................................................

 iter      E             dE          RMSdq      gap      omega  full diag
   1  -5198.6018953 -0.519860E+04  0.271E-04    4.12       0.0  T
   2  -5198.6018953 -0.142500E-07  0.192E-04    4.12       8.4  T
   3  -5198.6018953  0.369437E-07  0.837E-05    4.12      19.2  T
     SCC iter.                  ...       10 min, 38.063 sec
     gradient                   ...        5 min,  3.987 sec
 * total energy  : -5104.0566950 Eh     change    :  -0.1103871E-04 Eh
   gradient norm :     0.0036187 Eh/a0  converged?    E=F G=F D=F
   time step     :     0.2679486 fs     power     :   0.4698525E-09
   step length   :     0.0029943 a0     speed     :   0.2703111E-03

........................................................................
.............................. CYCLE   20 ..............................
........................................................................

 iter      E             dE          RMSdq      gap      omega  full diag
   1  -5198.6000137 -0.519860E+04  0.309E-04    4.12       0.0  T
   2  -5198.6000137 -0.168839E-07  0.219E-04    4.12       7.3  T
   3  -5198.6000136  0.532636E-07  0.969E-05    4.12      16.6  T
     SCC iter.                  ...       10 min, 35.306 sec
     gradient                   ...        5 min,  3.513 sec
 * total energy  : -5104.0567046 Eh     change    :  -0.9571498E-05 Eh
   gradient norm :     0.0030712 Eh/a0  converged?    E=F G=F D=F
   time step     :     0.2947435 fs     power     :   0.3421782E-09
   step length   :     0.0035243 a0     speed     :   0.2892335E-03
 * RMSD in coord.:     0.0011929 a0     energy gain  -0.6894983E-03 Eh

........................................................................
.............................. CYCLE   21 ..............................
........................................................................

 iter      E             dE          RMSdq      gap      omega  full diag
   1  -5198.5983533 -0.519860E+04  0.259E-04    4.12       0.0  T
   2  -5198.5983533 -0.997443E-08  0.181E-04    4.12       8.9  T
   3  -5198.5983533  0.400169E-07  0.806E-05    4.12      20.0  T
     SCC iter.                  ...       10 min, 34.712 sec
     gradient                   ...        5 min,  2.746 sec
 * total energy  : -5104.0567105 Eh     change    :  -0.5938731E-05 Eh
   gradient norm :     0.0029411 Eh/a0  converged?    E=F G=F D=F
   time step     :     0.2500000 fs     power     :   0.2468132E-09
   step length   :     0.0030458 a0     speed     :   0.2946995E-03

........................................................................
.............................. CYCLE   22 ..............................
........................................................................

 iter      E             dE          RMSdq      gap      omega  full diag
   1  -5198.5967044 -0.519860E+04  0.244E-04    4.12       0.0  T
   2  -5198.5967044 -0.746513E-08  0.169E-04    4.12       9.5  T
   3  -5198.5967043  0.384653E-07  0.775E-05    4.12      20.8  T
     SCC iter.                  ...       10 min, 36.212 sec
     gradient                   ...        5 min,  2.177 sec
 * total energy  : -5104.0567150 Eh     change    :  -0.4505471E-05 Eh
   gradient norm :     0.0030296 Eh/a0  converged?    E=T G=F D=F
   time step     :     0.2500000 fs     power     :   0.1839989E-09
   step length   :     0.0030165 a0     speed     :   0.2918601E-03

........................................................................
.............................. CYCLE   23 ..............................
........................................................................

 iter      E             dE          RMSdq      gap      omega  full diag
   1  -5198.5951418 -0.519860E+04  0.226E-04    4.12       0.0  T
   2  -5198.5951418 -0.501495E-08  0.153E-04    4.12      10.5  T
   3  -5198.5951418  0.308482E-07  0.694E-05    4.12      23.2  T
     SCC iter.                  ...       10 min, 34.862 sec
     gradient                   ...        5 min,  5.053 sec
 * total energy  : -5104.0567188 Eh     change    :  -0.3757281E-05 Eh
   gradient norm :     0.0031904 Eh/a0  converged?    E=T G=F D=F
   time step     :     0.2500000 fs     power     :   0.1582927E-09
   step length   :     0.0029303 a0     speed     :   0.2835249E-03

........................................................................
.............................. CYCLE   24 ..............................
........................................................................

 iter      E             dE          RMSdq      gap      omega  full diag
   1  -5198.5937234 -0.519859E+04  0.211E-04    4.12       0.0  T
   2  -5198.5937234 -0.309683E-08  0.137E-04    4.12      11.7  T
   3  -5198.5937234  0.181681E-07  0.546E-05    4.12      29.5  T
     SCC iter.                  ...       10 min, 36.482 sec
     gradient                   ...        5 min,  4.001 sec
 * total energy  : -5104.0567224 Eh     change    :  -0.3638801E-05 Eh
   gradient norm :     0.0033212 Eh/a0  converged?    E=T G=F D=F
   time step     :     0.2500000 fs     power     :   0.1628201E-09
   step length   :     0.0028272 a0     speed     :   0.2735513E-03

........................................................................
.............................. CYCLE   25 ..............................
........................................................................

 iter      E             dE          RMSdq      gap      omega  full diag
   1  -5198.5924866 -0.519859E+04  0.201E-04    4.12       0.0  T
   2  -5198.5924866 -0.212458E-08  0.124E-04    4.12      12.9  T
   3  -5198.5924866  0.567252E-08  0.328E-05    4.12      49.0  T
     SCC iter.                  ...       10 min, 37.293 sec
     gradient                   ...        5 min,  5.785 sec
 * total energy  : -5104.0567263 Eh     change    :  -0.3889046E-05 Eh
   gradient norm :     0.0033761 Eh/a0  converged?    E=T G=F D=F
   time step     :     0.2500000 fs     power     :   0.1858514E-09
   step length   :     0.0027379 a0     speed     :   0.2649056E-03

........................................................................
.............................. CYCLE   26 ..............................
........................................................................

 iter      E             dE          RMSdq      gap      omega  full diag
   1  -5198.5913527 -0.519859E+04  0.218E-04    4.12       0.0  T
   2  -5198.5913527 -0.201635E-08  0.130E-04    4.12      12.4  T
   3  -5198.5913527  0.137152E-08  0.222E-05    4.12      72.5  T
     SCC iter.                  ...       10 min, 35.099 sec
     gradient                   ...        5 min,  4.379 sec
 * total energy  : -5104.0567312 Eh     change    :  -0.4901134E-05 Eh
   gradient norm :     0.0033374 Eh/a0  converged?    E=T G=F D=F
   time step     :     0.2750000 fs     power     :   0.2157137E-09
   step length   :     0.0029579 a0     speed     :   0.2601741E-03

........................................................................
.............................. CYCLE   27 ..............................
........................................................................

 iter      E             dE          RMSdq      gap      omega  full diag
   1  -5198.5903753 -0.519859E+04  0.241E-04    4.12       0.0  T
   2  -5198.5903753 -0.236469E-08  0.142E-04    4.12      11.3  T
   3  -5198.5903753  0.324508E-08  0.294E-05    4.12      54.7  T
     SCC iter.                  ...       10 min, 33.634 sec
     gradient                   ...        5 min,  4.961 sec
 * total energy  : -5104.0567372 Eh     change    :  -0.6026763E-05 Eh
   gradient norm :     0.0031974 Eh/a0  converged?    E=F G=F D=F
   time step     :     0.3025000 fs     power     :   0.2430691E-09
   step length   :     0.0032527 a0     speed     :   0.2600928E-03

........................................................................
.............................. CYCLE   28 ..............................
........................................................................

 iter      E             dE          RMSdq      gap      omega  full diag
   1  -5198.5896126 -0.519859E+04  0.275E-04    4.12       0.0  T
   2  -5198.5896126 -0.311866E-08  0.162E-04    4.12       9.9  T
   3  -5198.5896126  0.113141E-07  0.499E-05    4.12      32.3  T
     SCC iter.                  ...       10 min, 36.908 sec
     gradient                   ...        5 min,  4.081 sec
 * total energy  : -5104.0567443 Eh     change    :  -0.7062795E-05 Eh
   gradient norm :     0.0029693 Eh/a0  converged?    E=F G=F D=F
   time step     :     0.3327500 fs     power     :   0.2597885E-09
   step length   :     0.0036371 a0     speed     :   0.2643949E-03

........................................................................
.............................. CYCLE   29 ..............................
........................................................................

 iter      E             dE          RMSdq      gap      omega  full diag
   1  -5198.5891264 -0.519859E+04  0.315E-04    4.12       0.0  T
   2  -5198.5891264 -0.472937E-08  0.189E-04    4.12       8.5  T
   3  -5198.5891264  0.291429E-07  0.767E-05    4.12      21.0  T
     SCC iter.                  ...       10 min, 38.687 sec
     gradient                   ...        5 min,  5.197 sec
 * total energy  : -5104.0567522 Eh     change    :  -0.7906059E-05 Eh
   gradient norm :     0.0026900 Eh/a0  converged?    E=F G=F D=F
   time step     :     0.3660250 fs     power     :   0.2602218E-09
   step length   :     0.0041168 a0     speed     :   0.2720585E-03

........................................................................
.............................. CYCLE   30 ..............................
........................................................................

 iter      E             dE          RMSdq      gap      omega  full diag
   1  -5198.5889756 -0.519859E+04  0.358E-04    4.12       0.0  T
   2  -5198.5889756 -0.675482E-08  0.218E-04    4.12       7.4  T
   3  -5198.5889755  0.503978E-07  0.998E-05    4.12      16.1  T
     SCC iter.                  ...       10 min, 35.564 sec
     gradient                   ...        5 min,  3.835 sec
 * total energy  : -5104.0567606 Eh     change    :  -0.8354481E-05 Eh
   gradient norm :     0.0024236 Eh/a0  converged?    E=F G=F D=F
   time step     :     0.4026275 fs     power     :   0.2433835E-09
   step length   :     0.0046847 a0     speed     :   0.2814451E-03

........................................................................
.............................. CYCLE   31 ..............................
........................................................................

 iter      E             dE          RMSdq      gap      omega  full diag
   1  -5198.5891998 -0.519859E+04  0.396E-04    4.12       0.0  T
   2  -5198.5891998 -0.811360E-08  0.243E-04    4.12       6.6  T
   3  -5198.5891997  0.671425E-07  0.114E-04    4.12      14.2  T
     SCC iter.                  ...       10 min, 37.288 sec
     gradient                   ...        5 min,  3.403 sec
 * total energy  : -5104.0567689 Eh     change    :  -0.8357389E-05 Eh
   gradient norm :     0.0022436 Eh/a0  converged?    E=F G=F D=F
   time step     :     0.4428903 fs     power     :   0.2147562E-09
   step length   :     0.0053195 a0     speed     :   0.2905273E-03

........................................................................
.............................. CYCLE   32 ..............................
........................................................................

 iter      E             dE          RMSdq      gap      omega  full diag
   1  -5198.5897952 -0.519859E+04  0.423E-04    4.12       0.0  T
   2  -5198.5897952 -0.857381E-08  0.258E-04    4.12       6.2  T
   3  -5198.5897952  0.679320E-07  0.113E-04    4.12      14.3  T
     SCC iter.                  ...       10 min, 38.529 sec
     gradient                   ...        5 min,  4.480 sec
 * total energy  : -5104.0567770 Eh     change    :  -0.8134039E-05 Eh
   gradient norm :     0.0021830 Eh/a0  converged?    E=F G=F D=F
   time step     :     0.4871793 fs     power     :   0.1850663E-09
   step length   :     0.0059904 a0     speed     :   0.2974267E-03

........................................................................
.............................. CYCLE   33 ..............................
........................................................................

 iter      E             dE          RMSdq      gap      omega  full diag
   1  -5198.5906977 -0.519859E+04  0.432E-04    4.12       0.0  T
   2  -5198.5906978 -0.848831E-08  0.260E-04    4.12       6.2  T
   3  -5198.5906977  0.430900E-07  0.900E-05    4.12      17.9  T
     SCC iter.                  ...       10 min, 35.420 sec
     gradient                   ...        5 min,  2.628 sec
 * total energy  : -5104.0567851 Eh     change    :  -0.8060670E-05 Eh
   gradient norm :     0.0022185 Eh/a0  converged?    E=F G=F D=F
   time step     :     0.5358972 fs     power     :   0.1652342E-09
   step length   :     0.0066792 a0     speed     :   0.3014790E-03

........................................................................
.............................. CYCLE   34 ..............................
........................................................................

 iter      E             dE          RMSdq      gap      omega  full diag
   1  -5198.5917894 -0.519859E+04  0.425E-04    4.12       0.0  T
   2  -5198.5917894 -0.826822E-08  0.253E-04    4.12       6.3  T
   3  -5198.5917894  0.945602E-08  0.496E-05    4.12      32.5  T
     SCC iter.                  ...       10 min, 38.657 sec
     gradient                   ...        5 min,  7.929 sec
 * total energy  : -5104.0567936 Eh     change    :  -0.8532893E-05 Eh
   gradient norm :     0.0022950 Eh/a0  converged?    E=F G=F D=F
   time step     :     0.5894869 fs     power     :   0.1622492E-09
   step length   :     0.0074063 a0     speed     :   0.3039094E-03

........................................................................
.............................. CYCLE   35 ..............................
........................................................................

 iter      E             dE          RMSdq      gap      omega  full diag
   1  -5198.5929175 -0.519859E+04  0.410E-04    4.12       0.0  T
   2  -5198.5929175 -0.698856E-08  0.248E-04    4.12       6.5  T
   3  -5198.5929175  0.125301E-07  0.524E-05    4.12      30.7  T
     SCC iter.                  ...       10 min, 37.375 sec
     gradient                   ...        5 min,  5.435 sec
 * total energy  : -5104.0568035 Eh     change    :  -0.9846948E-05 Eh
   gradient norm :     0.0023059 Eh/a0  converged?    E=F G=F D=F
   time step     :     0.6484356 fs     power     :   0.1758194E-09
   step length   :     0.0082385 a0     speed     :   0.3073225E-03

........................................................................
.............................. CYCLE   36 ..............................
........................................................................

 iter      E             dE          RMSdq      gap      omega  full diag
   1  -5198.5939016 -0.519859E+04  0.404E-04    4.12       0.0  T
   2  -5198.5939016 -0.600994E-08  0.249E-04    4.12       6.5  T
   3  -5198.5939015  0.225045E-07  0.649E-05    4.12      24.8  T
     SCC iter.                  ...       10 min, 34.284 sec
     gradient                   ...        5 min,  6.239 sec
 * total energy  : -5104.0568152 Eh     change    :  -0.1167682E-04 Eh
   gradient norm :     0.0021651 Eh/a0  converged?    E=F G=F D=F
   time step     :     0.7132792 fs     power     :   0.1919724E-09
   step length   :     0.0092703 a0     speed     :   0.3143763E-03

........................................................................
.............................. CYCLE   37 ..............................
........................................................................

 iter      E             dE          RMSdq      gap      omega  full diag
   1  -5198.5945309 -0.519859E+04  0.410E-04    4.12       0.0  T
   2  -5198.5945309 -0.873115E-08  0.260E-04    4.12       6.2  T
   3  -5198.5945309  0.541713E-07  0.953E-05    4.12      16.9  T
     SCC iter.                  ...       10 min, 36.601 sec
     gradient                   ...        5 min,  5.516 sec
 * total energy  : -5104.0568284 Eh     change    :  -0.1318943E-04 Eh
   gradient norm :     0.0020657 Eh/a0  converged?    E=F G=F D=F
   time step     :     0.7846071 fs     power     :   0.1950058E-09
   step length   :     0.0105604 a0     speed     :   0.3255695E-03

........................................................................
.............................. CYCLE   38 ..............................
........................................................................

 iter      E             dE          RMSdq      gap      omega  full diag
   1  -5198.5945949 -0.519859E+04  0.432E-04    4.12       0.0  T
   2  -5198.5945949 -0.115115E-07  0.269E-04    4.12       6.0  T
   3  -5198.5945948  0.472555E-07  0.925E-05    4.12      17.4  T
     SCC iter.                  ...       10 min, 35.454 sec
     gradient                   ...        5 min,  3.185 sec
 * total energy  : -5104.0568434 Eh     change    :  -0.1504748E-04 Eh
   gradient norm :     0.0021974 Eh/a0  converged?    E=F G=F D=F
   time step     :     0.8630678 fs     power     :   0.2039050E-09
   step length   :     0.0120773 a0     speed     :   0.3384862E-03

........................................................................
.............................. CYCLE   39 ..............................
........................................................................

 iter      E             dE          RMSdq      gap      omega  full diag
   1  -5198.5941089 -0.519859E+04  0.493E-04    4.12       0.0  T
   2  -5198.5941089 -0.118143E-07  0.297E-04    4.12       5.4  T
   3  -5198.5941089  0.193058E-07  0.665E-05    4.12      24.2  T
     SCC iter.                  ...       10 min, 36.684 sec
     gradient                   ...        5 min,  3.246 sec
 * total energy  : -5104.0568619 Eh     change    :  -0.1849633E-04 Eh
   gradient norm :     0.0021570 Eh/a0  converged?    E=F G=F D=F
   time step     :     0.9493746 fs     power     :   0.2381878E-09
   step length   :     0.0138790 a0     speed     :   0.3536194E-03

........................................................................
.............................. CYCLE   40 ..............................
........................................................................

 iter      E             dE          RMSdq      gap      omega  full diag
   1  -5198.5935668 -0.519859E+04  0.573E-04    4.12       0.0  T
   2  -5198.5935669 -0.150631E-07  0.348E-04    4.12       4.6  T
   3  -5198.5935668  0.392647E-07  0.890E-05    4.12      18.1  T
     SCC iter.                  ...       10 min, 34.441 sec
     gradient                   ...        5 min,  2.386 sec
 * total energy  : -5104.0568844 Eh     change    :  -0.2250873E-04 Eh
   gradient norm :     0.0018918 Eh/a0  converged?    E=F G=F D=F
   time step     :     1.0443120 fs     power     :   0.2563151E-09
   step length   :     0.0162132 a0     speed     :   0.3755386E-03

........................................................................
.............................. CYCLE   41 ..............................
........................................................................

 iter      E             dE          RMSdq      gap      omega  full diag
   1  -5198.5940042 -0.519859E+04  0.611E-04    4.12       0.0  T
   2  -5198.5940043 -0.168275E-07  0.375E-04    4.12       4.3  T
   3  -5198.5940042  0.575756E-07  0.107E-04    4.12      15.1  T
     SCC iter.                  ...       10 min, 36.002 sec
     gradient                   ...        5 min,  5.543 sec
 * total energy  : -5104.0569088 Eh     change    :  -0.2444195E-04 Eh
   gradient norm :     0.0019918 Eh/a0  converged?    E=F G=F D=F
   time step     :     1.1487432 fs     power     :   0.2484661E-09
   step length   :     0.0190734 a0     speed     :   0.4016255E-03

........................................................................
.............................. CYCLE   42 ..............................
........................................................................

 iter      E             dE          RMSdq      gap      omega  full diag
   1  -5198.5958438 -0.519860E+04  0.660E-04    4.12       0.0  T
   2  -5198.5958438 -0.123619E-07  0.392E-04    4.12       4.1  T
   3  -5198.5958438  0.132022E-07  0.609E-05    4.12      26.4  T
     SCC iter.                  ...       10 min, 37.178 sec
     gradient                   ...        5 min,  2.175 sec
 * total energy  : -5104.0569377 Eh     change    :  -0.2881720E-04 Eh
   gradient norm :     0.0020749 Eh/a0  converged?    E=F G=F D=F
   time step     :     1.2500000 fs     power     :   0.2859516E-09
   step length   :     0.0219820 a0     speed     :   0.4253761E-03
 * RMSD in coord.:     0.0024135 a0     energy gain  -0.2330904E-03 Eh

........................................................................
.............................. CYCLE   43 ..............................
........................................................................

 iter      E             dE          RMSdq      gap      omega  full diag
   1  -5198.5961873 -0.519860E+04  0.130E-04    4.12       0.0  T
   2  -5198.5961873 -0.490218E-09  0.763E-05    4.12      21.1  T
   3  -5198.5961873  0.182263E-08  0.209E-05    4.12      77.1  T
     SCC iter.                  ...       10 min, 33.286 sec
     gradient                   ...        5 min,  4.509 sec
 * total energy  : -5104.0569436 Eh     change    :  -0.5966799E-05 Eh
   gradient norm :     0.0020071 Eh/a0  converged?    E=F G=F D=F
   time step     :     0.2500000 fs     power     :   0.3123655E-09
   step length   :     0.0043121 a0     speed     :   0.4172162E-03

........................................................................
.............................. CYCLE   44 ..............................
........................................................................

 iter      E             dE          RMSdq      gap      omega  full diag
   1  -5198.5964851 -0.519860E+04  0.138E-04    4.12       0.0  T
   2  -5198.5964851 -0.757609E-09  0.824E-05    4.12      19.5  T
   3  -5198.5964851  0.294222E-08  0.252E-05    4.12      63.9  T
     SCC iter.                  ...       10 min, 36.174 sec
     gradient                   ...        5 min,  3.356 sec
 * total energy  : -5104.0569499 Eh     change    :  -0.6316911E-05 Eh
   gradient norm :     0.0018317 Eh/a0  converged?    E=F G=F D=F
   time step     :     0.2500000 fs     power     :   0.3269548E-09
   step length   :     0.0042730 a0     speed     :   0.4134395E-03

........................................................................
.............................. CYCLE   45 ..............................
........................................................................

 iter      E             dE          RMSdq      gap      omega  full diag
   1  -5198.5967244 -0.519860E+04  0.152E-04    4.12       0.0  T
   2  -5198.5967244 -0.110686E-08  0.921E-05    4.12      17.5  T
   3  -5198.5967244  0.426735E-08  0.301E-05    4.12      53.4  T
     SCC iter.                  ...       10 min, 35.979 sec
     gradient                   ...        5 min,  3.299 sec
 * total energy  : -5104.0569562 Eh     change    :  -0.6289253E-05 Eh
   gradient norm :     0.0016189 Eh/a0  converged?    E=F G=F D=F
   time step     :     0.2500000 fs     power     :   0.3248494E-09
   step length   :     0.0042792 a0     speed     :   0.4140388E-03

........................................................................
.............................. CYCLE   46 ..............................
........................................................................

 iter      E             dE          RMSdq      gap      omega  full diag
   1  -5198.5969007 -0.519860E+04  0.163E-04    4.12       0.0  T
   2  -5198.5969007 -0.146792E-08  0.998E-05    4.12      16.1  T
   3  -5198.5969007  0.533964E-08  0.324E-05    4.12      49.7  T
     SCC iter.                  ...       10 min, 34.101 sec
     gradient                   ...        5 min,  5.214 sec
 * total energy  : -5104.0569623 Eh     change    :  -0.6054674E-05 Eh
   gradient norm :     0.0014654 Eh/a0  converged?    E=F G=F D=F
   time step     :     0.2500000 fs     power     :   0.3096085E-09
   step length   :     0.0043201 a0     speed     :   0.4179935E-03

........................................................................
.............................. CYCLE   47 ..............................
........................................................................

 iter      E             dE          RMSdq      gap      omega  full diag
   1  -5198.5970204 -0.519860E+04  0.166E-04    4.12       0.0  T
   2  -5198.5970204 -0.144973E-08  0.101E-04    4.12      15.9  T
   3  -5198.5970204  0.493583E-08  0.308E-05    4.12      52.3  T
     SCC iter.                  ...       10 min, 37.225 sec
     gradient                   ...        5 min,  4.011 sec
 * total energy  : -5104.0569680 Eh     change    :  -0.5670240E-05 Eh
   gradient norm :     0.0014378 Eh/a0  converged?    E=F G=F D=F
   time step     :     0.2500000 fs     power     :   0.2916397E-09
   step length   :     0.0043699 a0     speed     :   0.4228119E-03

........................................................................
.............................. CYCLE   48 ..............................
........................................................................

 iter      E             dE          RMSdq      gap      omega  full diag
   1  -5198.5971066 -0.519860E+04  0.174E-04    4.12       0.0  T
   2  -5198.5971066 -0.134605E-08  0.106E-04    4.12      15.2  T
   3  -5198.5971066  0.435921E-08  0.285E-05    4.12      56.4  T
     SCC iter.                  ...       10 min, 34.675 sec
     gradient                   ...        5 min,  4.224 sec
 * total energy  : -5104.0569740 Eh     change    :  -0.6040600E-05 Eh
   gradient norm :     0.0015162 Eh/a0  converged?    E=F G=F D=F
   time step     :     0.2750000 fs     power     :   0.2803695E-09
   step length   :     0.0048440 a0     speed     :   0.4260726E-03

........................................................................
.............................. CYCLE   49 ..............................
........................................................................

 iter      E             dE          RMSdq      gap      omega  full diag
   1  -5198.5971722 -0.519860E+04  0.173E-04    4.12       0.0  T
   2  -5198.5971722 -0.989530E-09  0.103E-04    4.12      15.5  T
   3  -5198.5971722  0.225373E-08  0.217E-05    4.12      74.3  T
     SCC iter.                  ...       10 min, 36.792 sec
     gradient                   ...        5 min,  3.322 sec
 * total energy  : -5104.0569806 Eh     change    :  -0.6630614E-05 Eh
   gradient norm :     0.0016172 Eh/a0  converged?    E=F G=F D=F
   time step     :     0.3025000 fs     power     :   0.2820598E-09
   step length   :     0.0053363 a0     speed     :   0.4267047E-03

........................................................................
.............................. CYCLE   50 ..............................
........................................................................

 iter      E             dE          RMSdq      gap      omega  full diag
   1  -5198.5972250 -0.519860E+04  0.170E-04    4.12       0.0  T
   2  -5198.5972250 -0.604814E-09  0.100E-04    4.12      16.0  T
   3  -5198.5972250  0.633008E-09  0.145E-05    4.12     111.2  T
     SCC iter.                  ...       10 min, 36.994 sec
     gradient                   ...        5 min,  4.370 sec
 * total energy  : -5104.0569882 Eh     change    :  -0.7534240E-05 Eh
   gradient norm :     0.0016594 Eh/a0  converged?    E=F G=F D=F
   time step     :     0.3327500 fs     power     :   0.2942366E-09
   step length   :     0.0058693 a0     speed     :   0.4266616E-03

........................................................................
.............................. CYCLE   51 ..............................
........................................................................

 iter      E             dE          RMSdq      gap      omega  full diag
   1  -5198.5972577 -0.519860E+04  0.175E-04    4.12       0.0  T
   2  -5198.5972577 -0.688487E-09  0.103E-04    4.12      15.6  T
   3  -5198.5972577  0.107593E-08  0.159E-05    4.12     101.3  T
     SCC iter.                  ...       10 min, 35.308 sec
     gradient                   ...        5 min,  5.593 sec
 * total energy  : -5104.0569968 Eh     change    :  -0.8584187E-05 Eh
   gradient norm :     0.0015948 Eh/a0  converged?    E=F G=F D=F
   time step     :     0.3660250 fs     power     :   0.3072403E-09
   step length   :     0.0064852 a0     speed     :   0.4285769E-03

........................................................................
.............................. CYCLE   52 ..............................
........................................................................

 iter      E             dE          RMSdq      gap      omega  full diag
   1  -5198.5972410 -0.519860E+04  0.193E-04    4.12       0.0  T
   2  -5198.5972410 -0.963155E-09  0.116E-04    4.12      13.9  T
   3  -5198.5972410  0.335604E-08  0.262E-05    4.12      61.4  T
     SCC iter.                  ...       10 min, 34.930 sec
     gradient                   ...        5 min,  2.799 sec
 * total energy  : -5104.0570064 Eh     change    :  -0.9670486E-05 Eh
   gradient norm :     0.0014720 Eh/a0  converged?    E=F G=F D=F
   time step     :     0.4026275 fs     power     :   0.3126759E-09
   step length   :     0.0072282 a0     speed     :   0.4342517E-03

........................................................................
.............................. CYCLE   53 ..............................
........................................................................

 iter      E             dE          RMSdq      gap      omega  full diag
   1  -5198.5971219 -0.519860E+04  0.221E-04    4.12       0.0  T
   2  -5198.5971219 -0.175351E-08  0.135E-04    4.12      11.9  T
   3  -5198.5971219  0.755881E-08  0.378E-05    4.12      42.6  T
     SCC iter.                  ...       10 min, 32.329 sec
     gradient                   ...        5 min,  5.029 sec
 * total energy  : -5104.0570171 Eh     change    :  -0.1068207E-04 Eh
   gradient norm :     0.0013971 Eh/a0  converged?    E=F G=F D=F
   time step     :     0.4428903 fs     power     :   0.3085647E-09
   step length   :     0.0081238 a0     speed     :   0.4436890E-03

........................................................................
.............................. CYCLE   54 ..............................
........................................................................

 iter      E             dE          RMSdq      gap      omega  full diag
   1  -5198.5968509 -0.519860E+04  0.245E-04    4.12       0.0  T
   2  -5198.5968509 -0.216187E-08  0.150E-04    4.12      10.8  T
   3  -5198.5968509  0.872751E-08  0.403E-05    4.12      39.9  T
     SCC iter.                  ...       10 min, 35.252 sec
     gradient                   ...        5 min,  5.095 sec
 * total energy  : -5104.0570286 Eh     change    :  -0.1148312E-04 Eh
   gradient norm :     0.0014326 Eh/a0  converged?    E=F G=F D=F
   time step     :     0.4871793 fs     power     :   0.3044146E-09
   step length   :     0.0091532 a0     speed     :   0.4544651E-03

........................................................................
.............................. CYCLE   55 ..............................
........................................................................

 iter      E             dE          RMSdq      gap      omega  full diag
   1  -5198.5964437 -0.519860E+04  0.262E-04    4.12       0.0  T
   2  -5198.5964437 -0.156979E-08  0.157E-04    4.12      10.3  T
   3  -5198.5964437  0.430919E-08  0.313E-05    4.12      51.5  T
     SCC iter.                  ...       10 min, 39.225 sec
     gradient                   ...        5 min,  5.101 sec
 * total energy  : -5104.0570413 Eh     change    :  -0.1274642E-04 Eh
   gradient norm :     0.0014935 Eh/a0  converged?    E=F G=F D=F
   time step     :     0.5358972 fs     power     :   0.3098397E-09
   step length   :     0.0102821 a0     speed     :   0.4641042E-03

........................................................................
.............................. CYCLE   56 ..............................
........................................................................

 iter      E             dE          RMSdq      gap      omega  full diag
   1  -5198.5960221 -0.519860E+04  0.277E-04    4.12       0.0  T
   2  -5198.5960221 -0.163618E-08  0.164E-04    4.12       9.8  T
   3  -5198.5960221  0.256387E-08  0.262E-05    4.12      61.4  T
     SCC iter.                  ...       10 min, 35.135 sec
     gradient                   ...        5 min,  5.683 sec
 * total energy  : -5104.0570559 Eh     change    :  -0.1460048E-04 Eh
   gradient norm :     0.0014971 Eh/a0  converged?    E=F G=F D=F
   time step     :     0.5894869 fs     power     :   0.3231148E-09
   step length   :     0.0115477 a0     speed     :   0.4738452E-03

........................................................................
.............................. CYCLE   57 ..............................
........................................................................

 iter      E             dE          RMSdq      gap      omega  full diag
   1  -5198.5958011 -0.519860E+04  0.305E-04    4.12       0.0  T
   2  -5198.5958011 -0.208820E-08  0.182E-04    4.12       8.8  T
   3  -5198.5958011  0.887576E-08  0.406E-05    4.12      39.7  T
     SCC iter.                  ...       10 min, 37.333 sec
     gradient                   ...        5 min,  4.067 sec
 * total energy  : -5104.0570727 Eh     change    :  -0.1673568E-04 Eh
   gradient norm :     0.0014221 Eh/a0  converged?    E=F G=F D=F
   time step     :     0.6484356 fs     power     :   0.3355360E-09
   step length   :     0.0130322 a0     speed     :   0.4861440E-03

........................................................................
.............................. CYCLE   58 ..............................
........................................................................

 iter      E             dE          RMSdq      gap      omega  full diag
   1  -5198.5960049 -0.519860E+04  0.351E-04    4.12       0.0  T
   2  -5198.5960049 -0.312957E-08  0.212E-04    4.12       7.6  T
   3  -5198.5960049  0.195714E-07  0.594E-05    4.12      27.1  T
     SCC iter.                  ...       10 min, 36.738 sec
     gradient                   ...        5 min,  5.633 sec
 * total energy  : -5104.0570914 Eh     change    :  -0.1873467E-04 Eh
   gradient norm :     0.0013676 Eh/a0  converged?    E=F G=F D=F
   time step     :     0.7132792 fs     power     :   0.3398005E-09
   step length   :     0.0148147 a0     speed     :   0.5023986E-03

........................................................................
.............................. CYCLE   59 ..............................
........................................................................

 iter      E             dE          RMSdq      gap      omega  full diag
   1  -5198.5966596 -0.519860E+04  0.385E-04    4.12       0.0  T
   2  -5198.5966596 -0.293221E-08  0.229E-04    4.12       7.0  T
   3  -5198.5966596  0.103128E-07  0.456E-05    4.12      35.3  T
     SCC iter.                  ...       10 min, 36.528 sec
     gradient                   ...        5 min,  4.742 sec
 * total energy  : -5104.0571123 Eh     change    :  -0.2086501E-04 Eh
   gradient norm :     0.0014403 Eh/a0  converged?    E=F G=F D=F
   time step     :     0.7846071 fs     power     :   0.3466022E-09
   step length   :     0.0168922 a0     speed     :   0.5207727E-03

........................................................................
.............................. CYCLE   60 ..............................
........................................................................

 iter      E             dE          RMSdq      gap      omega  full diag
   1  -5198.5974648 -0.519860E+04  0.414E-04    4.12       0.0  T
   2  -5198.5974648 -0.291675E-08  0.244E-04    4.12       6.6  T
   3  -5198.5974648  0.985256E-08  0.455E-05    4.12      35.4  T
     SCC iter.                  ...       10 min, 35.517 sec
     gradient                   ...        5 min,  2.185 sec
 * total energy  : -5104.0571363 Eh     change    :  -0.2404461E-04 Eh
   gradient norm :     0.0014143 Eh/a0  converged?    E=F G=F D=F
   time step     :     0.8630678 fs     power     :   0.3645409E-09
   step length   :     0.0192223 a0     speed     :   0.5387341E-03

........................................................................
.............................. CYCLE   61 ..............................
........................................................................

 iter      E             dE          RMSdq      gap      omega  full diag
   1  -5198.5980390 -0.519860E+04  0.474E-04    4.12       0.0  T
   2  -5198.5980390 -0.455930E-08  0.282E-04    4.12       5.7  T
   3  -5198.5980390  0.213286E-07  0.631E-05    4.12      25.5  T
     SCC iter.                  ...       10 min, 35.018 sec
     gradient                   ...        5 min,  4.537 sec
 * total energy  : -5104.0571637 Eh     change    :  -0.2737417E-04 Eh
   gradient norm :     0.0013435 Eh/a0  converged?    E=F G=F D=F
   time step     :     0.9493746 fs     power     :   0.3757170E-09
   step length   :     0.0220003 a0     speed     :   0.5605384E-03

........................................................................
.............................. CYCLE   62 ..............................
........................................................................

 iter      E             dE          RMSdq      gap      omega  full diag
   1  -5198.5982064 -0.519860E+04  0.528E-04    4.12       0.0  T
   2  -5198.5982064 -0.551427E-08  0.313E-04    4.12       5.1  T
   3  -5198.5982064  0.169912E-07  0.595E-05    4.12      27.0  T
     SCC iter.                  ...       10 min, 32.303 sec
     gradient                   ...        5 min,  3.279 sec
 * total energy  : -5104.0571947 Eh     change    :  -0.3105536E-04 Eh
   gradient norm :     0.0014174 Eh/a0  converged?    E=F G=F D=F
   time step     :     1.0443120 fs     power     :   0.3862084E-09
   step length   :     0.0253006 a0     speed     :   0.5860246E-03

........................................................................
.............................. CYCLE   63 ..............................
........................................................................

 iter      E             dE          RMSdq      gap      omega  full diag
   1  -5198.5980459 -0.519860E+04  0.581E-04    4.12       0.0  T
   2  -5198.5980459 -0.628825E-08  0.344E-04    4.12       4.7  T
   3  -5198.5980458  0.267491E-07  0.734E-05    4.12      21.9  T
     SCC iter.                  ...       10 min, 34.880 sec
     gradient                   ...        5 min,  4.761 sec
 * total energy  : -5104.0572307 Eh     change    :  -0.3596169E-04 Eh
   gradient norm :     0.0013625 Eh/a0  converged?    E=F G=F D=F
   time step     :     1.1487432 fs     power     :   0.4083114E-09
   step length   :     0.0290357 a0     speed     :   0.6113979E-03

........................................................................
.............................. CYCLE   64 ..............................
........................................................................

 iter      E             dE          RMSdq      gap      omega  full diag
   1  -5198.5978051 -0.519860E+04  0.673E-04    4.12       0.0  T
   2  -5198.5978051 -0.915406E-08  0.402E-04    4.12       4.0  T
   3  -5198.5978051  0.601785E-07  0.103E-04    4.12      15.6  T
     SCC iter.                  ...       10 min, 36.981 sec
     gradient                   ...        5 min,  4.460 sec
 * total energy  : -5104.0572712 Eh     change    :  -0.4051791E-04 Eh
   gradient norm :     0.0013444 Eh/a0  converged?    E=F G=F D=F
   time step     :     1.2500000 fs     power     :   0.4191475E-09
   step length   :     0.0331588 a0     speed     :   0.6416576E-03

........................................................................
.............................. CYCLE   65 ..............................
........................................................................

 iter      E             dE          RMSdq      gap      omega  full diag
   1  -5198.5982136 -0.519860E+04  0.693E-04    4.12       0.0  T
   2  -5198.5982136 -0.640102E-08  0.409E-04    4.12       3.9  T
   3  -5198.5982136  0.242626E-07  0.748E-05    4.12      21.5  T
     SCC iter.                  ...       10 min, 36.695 sec
     gradient                   ...        5 min,  3.832 sec
 * total energy  : -5104.0573131 Eh     change    :  -0.4187976E-04 Eh
   gradient norm :     0.0013546 Eh/a0  converged?    E=F G=F D=F
   time step     :     1.2500000 fs     power     :   0.4397114E-09
   step length   :     0.0346545 a0     speed     :   0.6706013E-03

........................................................................
.............................. CYCLE   66 ..............................
........................................................................

 iter      E             dE          RMSdq      gap      omega  full diag
   1  -5198.5988390 -0.519860E+04  0.723E-04    4.12       0.0  T
   2  -5198.5988390 -0.896398E-08  0.430E-04    4.12       3.7  T
   3  -5198.5988389  0.496539E-07  0.954E-05    4.12      16.9  T
     SCC iter.                  ...       10 min, 35.545 sec
     gradient                   ...        5 min,  4.967 sec
 * total energy  : -5104.0573568 Eh     change    :  -0.4365918E-04 Eh
   gradient norm :     0.0012898 Eh/a0  converged?    E=F G=F D=F
   time step     :     1.2500000 fs     power     :   0.4533983E-09
   step length   :     0.0361382 a0     speed     :   0.6993129E-03

........................................................................
.............................. CYCLE   67 ..............................
........................................................................

 iter      E             dE          RMSdq      gap      omega  full diag
   1  -5198.5990463 -0.519860E+04  0.740E-04    4.12       0.0  T
   2  -5198.5990463 -0.825094E-08  0.436E-04    4.12       3.7  T
   3  -5198.5990463  0.318341E-07  0.834E-05    4.12      19.3  T
     SCC iter.                  ...       10 min, 37.162 sec
     gradient                   ...        5 min,  2.159 sec
 * total energy  : -5104.0574015 Eh     change    :  -0.4473619E-04 Eh
   gradient norm :     0.0013676 Eh/a0  converged?    E=F G=F D=F
   time step     :     1.2500000 fs     power     :   0.4675771E-09
   step length   :     0.0376704 a0     speed     :   0.7289632E-03
 * RMSD in coord.:     0.0059254 a0     energy gain  -0.4638343E-03 Eh

........................................................................
.............................. CYCLE   68 ..............................
........................................................................

 iter      E             dE          RMSdq      gap      omega  full diag
   1  -5198.5990974 -0.519860E+04  0.147E-04    4.12       0.0  T
   2  -5198.5990974 -0.288310E-09  0.862E-05    4.12      18.7  T
   3  -5198.5990974  0.106775E-08  0.154E-05    4.12     104.5  T
     SCC iter.                  ...       10 min, 36.532 sec
     gradient                   ...        5 min,  5.306 sec
 * total energy  : -5104.0574105 Eh     change    :  -0.9047550E-05 Eh
   gradient norm :     0.0013186 Eh/a0  converged?    E=F G=F D=F
   time step     :     0.2500000 fs     power     :   0.4779861E-09
   step length   :     0.0075058 a0     speed     :   0.7262264E-03

........................................................................
.............................. CYCLE   69 ..............................
........................................................................

 iter      E             dE          RMSdq      gap      omega  full diag
   1  -5198.5991718 -0.519860E+04  0.153E-04    4.12       0.0  T
   2  -5198.5991718 -0.675755E-09  0.916E-05    4.12      17.6  T
   3  -5198.5991718  0.313230E-08  0.253E-05    4.12      63.5  T
     SCC iter.                  ...       10 min, 34.047 sec
     gradient                   ...        5 min,  3.558 sec
 * total energy  : -5104.0574196 Eh     change    :  -0.9083345E-05 Eh
   gradient norm :     0.0012461 Eh/a0  converged?    E=F G=F D=F
   time step     :     0.2500000 fs     power     :   0.4799177E-09
   step length   :     0.0075163 a0     speed     :   0.7272434E-03

........................................................................
.............................. CYCLE   70 ..............................
........................................................................

 iter      E             dE          RMSdq      gap      omega  full diag
   1  -5198.5992562 -0.519860E+04  0.158E-04    4.12       0.0  T
   2  -5198.5992562 -0.106957E-08  0.953E-05    4.12      16.9  T
   3  -5198.5992562  0.336058E-08  0.258E-05    4.12      62.3  T
     SCC iter.                  ...       10 min, 35.493 sec
     gradient                   ...        5 min,  3.427 sec
 * total energy  : -5104.0574287 Eh     change    :  -0.9019956E-05 Eh
   gradient norm :     0.0012267 Eh/a0  converged?    E=F G=F D=F
   time step     :     0.2500000 fs     power     :   0.4753974E-09
   step length   :     0.0075638 a0     speed     :   0.7318406E-03

........................................................................
.............................. CYCLE   71 ..............................
........................................................................

 iter      E             dE          RMSdq      gap      omega  full diag
   1  -5198.5993349 -0.519860E+04  0.156E-04    4.12       0.0  T
   2  -5198.5993349 -0.586624E-09  0.936E-05    4.12      17.2  T
[...]
  3615   6 C     3616   6 C                                       1.5363103
  3617   6 C     3618   6 C                                       1.3892580
  3618   6 C     3619   6 C                                       1.3843755
  3619   6 C     3620   6 C                                       1.3847590
  3620   6 C     3621   6 C                                       1.3841380
  3617   6 C     3622   6 C                                       1.3896508
  3621   6 C     3622   6 C                                       1.3812362
  3616   6 C     3623   6 C                                       1.5386456
  3623   6 C     3624   6 C                                       1.5398733
  3625   6 C     3626   6 C                                       1.3906681
  3626   6 C     3627   6 C                                       1.3826898
  3627   6 C     3628   6 C                                       1.3843472
  3628   6 C     3629   6 C                                       1.3837521
  3625   6 C     3630   6 C                                       1.3900294
  3629   6 C     3630   6 C                                       1.3844074
  3624   6 C     3631   6 C                                       1.5332286
  3631   6 C     3632   6 C                                       1.5282848
  3633   6 C     3634   6 C                                       1.3904485
  3634   6 C     3635   6 C                                       1.3829374
  3635   6 C     3636   6 C                                       1.3848406
  3636   6 C     3637   6 C                                       1.3842373
  3633   6 C     3638   6 C                                       1.3901288
  3637   6 C     3638   6 C                                       1.3846497
  3632   6 C     3639   6 C                                       1.5405410
  3639   6 C     3640   6 C                                       1.5340299
  3641   6 C     3642   6 C                                       1.3910413
  3642   6 C     3643   6 C                                       1.3822661
  3643   6 C     3644   6 C                                       1.3843187
  3644   6 C     3645   6 C                                       1.3836819
  3641   6 C     3646   6 C                                       1.3886219
  3645   6 C     3646   6 C                                       1.3839436
  3640   6 C     3647   6 C                                       1.5355520
  3647   6 C     3648   6 C                                       1.5319255
  3649   6 C     3650   6 C                                       1.3899663
  3650   6 C     3651   6 C                                       1.3842164
  3651   6 C     3652   6 C                                       1.3841383
  3652   6 C     3653   6 C                                       1.3846031
  3649   6 C     3654   6 C                                       1.3906037
  3653   6 C     3654   6 C                                       1.3840877
  3648   6 C     3655   6 C                                       1.5371571
  3655   6 C     3656   6 C                                       1.5337530
  3657   6 C     3658   6 C                                       1.3891001
  3658   6 C     3659   6 C                                       1.3833971
  3659   6 C     3660   6 C                                       1.3831610
  3660   6 C     3661   6 C                                       1.3841056
  3657   6 C     3662   6 C                                       1.3900109
  3661   6 C     3662   6 C                                       1.3828233
  3656   6 C     3663   6 C                                       1.5347705
  3665   6 C     3666   6 C                                       1.3884557
  3666   6 C     3667   6 C                                       1.3846996
  3667   6 C     3668   6 C                                       1.3834380
  3668   6 C     3669   6 C                                       1.3845639
  3665   6 C     3670   6 C                                       1.3897906
  3669   6 C     3670   6 C                                       1.3832336
  3664   6 C     3671   6 C                                       1.5350193
  3671   6 C     3672   6 C                                       1.5357688
  3673   6 C     3674   6 C                                       1.3887298
  3674   6 C     3675   6 C                                       1.3842924
  3675   6 C     3676   6 C                                       1.3836799
  3676   6 C     3677   6 C                                       1.3849817
  3673   6 C     3678   6 C                                       1.3899417
  3677   6 C     3678   6 C                                       1.3820847
  3672   6 C     3679   6 C                                       1.5399809
  3679   6 C     3680   6 C                                       1.5357655
  3681   6 C     3682   6 C                                       1.3904807
  3682   6 C     3683   6 C                                       1.3828062
  3683   6 C     3684   6 C                                       1.3848472
  3684   6 C     3685   6 C                                       1.3837816
  3681   6 C     3686   6 C                                       1.3885487
  3685   6 C     3686   6 C                                       1.3840411
  3687   6 C     3688   6 C                                       1.5381902
  3549   6 C     3689   1 H                                       1.0954330
  3551   6 C     3690   1 H                                       1.0930139
  3551   6 C     3691   1 H                                       1.0901200
  3552   6 C     3692   1 H                                       1.0957481
  3559   6 C     3693   1 H                                       1.0935417
  3559   6 C     3694   1 H                                       1.0909776
  3560   6 C     3695   1 H                                       1.0953961
  3567   6 C     3696   1 H                                       1.0920933
  3567   6 C     3697   1 H                                       1.0900945
  3568   6 C     3698   1 H                                       1.0950681
  3575   6 C     3699   1 H                                       1.0922794
  3576   6 C     3700   1 H                                       1.0940719
  3583   6 C     3701   1 H                                       1.0914587
  3583   6 C     3702   1 H                                       1.0915098
  3584   6 C     3703   1 H                                       1.0957943
  3591   6 C     3704   1 H                                       1.0926313
  3591   6 C     3705   1 H                                       1.0919973
  3592   6 C     3706   1 H                                       1.0953980
  3599   6 C     3707   1 H                                       1.0918505
  3599   6 C     3708   1 H                                       1.0922715
  3600   6 C     3709   1 H                                       1.0932726
  3608   6 C     3710   1 H                                       1.0951468
  3615   6 C     3711   1 H                                       1.0902874
  3615   6 C     3712   1 H                                       1.0897534
  3616   6 C     3713   1 H                                       1.0951666
  3623   6 C     3714   1 H                                       1.0928987
  3623   6 C     3715   1 H                                       1.0906364
  3624   6 C     3716   1 H                                       1.0953880
  3631   6 C     3717   1 H                                       1.0911086
  3631   6 C     3718   1 H                                       1.0905276
  3632   6 C     3719   1 H                                       1.0946905
  3639   6 C     3720   1 H                                       1.0930058
  3639   6 C     3721   1 H                                       1.0914881
  3640   6 C     3722   1 H                                       1.0950739
  3647   6 C     3723   1 H                                       1.0924624
  3647   6 C     3724   1 H                                       1.0906049
  3648   6 C     3725   1 H                                       1.0955813
  3655   6 C     3726   1 H                                       1.0908693
  3655   6 C     3727   1 H                                       1.0897663
  3656   6 C     3728   1 H                                       1.0939341
  3663   6 C     3729   1 H                                       1.0927652
  3663   6 C     3730   1 H                                       1.0926179
  3664   6 C     3731   1 H                                       1.0943862
  3671   6 C     3732   1 H                                       1.0911623
  3671   6 C     3733   1 H                                       1.0919173
  3672   6 C     3734   1 H                                       1.0938819
  3679   6 C     3735   1 H                                       1.0932405
  3679   6 C     3736   1 H                                       1.0933594
  3543   6 C     3737   1 H                                       1.0796671
  3548   6 C     3738   1 H                                       1.0805615
  3547   6 C     3739   1 H                                       1.0796462
  3546   6 C     3740   1 H                                       1.0810853
  3545   6 C     3741   1 H                                       1.0816163
  3554   6 C     3742   1 H                                       1.0778805
  3555   6 C     3743   1 H                                       1.0810951
  3556   6 C     3744   1 H                                       1.0789124
  3557   6 C     3745   1 H                                       1.0804719
  3558   6 C     3746   1 H                                       1.0800248
  3562   6 C     3747   1 H                                       1.0808460
  3563   6 C     3748   1 H                                       1.0802663
  3564   6 C     3749   1 H                                       1.0803068
  3565   6 C     3750   1 H                                       1.0807412
  3566   6 C     3751   1 H                                       1.0808556
  3570   6 C     3752   1 H                                       1.0799632
  3571   6 C     3753   1 H                                       1.0807392
  3572   6 C     3754   1 H                                       1.0801719
  3573   6 C     3755   1 H                                       1.0810611
  3574   6 C     3756   1 H                                       1.0817898
  3575   6 C     3757   1 H                                       1.0917106
  3578   6 C     3758   1 H                                       1.0799910
  3579   6 C     3759   1 H                                       1.0793628
  3580   6 C     3760   1 H                                       1.0786970
  3581   6 C     3761   1 H                                       1.0796884
  3582   6 C     3762   1 H                                       1.0793948
  3586   6 C     3763   1 H                                       1.0818789
  3587   6 C     3764   1 H                                       1.0808675
  3588   6 C     3765   1 H                                       1.0809367
  3589   6 C     3766   1 H                                       1.0808302
  3590   6 C     3767   1 H                                       1.0800314
  3594   6 C     3768   1 H                                       1.0803426
  3595   6 C     3769   1 H                                       1.0806800
  3596   6 C     3770   1 H                                       1.0794245
  3597   6 C     3771   1 H                                       1.0810404
  3598   6 C     3772   1 H                                       1.0790745
  3602   6 C     3773   1 H                                       1.0817754
  3603   6 C     3774   1 H                                       1.0793716
  3604   6 C     3775   1 H                                       1.0818180
  3605   6 C     3776   1 H                                       1.0808199
  3606   6 C     3777   1 H                                       1.0798495
  3607   6 C     3778   1 H                                       1.0920443
  3607   6 C     3779   1 H                                       1.0928149
  3610   6 C     3780   1 H                                       1.0804546
  3611   6 C     3781   1 H                                       1.0805749
  3612   6 C     3782   1 H                                       1.0800615
  3613   6 C     3783   1 H                                       1.0803624
  3614   6 C     3784   1 H                                       1.0812283
  3618   6 C     3785   1 H                                       1.0819174
  3619   6 C     3786   1 H                                       1.0802073
  3620   6 C     3787   1 H                                       1.0821132
  3621   6 C     3788   1 H                                       1.0783882
  3622   6 C     3789   1 H                                       1.0795686
  3626   6 C     3790   1 H                                       1.0807397
  3627   6 C     3791   1 H                                       1.0803020
  3628   6 C     3792   1 H                                       1.0791687
  3629   6 C     3793   1 H                                       1.0814915
  3630   6 C     3794   1 H                                       1.0817918
  3634   6 C     3795   1 H                                       1.0806459
  3635   6 C     3796   1 H                                       1.0802763
  3636   6 C     3797   1 H                                       1.0809262
  3637   6 C     3798   1 H                                       1.0798195
  3638   6 C     3799   1 H                                       1.0806537
  3642   6 C     3800   1 H                                       1.0798235
  3643   6 C     3801   1 H                                       1.0803932
  3644   6 C     3802   1 H                                       1.0800234
  3645   6 C     3803   1 H                                       1.0807605
  3646   6 C     3804   1 H                                       1.0814832
  3650   6 C     3805   1 H                                       1.0813009
  3651   6 C     3806   1 H                                       1.0806720
  3652   6 C     3807   1 H                                       1.0803119
  3653   6 C     3808   1 H                                       1.0807708
  3654   6 C     3809   1 H                                       1.0810979
  3658   6 C     3810   1 H                                       1.0811068
  3659   6 C     3811   1 H                                       1.0803953
  3660   6 C     3812   1 H                                       1.0800675
  3661   6 C     3813   1 H                                       1.0811545
  3662   6 C     3814   1 H                                       1.0802200
  3666   6 C     3815   1 H                                       1.0808458
  3667   6 C     3816   1 H                                       1.0795475
  3668   6 C     3817   1 H                                       1.0803966
  3669   6 C     3818   1 H                                       1.0808960
  3670   6 C     3819   1 H                                       1.0793621
  3674   6 C     3820   1 H                                       1.0804310
  3675   6 C     3821   1 H                                       1.0805521
  3676   6 C     3822   1 H                                       1.0790397
  3677   6 C     3823   1 H                                       1.0804097
  3678   6 C     3824   1 H                                       1.0791716
  3686   6 C     3825   1 H                                       1.0813954
  3685   6 C     3826   1 H                                       1.0807068
  3684   6 C     3827   1 H                                       1.0801804
  3683   6 C     3828   1 H                                       1.0806569
  3682   6 C     3829   1 H                                       1.0805927
  3550   6 C     3830   1 H                                       1.0883580
  3550   6 C     3831   1 H                                       1.0877086
  3550   6 C     3832   1 H                                       1.0878036
  3680   6 C     3833   1 H                                       1.0937145
  3687   6 C     3834   1 H                                       1.0921860
  3687   6 C     3835   1 H                                       1.0918935
  3688   6 C     3836   6 C                                       1.5333702
  3837   6 C     3838   6 C                                       1.3889043
  3838   6 C     3839   6 C                                       1.3842270
  3839   6 C     3840   6 C                                       1.3839420
  3840   6 C     3841   6 C                                       1.3846503
  3837   6 C     3842   6 C                                       1.3903252
  3841   6 C     3842   6 C                                       1.3831296
  3838   6 C     3843   1 H                                       1.0806159
  3839   6 C     3844   1 H                                       1.0812226
  3840   6 C     3845   1 H                                       1.0803255
  3841   6 C     3846   1 H                                       1.0805119
  3842   6 C     3847   1 H                                       1.0804984
  3836   6 C     3848   6 C                                       1.5304299
  3836   6 C     3849   1 H                                       1.0913728
  3836   6 C     3850   1 H                                       1.0910089
  3851   6 C     3852   6 C                                       1.3895478
  3852   6 C     3853   6 C                                       1.3850110
  3853   6 C     3854   6 C                                       1.3847038
  3854   6 C     3855   6 C                                       1.3847389
  3851   6 C     3856   6 C                                       1.3910349
  3855   6 C     3856   6 C                                       1.3832482
  3852   6 C     3857   1 H                                       1.0812610
  3853   6 C     3858   1 H                                       1.0804677
  3854   6 C     3859   1 H                                       1.0806083
  3855   6 C     3860   1 H                                       1.0802884
  3856   6 C     3861   1 H                                       1.0805020
  3688   6 C     3862   1 H                                       1.0953263
  3848   6 C     3863   1 H                                       1.0926305
  3848   6 C     3864   1 H                                       1.0949975

 * 2 distinct bonds (by element types)

   Z      Z             #   av. dist./Å        max./Å        min./Å
   1 H    6 C        1944     1.0850914     1.0986996     1.0767655
   6 C    6 C        1849     1.4188913     1.5410551     1.3807656


optimized geometry written to: xtbopt.xyz


           -------------------------------------------------
          | TOTAL ENERGY            -5104.061534732612 Eh   |
          | GRADIENT NORM               0.000921720723 Eh/α |
          | HOMO-LUMO GAP               4.121979372361 eV   |
           -------------------------------------------------

------------------------------------------------------------------------
 * finished run on 2024/10/07 at 19:19:09.071     
------------------------------------------------------------------------
 total:
 * wall-time:     3 d,  5 h,  6 min, 30.621 sec
 *  cpu-time:    20 d, 10 h,  5 min,  0.920 sec
 * ratio c/w:     6.356 speedup
 SCF:
 * wall-time:     0 d,  0 h, 48 min,  1.355 sec
 *  cpu-time:     0 d,  5 h, 46 min, 10.192 sec
 * ratio c/w:     7.208 speedup
 ANC optimizer:
 * wall-time:     3 d,  4 h, 17 min, 18.333 sec
 *  cpu-time:    20 d,  4 h, 17 min, 17.428 sec
 * ratio c/w:     6.348 speedup

