      -----------------------------------------------------------      
     |                   =====================                   |     
     |                           x T B                           |     
     |                   =====================                   |     
     |                         S. Grimme                         |     
     |          Mulliken Center for Theoretical Chemistry        |     
     |                    University of Bonn                     |     
      -----------------------------------------------------------      

   * xtb version 6.6.1 (8d0f1dd) compiled by 'stahn@M-Bot' on 2023-08-01

   xtb is free software: you can redistribute it and/or modify it under
   the terms of the GNU Lesser General Public License as published by
   the Free Software Foundation, either version 3 of the License, or
   (at your option) any later version.
   
   xtb is distributed in the hope that it will be useful,
   but WITHOUT ANY WARRANTY; without even the implied warranty of
   MERCHANTABILITY or FITNESS FOR A PARTICULAR PURPOSE.  See the
   GNU Lesser General Public License for more details.
   
   Cite this work as:
   * C. Bannwarth, E. Caldeweyher, S. Ehlert, A. Hansen, P. Pracht,
     J. Seibert, S. Spicher, S. Grimme, WIREs Comput. Mol. Sci., 2020, 11,
     e01493. DOI: 10.1002/wcms.1493
   
   for GFN2-xTB:
   * C. Bannwarth, S. Ehlert and S. Grimme., J. Chem. Theory Comput., 2019,
     15, 1652-1671. DOI: 10.1021/acs.jctc.8b01176
   for GFN1-xTB:
   * S. Grimme, C. Bannwarth, P. Shushkov, J. Chem. Theory Comput., 2017,
     13, 1989-2009. DOI: 10.1021/acs.jctc.7b00118
   for GFN0-xTB:
   * P. Pracht, E. Caldeweyher, S. Ehlert, S. Grimme, ChemRxiv, 2019, preprint.
     DOI: 10.26434/chemrxiv.8326202.v1
   for GFN-FF:
   * S. Spicher and S. Grimme, Angew. Chem. Int. Ed., 2020, 59, 15665-15673.
     DOI: 10.1002/anie.202004239
   
   for ALPB and GBSA implicit solvation:
   * S. Ehlert, M. Stahn, S. Spicher, S. Grimme, J. Chem. Theory Comput.,
     2021, 17, 4250-4261. DOI: 10.1021/acs.jctc.1c00471
   
   for DFT-D4:
   * E. Caldeweyher, C. Bannwarth and S. Grimme, J. Chem. Phys., 2017,
     147, 034112. DOI: 10.1063/1.4993215
   * E. Caldeweyher, S. Ehlert, A. Hansen, H. Neugebauer, S. Spicher,
     C. Bannwarth and S. Grimme, J. Chem. Phys., 2019, 150, 154122.
     DOI: 10.1063/1.5090222
   * E. Caldeweyher, J.-M. Mewes, S. Ehlert and S. Grimme, Phys. Chem. Chem. Phys.
     2020, 22, 8499-8512. DOI: 10.1039/D0CP00502A
   
   for sTDA-xTB:
   * S. Grimme and C. Bannwarth, J. Chem. Phys., 2016, 145, 054103.
     DOI: 10.1063/1.4959605
   
   in the mass-spec context:
   * V. Asgeirsson, C. Bauer and S. Grimme, Chem. Sci., 2017, 8, 4879.
     DOI: 10.1039/c7sc00601b
   * J. Koopman and S. Grimme, ACS Omega 2019, 4, 12, 15120-15133.
     DOI: 10.1021/acsomega.9b02011
   
   for metadynamics refer to:
   * S. Grimme, J. Chem. Theory Comput., 2019, 155, 2847-2862
     DOI: 10.1021/acs.jctc.9b00143
   
   for SPH calculations refer to:
   * S. Spicher and S. Grimme, J. Chem. Theory Comput., 2021, 17, 1701-1714
     DOI: 10.1021/acs.jctc.0c01306
   
   with help from (in alphabetical order)
   P. Atkinson, C. Bannwarth, F. Bohle, G. Brandenburg, E. Caldeweyher
   M. Checinski, S. Dohm, S. Ehlert, S. Ehrlich, I. Gerasimov, C. Hölzer
   A. Katbashev, J. Koopman, C. Lavigne, S. Lehtola, F. März, M. Müller,
   F. Musil, H. Neugebauer, J. Pisarek, C. Plett, P. Pracht, F. Pultar,
   J. Seibert, P. Shushkov, S. Spicher, M. Stahn, M. Steiner, T. Strunk,
   J. Stückrath, T. Rose, and J. Unsleber
   
 * started run on 2024/07/13 at 15:52:59.367     

           -------------------------------------------------
          |                Calculation Setup                |
           -------------------------------------------------

          program call               : /home/abt-grimme/AK-bin/xtb input.xyz --input input.inp --opt --gbsa water
          hostname                   : boar041.thch.uni-bonn.de
          coordinate file            : input.xyz
          omp threads                :                     8

   ID    Z sym.   atoms
    1    6 C      1-146, 294-300, 306, 309-314, 323-468, 616-622, 628,
                  631-636, 645-790, 938-944, 950, 953-958, 967-1112,
                  1260-1266, 1272, 1275-1280, 1289-1434, 1582-1588, 1594,
                  1597-1602, 1611-1756, 1904-1910, 1916, 1919-1924,
                  1933-2078, 2226-2232, 2238, 2241-2246, 2255-2400,
                  2548-2554, 2560, 2563-2568, 2577-2722, 2870-2876, 2882,
                  2885-2890, 2899-3044, 3192-3198, 3204, 3207-3212,
                  3221-3366, 3514-3520, 3526, 3529-3534, 3543-3688,
                  3836-3842, 3848, 3851-3856
    2    1 H      147-293, 301-305, 307, 308, 315-322, 469-615, 623-627, 629,
                  630, 637-644, 791-937, 945-949, 951, 952, 959-966,
                  1113-1259, 1267-1271, 1273, 1274, 1281-1288, 1435-1581,
                  1589-1593, 1595, 1596, 1603-1610, 1757-1903, 1911-1915,
                  1917, 1918, 1925-1932, 2079-2225, 2233-2237, 2239, 2240,
                  2247-2254, 2401-2547, 2555-2559, 2561, 2562, 2569-2576,
                  2723-2869, 2877-2881, 2883, 2884, 2891-2898, 3045-3191,
                  3199-3203, 3205, 3206, 3213-3220, 3367-3513, 3521-3525,
                  3527, 3528, 3535-3542, 3689-3835, 3843-3847, 3849, 3850,
                  3857-3864

molecular fragmentation (1/2 indicates fragments):
111111111111111111111111111111111111111111111111111111111111111111111111
111111111111111111111111111111111111111111111111111111111111111111111111
111111111111111111111111111111111111111111111111111111111111111111111111
111111111111111111111111111111111111111111111111111111111111111111111111
111111111111111111111111111111111122222222222222222222222222222222222222
222222222222222222222222222222222222222222222222222222222222222222222222
222222222222222222222222222222222222222222222222222222222222222222222222
222222222222222222222222222222222222222222222222222222222222222222222222
222222222222222222222222222222222222222222222222222222222222222222222222
222222222222222222222222222222222222222222222222222222222222222222222222
222222222222222222222222222222222222222222222222222222222222222222222222
222222222222222222222222222222222222222222222222222222222222222222222222
222222222222222222222222222222222222222222222222222222222222222222222222
222222222222222222222222222222222222222222222222222222222222222222222222
222222222222222222222222222222222222222222222222222222222222222222222222
222222222222222222222222222222222222222222222222222222222222222222222222
222222222222222222222222222222222222222222222222222222222222222222222222
222222222222222222222222222222222222222222222222222222222222222222222222
222222222222222222222222222222222222222222222222222222222222222222222222
222222222222222222222222222222222222222222222222222222222222222222222222
222222222222222222222222222222222222222222222222222222222222222222222222
222222222222222222222222222222222222222222222222222222222222222222222222
222222222222222222222222222222222222222222222222222222222222222222222222
222222222222222222222222222222222222222222222222222222222222222222222222
222222222222222222222222222222222222222222222222222222222222222222222222
222222222222222222222222222222222222222222222222222222222222222222222222
222222222222222222222222222222222222222222222222222222222222222222222222
222222222222222222222222222222222222222222222222222222222222222222222222
222222222222222222222222222222222222222222222222222222222222222222222222
222222222222222222222222222222222222222222222222222222222222222222222222
222222222222222222222222222222222222222222222222222222222222222222222222
222222222222222222222222222222222222222222222222222222222222222222222222
222222222222222222222222222222222222222222222222222222222222222222222222
222222222222222222222222222222222222222222222222222222222222222222222222
222222222222222222222222222222222222222222222222222222222222222222222222
222222222222222222222222222222222222222222222222222222222222222222222222
222222222222222222222222222222222222222222222222222222222222222222222222
222222222222222222222222222222222222222222222222222222222222222222222222
222222222222222222222222222222222222222222222222222222222222222222222222
222222222222222222222222222222222222222222222222222222222222222222222222
222222222222222222222222222222222222222222222222222222222222222222222222
222222222222222222222222222222222222222222222222222222222222222222222222
222222222222222222222222222222222222222222222222222222222222222222222222
222222222222222222222222222222222222222222222222222222222222222222222222
222222222222222222222222222222222222222222222222222222222222222222222222
222222222222222222222222222222222222222222222222222222222222222222222222
222222222222222222222222222222222222222222222222222222222222222222222222
222222222222222222222222222222222222222222222222222222222222222222222222
222222222222222222222222222222222222222222222222222222222222222222222222
222222222222222222222222222222222222222222222222222222222222222222222222
222222222222222222222222222222222222222222222222222222222222222222222222
222222222222222222222222222222222222222222222222222222222222222222222222
222222222222222222222222222222222222222222222222222222222222222222222222
222222222222222222222222222222222222222222222222
# atoms in fragment 1/2:   322  3542
 fragment masses (1/2) :     2085.00    22935.05
CMA distance (Bohr)    :  22.369
constraining FC (au)   :  0.0500

           -------------------------------------------------
          |                 G F N 2 - x T B                 |
           -------------------------------------------------

        Reference                      10.1021/acs.jctc.8b01176
      * Hamiltonian:
        H0-scaling (s, p, d)           1.850000    2.230000    2.230000
        zeta-weighting                 0.500000
      * Dispersion:
        s8                             2.700000
        a1                             0.520000
        a2                             5.000000
        s9                             5.000000
      * Repulsion:
        kExp                           1.500000    1.000000
        rExp                           1.000000
      * Coulomb:
        alpha                          2.000000
        third order                    shell-resolved
        anisotropic                    true
        a3                             3.000000
        a5                             4.000000
        cn-shift                       1.200000
        cn-exp                         4.000000
        max-rad                        5.000000

      * Solvation model:               GBSA
        Solvent                        water
        Parameter file                 internal GFN2-xTB/GBSA
        Dielectric constant                8.0200E+01
        Reference state                gsolv [1 M gas/solution]
        Free energy shift                  1.8574E-03 Eh       1.1656E+00 kcal/mol
        Temperature                        2.9815E+02 K
        Density                            1.0000E+00 kg/L
        Solvent mass                       1.8000E+01 g/mol
        Interaction kernel             Still
        Born radius scaling (c1)           1.5524E+00
        Born radii integrator          GBOBC
        Born offset                        2.4628E-02 a0       4.6540E-02 AA
        H-bond correction              true
        Ion screening                  false
        Surface tension                    1.0000E-05 Eh       1.5569E+01 dyn/cm
        Grid points                               230 per atom
q/qsh data taken from xtbrestart
CAMM data taken from xtbrestart

          ...................................................
          :                      SETUP                      :
          :.................................................:
          :  # basis functions                9624          :
          :  # atomic orbitals                9624          :
          :  # shells                         5784          :
          :  # electrons                      9624          :
          :  max. iterations                   250          :
          :  Hamiltonian                  GFN2-xTB          :
          :  restarted?                       true          :
          :  GBSA solvation                   true          :
          :  PC potential                    false          :
          :  electronic temp.          300.0000000     K    :
          :  accuracy                    1.0000000          :
          :  -> integral cutoff          0.2500000E+02      :
          :  -> integral neglect         0.1000000E-07      :
          :  -> SCF convergence          0.1000000E-05 Eh   :
          :  -> wf. convergence          0.1000000E-03 e    :
          :  Broyden damping             0.4000000          :
          ...................................................

 iter      E             dE          RMSdq      gap      omega  full diag
   1  -5190.4423976 -0.519044E+04  0.874E-05    3.71       0.0  T
   2  -5190.4423976 -0.110940E-07  0.732E-05    3.71      22.0  T
   3  -5190.4423976 -0.781529E-08  0.625E-05    3.71      25.7  T

   *** convergence criteria satisfied after 3 iterations ***

         #    Occupation            Energy/Eh            Energy/eV
      -------------------------------------------------------------
         1        2.0000           -0.6337735             -17.2459
       ...           ...                  ...                  ...
      4806        2.0000           -0.3638817              -9.9017
      4807        2.0000           -0.3636181              -9.8946
      4808        2.0000           -0.3630672              -9.8796
      4809        2.0000           -0.3620402              -9.8516
      4810        2.0000           -0.3613014              -9.8315
      4811        2.0000           -0.3605382              -9.8107
      4812        2.0000           -0.3573307              -9.7235 (HOMO)
      4813                         -0.2210909              -6.0162 (LUMO)
      4814                         -0.2202157              -5.9924
      4815                         -0.2200241              -5.9872
      4816                         -0.2193849              -5.9698
      4817                         -0.2190503              -5.9607
       ...                                ...                  ...
      9624                          0.6687888              18.1987
      -------------------------------------------------------------
                  HL-Gap            0.1362398 Eh            3.7073 eV
             Fermi-level           -0.2892108 Eh           -7.8698 eV

 SCC (total)                   0 d,  0 h, 16 min,  7.753 sec
 SCC setup                      ...        0 min,  2.397 sec (  0.248%)
 Dispersion                     ...        0 min,  6.855 sec (  0.708%)
 classical contributions        ...        0 min,  0.150 sec (  0.016%)
 integral evaluation            ...        0 min, 11.791 sec (  1.218%)
 iterations                     ...       10 min, 40.446 sec ( 66.179%)
 molecular gradient             ...        4 min, 38.830 sec ( 28.812%)
 printout                       ...        0 min, 27.283 sec (  2.819%)

         :::::::::::::::::::::::::::::::::::::::::::::::::::::
         ::                     SUMMARY                     ::
         :::::::::::::::::::::::::::::::::::::::::::::::::::::
         :: total energy           -5103.331301171974 Eh    ::
         :: total w/o Gsasa/hb     -5103.138572492604 Eh    ::
         :: gradient norm              0.743918954864 Eh/a0 ::
         :: HOMO-LUMO gap              3.707273370102 eV    ::
         ::.................................................::
         :: SCC energy             -5190.442397628767 Eh    ::
         :: -> isotropic ES            0.280417331314 Eh    ::
         :: -> anisotropic ES          0.823162887686 Eh    ::
         :: -> anisotropic XC          3.455954139062 Eh    ::
         :: -> dispersion             -6.901854557936 Eh    ::
         :: -> Gsolv                  -0.200349562724 Eh    ::
         ::    -> Gelec               -0.007620883354 Eh    ::
         ::    -> Gsasa               -0.187337269887 Eh    ::
         ::    -> Ghb                 -0.007248852609 Eh    ::
         ::    -> Gshift               0.001857443127 Eh    ::
         :: repulsion energy          85.986899347319 Eh    ::
         :: add. restraining           0.000000000000 Eh    ::
         :: total charge              -0.000000000034 e     ::
         :::::::::::::::::::::::::::::::::::::::::::::::::::::

      ----------------------------------------------------------- 
     |              Fast Inertial Relaxation Engine              |
      ----------------------------------------------------------- 

          ...................................................
          :                      SETUP                      :
          :.................................................:
          :   energy convergence        0.5000000E-05 Eh    :
          :   grad. convergence         0.1000000E-02 Eh/a0 :
          :   optimization log               true           :
          :   writing optlog all                1     steps :
          :   Hessian reset                    20     steps :
          :   time step scaling                 5     steps :
          :   maximium step len.        1.0000000     a0    :
          :   initial time step         0.2500000     fs    :
          :   maximum time step         1.2500000     fs    :
          :   power reset thr           0.0000000     au    :
          :   alpha parameter           0.1000000           :
          :   BFGS update                   false           :
          :   preconditioning               false           :
          ...................................................

........................................................................
.............................. CYCLE    1 ..............................
........................................................................

 iter      E             dE          RMSdq      gap      omega  full diag
   1  -5190.6539335 -0.519065E+04  0.914E-03    3.72       0.0  T
   2  -5190.6539699 -0.364001E-04  0.559E-03    3.72       1.0  T
   3  -5190.6539599  0.100399E-04  0.298E-03    3.72       1.0  T
   4  -5190.6539787 -0.188161E-04  0.791E-04    3.72       2.0  T
   5  -5190.6539804 -0.175902E-05  0.279E-04    3.72       5.8  T
   6  -5190.6539806 -0.117483E-06  0.182E-04    3.72       8.9  T
   7  -5190.6539806 -0.448799E-07  0.125E-04    3.72      12.9  T
     SCC iter.                  ...       24 min, 40.126 sec
     gradient                   ...        4 min, 42.453 sec
 * total energy  : -5103.3932868 Eh     change    :  -0.6198558E-01 Eh
   gradient norm :     0.6828707 Eh/a0  converged?    E=F G=F D=F
   time step     :     0.2500000 fs     power     :   0.3149498E-05
   step length   :     0.0871857 a0     speed     :   0.8435686E-02

........................................................................
.............................. CYCLE    2 ..............................
........................................................................

 iter      E             dE          RMSdq      gap      omega  full diag
   1  -5190.9653013 -0.519097E+04  0.133E-02    3.74       0.0  T
   2  -5190.9653787 -0.774281E-04  0.813E-03    3.74       1.0  T
   3  -5190.9653578  0.208732E-04  0.431E-03    3.74       1.0  T
   4  -5190.9653970 -0.391250E-04  0.116E-03    3.74       1.4  T
   5  -5190.9654007 -0.376160E-05  0.416E-04    3.74       3.9  T
   6  -5190.9654010 -0.252760E-06  0.278E-04    3.73       5.8  T
   7  -5190.9654011 -0.108152E-06  0.192E-04    3.73       8.4  T
     SCC iter.                  ...       24 min, 41.843 sec
     gradient                   ...        4 min, 44.177 sec
 * total energy  : -5103.4744468 Eh     change    :  -0.8116002E-01 Eh
   gradient norm :     0.5987804 Eh/a0  converged?    E=F G=F D=F
   time step     :     0.2500000 fs     power     :   0.4013115E-05
   step length   :     0.1271005 a0     speed     :   0.1229765E-01

........................................................................
.............................. CYCLE    3 ..............................
........................................................................

 iter      E             dE          RMSdq      gap      omega  full diag
   1  -5191.3690915 -0.519137E+04  0.169E-02    3.76       0.0  T
   2  -5191.3692156 -0.124140E-03  0.103E-02    3.76       1.0  T
   3  -5191.3691823  0.333821E-04  0.540E-03    3.76       1.0  T
   4  -5191.3692438 -0.615029E-04  0.146E-03    3.75       1.1  T
   5  -5191.3692499 -0.609038E-05  0.529E-04    3.75       3.0  T
   6  -5191.3692502 -0.393524E-06  0.357E-04    3.75       4.5  T
   7  -5191.3692504 -0.182248E-06  0.247E-04    3.75       6.5  T
     SCC iter.                  ...       24 min, 39.573 sec
     gradient                   ...        4 min, 38.653 sec
 * total energy  : -5103.5624039 Eh     change    :  -0.8795713E-01 Eh
   gradient norm :     0.4995500 Eh/a0  converged?    E=F G=F D=F
   time step     :     0.2500000 fs     power     :   0.4203257E-05
   step length   :     0.1619678 a0     speed     :   0.1567126E-01

........................................................................
.............................. CYCLE    4 ..............................
........................................................................

 iter      E             dE          RMSdq      gap      omega  full diag
   1  -5191.8572666 -0.519186E+04  0.197E-02    3.78       0.0  T
   2  -5191.8574331 -0.166491E-03  0.120E-02    3.78       1.0  T
   3  -5191.8573875  0.455137E-04  0.619E-03    3.78       1.0  T
   4  -5191.8574687 -0.811675E-04  0.170E-03    3.78       1.0  T
   5  -5191.8574770 -0.830272E-05  0.613E-04    3.78       2.6  T
   6  -5191.8574775 -0.502683E-06  0.420E-04    3.78       3.8  T
   7  -5191.8574778 -0.256376E-06  0.290E-04    3.77       5.5  T
     SCC iter.                  ...       24 min, 41.486 sec
     gradient                   ...        4 min, 40.417 sec
 * total energy  : -5103.6449115 Eh     change    :  -0.8250762E-01 Eh
   gradient norm :     0.3998177 Eh/a0  converged?    E=F G=F D=F
   time step     :     0.2500000 fs     power     :   0.3765398E-05
   step length   :     0.1905023 a0     speed     :   0.1843213E-01

........................................................................
.............................. CYCLE    5 ..............................
........................................................................

 iter      E             dE          RMSdq      gap      omega  full diag
   1  -5192.4214344 -0.519242E+04  0.215E-02    3.80       0.0  T
   2  -5192.4216270 -0.192699E-03  0.131E-02    3.80       1.0  T
   3  -5192.4215720  0.550703E-04  0.658E-03    3.80       1.0  T
   4  -5192.4216652 -0.932245E-04  0.183E-03    3.80       1.0  T
   5  -5192.4216751 -0.987317E-05  0.664E-04    3.80       2.4  T
   6  -5192.4216756 -0.543126E-06  0.461E-04    3.80       3.5  T
   7  -5192.4216759 -0.314861E-06  0.316E-04    3.80       5.1  T
     SCC iter.                  ...       24 min, 39.685 sec
     gradient                   ...        4 min, 49.456 sec
 * total energy  : -5103.7126797 Eh     change    :  -0.6776816E-01 Eh
   gradient norm :     0.3228293 Eh/a0  converged?    E=F G=F D=F
   time step     :     0.2500000 fs     power     :   0.2897112E-05
   step length   :     0.2115827 a0     speed     :   0.2047176E-01

........................................................................
.............................. CYCLE    6 ..............................
........................................................................

 iter      E             dE          RMSdq      gap      omega  full diag
   1  -5193.1183153 -0.519312E+04  0.245E-02    3.82       0.0  T
   2  -5193.1185477 -0.232399E-03  0.149E-02    3.82       1.0  T
   3  -5193.1184756  0.720688E-04  0.712E-03    3.82       1.0  T
   4  -5193.1185883 -0.112740E-03  0.202E-03    3.82       1.0  T
   5  -5193.1186008 -0.124508E-04  0.737E-04    3.82       2.2  T
   6  -5193.1186014 -0.588189E-06  0.515E-04    3.82       3.1  T
   7  -5193.1186018 -0.403145E-06  0.347E-04    3.82       4.6  T
     SCC iter.                  ...       24 min, 38.585 sec
     gradient                   ...        4 min, 41.318 sec
 * total energy  : -5103.7660309 Eh     change    :  -0.5335119E-01 Eh
   gradient norm :     0.2945638 Eh/a0  converged?    E=F G=F D=F
   time step     :     0.2750000 fs     power     :   0.1813494E-05
   step length   :     0.2479148 a0     speed     :   0.2180645E-01

........................................................................
.............................. CYCLE    7 ..............................
........................................................................

 iter      E             dE          RMSdq      gap      omega  full diag
   1  -5193.9389066 -0.519394E+04  0.260E-02    3.84       0.0  T
   2  -5193.9391310 -0.224320E-03  0.156E-02    3.84       1.0  T
   3  -5193.9390542  0.767705E-04  0.681E-03    3.84       1.0  T
   4  -5193.9391630 -0.108786E-03  0.202E-03    3.84       1.0  T
   5  -5193.9391759 -0.128906E-04  0.754E-04    3.84       2.1  T
   6  -5193.9391764 -0.516622E-06  0.522E-04    3.84       3.1  T
   7  -5193.9391768 -0.438205E-06  0.342E-04    3.84       4.7  T
     SCC iter.                  ...       24 min, 33.151 sec
     gradient                   ...        4 min, 38.470 sec
 * total energy  : -5103.8034066 Eh     change    :  -0.3737576E-01 Eh
   gradient norm :     0.3246709 Eh/a0  converged?    E=F G=F D=F
   time step     :     0.3025000 fs     power     :   0.9599398E-06
   step length   :     0.2762684 a0     speed     :   0.2209128E-01

........................................................................
.............................. CYCLE    8 ..............................
........................................................................

 iter      E             dE          RMSdq      gap      omega  full diag
   1  -5194.8473093 -0.519485E+04  0.259E-02    3.86       0.0  T
   2  -5194.8474756 -0.166343E-03  0.154E-02    3.86       1.0  T
   3  -5194.8474208  0.547615E-04  0.545E-03    3.86       1.0  T
   4  -5194.8474924 -0.715685E-04  0.177E-03    3.85       1.0  T
   5  -5194.8475026 -0.101611E-04  0.704E-04    3.85       2.3  T
   6  -5194.8475030 -0.391223E-06  0.453E-04    3.85       3.6  T
   7  -5194.8475033 -0.374866E-06  0.286E-04    3.85       5.6  T
     SCC iter.                  ...       24 min, 37.730 sec
     gradient                   ...        4 min, 40.216 sec
 * total energy  : -5103.8332809 Eh     change    :  -0.2987431E-01 Eh
   gradient norm :     0.3685393 Eh/a0  converged?    E=F G=F D=F
   time step     :     0.3327500 fs     power     :   0.6864071E-06
   step length   :     0.2960729 a0     speed     :   0.2152265E-01

........................................................................
.............................. CYCLE    9 ..............................
........................................................................

 iter      E             dE          RMSdq      gap      omega  full diag
   1  -5195.7999854 -0.519580E+04  0.252E-02    3.87       0.0  T
   2  -5195.8000849 -0.995302E-04  0.148E-02    3.87       1.0  T
   3  -5195.8000694  0.155618E-04  0.353E-03    3.87       1.0  T
   4  -5195.8000939 -0.245055E-04  0.121E-03    3.87       1.3  T
   5  -5195.8000977 -0.385515E-05  0.603E-04    3.87       2.7  T
   6  -5195.8000980 -0.270486E-06  0.327E-04    3.86       4.9  T
   7  -5195.8000982 -0.245039E-06  0.206E-04    3.86       7.8  T
     SCC iter.                  ...       24 min, 37.162 sec
     gradient                   ...        4 min, 39.159 sec
 * total energy  : -5103.8690495 Eh     change    :  -0.3576854E-01 Eh
   gradient norm :     0.3804341 Eh/a0  converged?    E=F G=F D=F
   time step     :     0.3660250 fs     power     :   0.9273115E-06
   step length   :     0.3158753 a0     speed     :   0.2087469E-01

........................................................................
.............................. CYCLE   10 ..............................
........................................................................

 iter      E             dE          RMSdq      gap      omega  full diag
   1  -5196.7517680 -0.519675E+04  0.258E-02    3.88       0.0  T
   2  -5196.7518457 -0.776911E-04  0.151E-02    3.87       1.0  T
   3  -5196.7518090  0.366798E-04  0.428E-03    3.87       1.0  T
   4  -5196.7518596 -0.506260E-04  0.107E-03    3.87       1.5  T
   5  -5196.7518622 -0.264249E-05  0.507E-04    3.87       3.2  T
   6  -5196.7518625 -0.205426E-06  0.295E-04    3.87       5.4  T
   7  -5196.7518626 -0.128367E-06  0.157E-04    3.87      10.3  T
     SCC iter.                  ...       24 min, 36.795 sec
     gradient                   ...        4 min, 42.253 sec
 * total energy  : -5103.9176801 Eh     change    :  -0.4863062E-01 Eh
   gradient norm :     0.3358965 Eh/a0  converged?    E=F G=F D=F
   time step     :     0.4026275 fs     power     :   0.1219762E-05
   step length   :     0.3451977 a0     speed     :   0.2073861E-01

........................................................................
.............................. CYCLE   11 ..............................
........................................................................

 iter      E             dE          RMSdq      gap      omega  full diag
   1  -5197.6528647 -0.519765E+04  0.286E-02    3.87       0.0  T
   2  -5197.6530022 -0.137485E-03  0.170E-02    3.87       1.0  T
   3  -5197.6528886  0.113646E-03  0.712E-03    3.87       1.0  T
   4  -5197.6530432 -0.154603E-03  0.139E-03    3.87       1.2  T
   5  -5197.6530476 -0.440029E-05  0.580E-04    3.87       2.8  T
   6  -5197.6530483 -0.739284E-06  0.272E-04    3.87       5.9  T
   7  -5197.6530484 -0.297423E-07  0.122E-04    3.87      13.2  T
     SCC iter.                  ...       24 min, 33.410 sec
     gradient                   ...        4 min, 46.854 sec
 * total energy  : -5103.9684444 Eh     change    :  -0.5076433E-01 Eh
   gradient norm :     0.2375775 Eh/a0  converged?    E=F G=F D=F
   time step     :     0.4428903 fs     power     :   0.9483958E-06
   step length   :     0.3861585 a0     speed     :   0.2109039E-01

........................................................................
.............................. CYCLE   12 ..............................
........................................................................

 iter      E             dE          RMSdq      gap      omega  full diag
   1  -5198.4464902 -0.519845E+04  0.323E-02    3.86       0.0  T
   2  -5198.4467438 -0.253597E-03  0.195E-02    3.86       1.0  T
   3  -5198.4465780  0.165865E-03  0.943E-03    3.86       1.0  T
   4  -5198.4468241 -0.246160E-03  0.182E-03    3.86       1.0  T
   5  -5198.4468325 -0.833343E-05  0.690E-04    3.86       2.3  T
   6  -5198.4468335 -0.992904E-06  0.356E-04    3.86       4.5  T
   7  -5198.4468335 -0.918117E-07  0.209E-04    3.86       7.7  T
     SCC iter.                  ...       24 min, 43.923 sec
     gradient                   ...        4 min, 41.148 sec
 * total energy  : -5103.9927498 Eh     change    :  -0.2430535E-01 Eh
   gradient norm :     0.1706238 Eh/a0  converged?    E=F G=F D=F
   time step     :     0.4871793 fs     power     :  -0.1423328E-06
   step length   :     0.4258370 a0     speed     :   0.2114315E-01

........................................................................
.............................. CYCLE   13 ..............................
........................................................................
 * reset velocities

 iter      E             dE          RMSdq      gap      omega  full diag
   1  -5198.4333028 -0.519843E+04  0.924E-04    3.86       0.0  T
   2  -5198.4333032 -0.426925E-06  0.557E-04    3.86       2.9  T
   3  -5198.4333032  0.104483E-07  0.263E-04    3.86       6.1  T
     SCC iter.                  ...       10 min, 37.712 sec
     gradient                   ...        4 min, 37.352 sec
 * total energy  : -5103.9943451 Eh     change    :  -0.1595340E-02 Eh
   gradient norm :     0.1655265 Eh/a0  converged?    E=F G=F D=F
   time step     :     0.2435896 fs     power     :   0.8557382E-07
   step length   :     0.0094922 a0     speed     :   0.9425911E-03

........................................................................
.............................. CYCLE   14 ..............................
........................................................................

 iter      E             dE          RMSdq      gap      omega  full diag
   1  -5198.4065145 -0.519841E+04  0.182E-03    3.86       0.0  T
   2  -5198.4065160 -0.150829E-05  0.109E-03    3.86       1.5  T
   3  -5198.4065159  0.879572E-07  0.462E-04    3.86       3.5  T
   4  -5198.4065161 -0.230860E-06  0.136E-04    3.86      11.8  T
     SCC iter.                  ...       14 min,  6.444 sec
     gradient                   ...        4 min, 39.489 sec
 * total energy  : -5103.9973469 Eh     change    :  -0.3001775E-02 Eh
   gradient norm :     0.1557221 Eh/a0  converged?    E=F G=F D=F
   time step     :     0.2435896 fs     power     :   0.1584109E-06
   step length   :     0.0186999 a0     speed     :   0.1856927E-02

........................................................................
.............................. CYCLE   15 ..............................
........................................................................

 iter      E             dE          RMSdq      gap      omega  full diag
   1  -5198.3670065 -0.519837E+04  0.261E-03    3.86       0.0  T
   2  -5198.3670097 -0.319296E-05  0.157E-03    3.86       1.0  T
   3  -5198.3670095  0.258756E-06  0.715E-04    3.86       2.3  T
   4  -5198.3670101 -0.631002E-06  0.205E-04    3.86       7.8  T
     SCC iter.                  ...       14 min,  6.062 sec
     gradient                   ...        4 min, 42.151 sec
 * total energy  : -5104.0014100 Eh     change    :  -0.4063065E-02 Eh
   gradient norm :     0.1421761 Eh/a0  converged?    E=F G=F D=F
   time step     :     0.2435896 fs     power     :   0.2107265E-06
   step length   :     0.0273541 a0     speed     :   0.2716307E-02

........................................................................
.............................. CYCLE   16 ..............................
........................................................................

 iter      E             dE          RMSdq      gap      omega  full diag
   1  -5198.3155729 -0.519832E+04  0.333E-03    3.86       0.0  T
   2  -5198.3155779 -0.508374E-05  0.201E-03    3.86       1.0  T
   3  -5198.3155775  0.469995E-06  0.902E-04    3.86       1.8  T
   4  -5198.3155785 -0.104432E-05  0.264E-04    3.86       6.1  T
   5  -5198.3155787 -0.181121E-06  0.859E-05    3.86      18.7  T
     SCC iter.                  ...       17 min, 39.186 sec
     gradient                   ...        4 min, 40.568 sec
 * total energy  : -5104.0060972 Eh     change    :  -0.4687255E-02 Eh
   gradient norm :     0.1263231 Eh/a0  converged?    E=F G=F D=F
   time step     :     0.2435896 fs     power     :   0.2385046E-06
   step length   :     0.0352240 a0     speed     :   0.3497798E-02

........................................................................
.............................. CYCLE   17 ..............................
........................................................................

 iter      E             dE          RMSdq      gap      omega  full diag
   1  -5198.2532794 -0.519825E+04  0.394E-03    3.86       0.0  T
   2  -5198.2532863 -0.697725E-05  0.236E-03    3.86       1.0  T
   3  -5198.2532857  0.624947E-06  0.103E-03    3.86       1.6  T
   4  -5198.2532871 -0.135916E-05  0.307E-04    3.86       5.2  T
   5  -5198.2532873 -0.245067E-06  0.995E-05    3.86      16.2  T
   6  -5198.2532873 -0.940418E-08  0.637E-05    3.86      25.3  T
     SCC iter.                  ...       21 min,  6.566 sec
     gradient                   ...        4 min, 46.349 sec
 * total energy  : -5104.0109581 Eh     change    :  -0.4860881E-02 Eh
   gradient norm :     0.1101350 Eh/a0  converged?    E=F G=F D=F
   time step     :     0.2435896 fs     power     :   0.2422923E-06
   step length   :     0.0421245 a0     speed     :   0.4183031E-02

........................................................................
.............................. CYCLE   18 ..............................
........................................................................

 iter      E             dE          RMSdq      gap      omega  full diag
   1  -5198.1815533 -0.519818E+04  0.441E-03    3.86       0.0  T
   2  -5198.1815616 -0.830736E-05  0.265E-03    3.86       1.0  T
   3  -5198.1815606  0.969771E-06  0.113E-03    3.86       1.4  T
   4  -5198.1815624 -0.180080E-05  0.351E-04    3.86       4.6  T
   5  -5198.1815628 -0.336592E-06  0.108E-04    3.86      14.8  T
   6  -5198.1815628 -0.999898E-08  0.675E-05    3.86      23.8  T
     SCC iter.                  ...       21 min, 10.185 sec
     gradient                   ...        4 min, 42.031 sec
 * total energy  : -5104.0156149 Eh     change    :  -0.4656842E-02 Eh
   gradient norm :     0.0960140 Eh/a0  converged?    E=F G=F D=F
   time step     :     0.2435896 fs     power     :   0.2272194E-06
   step length   :     0.0479149 a0     speed     :   0.4758025E-02

........................................................................
.............................. CYCLE   19 ..............................
........................................................................

 iter      E             dE          RMSdq      gap      omega  full diag
   1  -5198.0936049 -0.519809E+04  0.526E-03    3.86       0.0  T
   2  -5198.0936157 -0.108090E-04  0.315E-03    3.86       1.0  T
   3  -5198.0936141  0.167762E-05  0.130E-03    3.86       1.2  T
   4  -5198.0936168 -0.272311E-05  0.415E-04    3.86       3.9  T
   5  -5198.0936173 -0.495234E-06  0.125E-04    3.86      12.9  T
   6  -5198.0936173 -0.107857E-07  0.754E-05    3.86      21.3  T
     SCC iter.                  ...       21 min, 11.305 sec
     gradient                   ...        4 min, 45.970 sec
 * total energy  : -5104.0202470 Eh     change    :  -0.4632087E-02 Eh
   gradient norm :     0.0854411 Eh/a0  converged?    E=F G=F D=F
   time step     :     0.2679486 fs     power     :   0.1984402E-06
   step length   :     0.0582849 a0     speed     :   0.5261623E-02

........................................................................
.............................. CYCLE   20 ..............................
........................................................................

 iter      E             dE          RMSdq      gap      omega  full diag
   1  -5197.9901069 -0.519799E+04  0.608E-03    3.86       0.0  T
   2  -5197.9901193 -0.123940E-04  0.364E-03    3.86       1.0  T
   3  -5197.9901164  0.286180E-05  0.143E-03    3.86       1.1  T
   4  -5197.9901205 -0.409190E-05  0.465E-04    3.86       3.5  T
   5  -5197.9901211 -0.653642E-06  0.138E-04    3.86      11.7  T
   6  -5197.9901211 -0.858381E-08  0.790E-05    3.86      20.4  T
     SCC iter.                  ...       21 min,  7.602 sec
     gradient                   ...        4 min, 42.518 sec
 * total energy  : -5104.0246416 Eh     change    :  -0.4394556E-02 Eh
   gradient norm :     0.0809256 Eh/a0  converged?    E=F G=F D=F
   time step     :     0.2947435 fs     power     :   0.1656543E-06
   step length   :     0.0689275 a0     speed     :   0.5656703E-02
 * RMSD in coord.:     0.0409806 a0     energy gain  -0.6933404E+00 Eh

........................................................................
.............................. CYCLE   21 ..............................
........................................................................

 iter      E             dE          RMSdq      gap      omega  full diag
   1  -5197.9023869 -0.519790E+04  0.520E-03    3.86       0.0  T
   2  -5197.9023942 -0.721577E-05  0.312E-03    3.86       1.0  T
   3  -5197.9023915  0.268258E-05  0.116E-03    3.86       1.4  T
   4  -5197.9023950 -0.352896E-05  0.365E-04    3.86       4.4  T
   5  -5197.9023954 -0.418010E-06  0.111E-04    3.86      14.5  T
   6  -5197.9023954 -0.291220E-08  0.599E-05    3.86      26.9  T
     SCC iter.                  ...       21 min,  7.397 sec
     gradient                   ...        4 min, 39.663 sec
 * total energy  : -5104.0278807 Eh     change    :  -0.3239144E-02 Eh
   gradient norm :     0.0808801 Eh/a0  converged?    E=F G=F D=F
   time step     :     0.2500000 fs     power     :   0.1492471E-06
   step length   :     0.0601312 a0     speed     :   0.5818020E-02

........................................................................
.............................. CYCLE   22 ..............................
........................................................................

 iter      E             dE          RMSdq      gap      omega  full diag
   1  -5197.8186930 -0.519782E+04  0.520E-03    3.86       0.0  T
   2  -5197.8186983 -0.528173E-05  0.312E-03    3.86       1.0  T
   3  -5197.8186949  0.334086E-05  0.111E-03    3.86       1.5  T
   4  -5197.8186991 -0.421557E-05  0.309E-04    3.86       5.2  T
   5  -5197.8186994 -0.297449E-06  0.101E-04    3.86      15.9  T
   6  -5197.8186994 -0.505679E-09  0.520E-05    3.86      30.9  T
     SCC iter.                  ...       21 min, 10.574 sec
     gradient                   ...        4 min, 40.033 sec
 * total energy  : -5104.0309402 Eh     change    :  -0.3059500E-02 Eh
   gradient norm :     0.0810867 Eh/a0  converged?    E=F G=F D=F
   time step     :     0.2500000 fs     power     :   0.1442917E-06
   step length   :     0.0609694 a0     speed     :   0.5899115E-02

........................................................................
.............................. CYCLE   23 ..............................
........................................................................

 iter      E             dE          RMSdq      gap      omega  full diag
   1  -5197.7422491 -0.519774E+04  0.522E-03    3.86       0.0  T
   2  -5197.7422527 -0.364574E-05  0.313E-03    3.86       1.0  T
   3  -5197.7422488  0.388225E-05  0.108E-03    3.86       1.5  T
   4  -5197.7422536 -0.481156E-05  0.247E-04    3.86       6.5  T
   5  -5197.7422538 -0.175673E-06  0.944E-05    3.86      17.0  T
   6  -5197.7422538 -0.116324E-08  0.499E-05    3.86      32.2  T
     SCC iter.                  ...       21 min,  8.101 sec
     gradient                   ...        4 min, 42.242 sec
 * total energy  : -5104.0339864 Eh     change    :  -0.3046206E-02 Eh
   gradient norm :     0.0798517 Eh/a0  converged?    E=F G=F D=F
   time step     :     0.2500000 fs     power     :   0.1468287E-06
   step length   :     0.0615089 a0     speed     :   0.5951315E-02

........................................................................
.............................. CYCLE   24 ..............................
........................................................................

 iter      E             dE          RMSdq      gap      omega  full diag
   1  -5197.6754051 -0.519768E+04  0.527E-03    3.86       0.0  T
   2  -5197.6754076 -0.251933E-05  0.315E-03    3.86       1.0  T
   3  -5197.6754035  0.411363E-05  0.107E-03    3.86       1.5  T
   4  -5197.6754086 -0.505371E-05  0.201E-04    3.86       8.0  T
   5  -5197.6754087 -0.102528E-06  0.927E-05    3.86      17.3  T
   6  -5197.6754087 -0.431373E-08  0.518E-05    3.86      31.0  T
     SCC iter.                  ...       21 min,  5.518 sec
     gradient                   ...        4 min, 40.708 sec
 * total energy  : -5104.0370917 Eh     change    :  -0.3105312E-02 Eh
   gradient norm :     0.0768995 Eh/a0  converged?    E=F G=F D=F
   time step     :     0.2500000 fs     power     :   0.1516421E-06
   step length   :     0.0621058 a0     speed     :   0.6009070E-02

........................................................................
.............................. CYCLE   25 ..............................
........................................................................

 iter      E             dE          RMSdq      gap      omega  full diag
   1  -5197.6197238 -0.519762E+04  0.532E-03    3.86       0.0  T
   2  -5197.6197257 -0.186211E-05  0.318E-03    3.86       1.0  T
   3  -5197.6197218  0.391197E-05  0.103E-03    3.86       1.6  T
   4  -5197.6197266 -0.478873E-05  0.179E-04    3.86       9.0  T
   5  -5197.6197266 -0.727296E-07  0.967E-05    3.86      16.6  T
   6  -5197.6197266 -0.100208E-07  0.573E-05    3.86      28.1  T
     SCC iter.                  ...       21 min,  5.080 sec
     gradient                   ...        4 min, 40.076 sec
 * total energy  : -5104.0402483 Eh     change    :  -0.3156527E-02 Eh
   gradient norm :     0.0728261 Eh/a0  converged?    E=F G=F D=F
   time step     :     0.2500000 fs     power     :   0.1549108E-06
   step length   :     0.0628951 a0     speed     :   0.6085440E-02

........................................................................
.............................. CYCLE   26 ..............................
........................................................................

 iter      E             dE          RMSdq      gap      omega  full diag
   1  -5197.5720048 -0.519757E+04  0.591E-03    3.86       0.0  T
   2  -5197.5720066 -0.184023E-05  0.352E-03    3.85       1.0  T
   3  -5197.5720027  0.396537E-05  0.104E-03    3.85       1.6  T
   4  -5197.5720075 -0.486490E-05  0.190E-04    3.85       8.5  T
   5  -5197.5720076 -0.766040E-07  0.115E-04    3.85      14.0  T
   6  -5197.5720076 -0.202708E-07  0.735E-05    3.85      21.9  T
     SCC iter.                  ...       21 min,  7.318 sec
     gradient                   ...        4 min, 38.535 sec
 * total energy  : -5104.0437282 Eh     change    :  -0.3479909E-02 Eh
   gradient norm :     0.0680774 Eh/a0  converged?    E=F G=F D=F
   time step     :     0.2750000 fs     power     :   0.1539894E-06
   step length   :     0.0705817 a0     speed     :   0.6208322E-02

........................................................................
.............................. CYCLE   27 ..............................
........................................................................

 iter      E             dE          RMSdq      gap      omega  full diag
   1  -5197.5351735 -0.519754E+04  0.650E-03    3.85       0.0  T
   2  -5197.5351754 -0.192812E-05  0.385E-03    3.85       1.0  T
   3  -5197.5351721  0.328834E-05  0.963E-04    3.85       1.7  T
   4  -5197.5351762 -0.410791E-05  0.211E-04    3.85       7.6  T
   5  -5197.5351763 -0.924101E-07  0.136E-04    3.85      11.9  T
   6  -5197.5351764 -0.310783E-07  0.938E-05    3.85      17.1  T
     SCC iter.                  ...       21 min,  2.705 sec
     gradient                   ...        4 min, 37.909 sec
 * total energy  : -5104.0474633 Eh     change    :  -0.3735152E-02 Eh
   gradient norm :     0.0636289 Eh/a0  converged?    E=F G=F D=F
   time step     :     0.3025000 fs     power     :   0.1485970E-06
   step length   :     0.0795827 a0     speed     :   0.6363684E-02

........................................................................
.............................. CYCLE   28 ..............................
........................................................................

 iter      E             dE          RMSdq      gap      omega  full diag
   1  -5197.5119704 -0.519751E+04  0.704E-03    3.85       0.0  T
   2  -5197.5119724 -0.200298E-05  0.415E-03    3.85       1.0  T
   3  -5197.5119703  0.207560E-05  0.826E-04    3.85       1.9  T
   4  -5197.5119731 -0.277357E-05  0.235E-04    3.85       6.9  T
   5  -5197.5119732 -0.110565E-06  0.154E-04    3.85      10.4  T
   6  -5197.5119732 -0.420860E-07  0.108E-04    3.85      14.9  T
     SCC iter.                  ...       21 min,  3.936 sec
     gradient                   ...        4 min, 40.421 sec
 * total energy  : -5104.0513849 Eh     change    :  -0.3921614E-02 Eh
   gradient norm :     0.0599800 Eh/a0  converged?    E=F G=F D=F
   time step     :     0.3327500 fs     power     :   0.1402184E-06
   step length   :     0.0898316 a0     speed     :   0.6530193E-02

........................................................................
.............................. CYCLE   29 ..............................
........................................................................

 iter      E             dE          RMSdq      gap      omega  full diag
   1  -5197.5045015 -0.519750E+04  0.743E-03    3.85       0.0  T
   2  -5197.5045036 -0.206765E-05  0.438E-03    3.84       1.0  T
   3  -5197.5045021  0.155433E-05  0.800E-04    3.84       2.0  T
   4  -5197.5045043 -0.227859E-05  0.245E-04    3.84       6.6  T
   5  -5197.5045044 -0.978225E-07  0.168E-04    3.84       9.6  T
   6  -5197.5045045 -0.545206E-07  0.112E-04    3.84      14.4  T
     SCC iter.                  ...       21 min,  7.934 sec
     gradient                   ...        4 min, 41.368 sec
 * total energy  : -5104.0554474 Eh     change    :  -0.4062473E-02 Eh
   gradient norm :     0.0571450 Eh/a0  converged?    E=F G=F D=F
   time step     :     0.3660250 fs     power     :   0.1306758E-06
   step length   :     0.1012351 a0     speed     :   0.6690143E-02

........................................................................
.............................. CYCLE   30 ..............................
........................................................................

 iter      E             dE          RMSdq      gap      omega  full diag
   1  -5197.5139226 -0.519751E+04  0.765E-03    3.84       0.0  T
   2  -5197.5139249 -0.226346E-05  0.452E-03    3.84       1.0  T
   3  -5197.5139221  0.274589E-05  0.101E-03    3.84       1.6  T
   4  -5197.5139258 -0.372643E-05  0.240E-04    3.84       6.7  T
   5  -5197.5139259 -0.777409E-07  0.171E-04    3.84       9.4  T
   6  -5197.5139260 -0.559421E-07  0.109E-04    3.84      14.7  T
     SCC iter.                  ...       21 min,  2.629 sec
     gradient                   ...        4 min, 43.643 sec
 * total energy  : -5104.0596409 Eh     change    :  -0.4193514E-02 Eh
   gradient norm :     0.0556526 Eh/a0  converged?    E=F G=F D=F
   time step     :     0.4026275 fs     power     :   0.1217287E-06
   step length   :     0.1137531 a0     speed     :   0.6834000E-02

........................................................................
.............................. CYCLE   31 ..............................
........................................................................

 iter      E             dE          RMSdq      gap      omega  full diag
   1  -5197.5404256 -0.519754E+04  0.768E-03    3.84       0.0  T
   2  -5197.5404282 -0.257756E-05  0.456E-03    3.84       1.0  T
   3  -5197.5404240  0.421785E-05  0.118E-03    3.84       1.4  T
   4  -5197.5404294 -0.543307E-05  0.229E-04    3.84       7.0  T
   5  -5197.5404295 -0.709661E-07  0.158E-04    3.84      10.2  T
   6  -5197.5404295 -0.416339E-07  0.988E-05    3.84      16.3  T
     SCC iter.                  ...       21 min,  7.180 sec
     gradient                   ...        4 min, 41.149 sec
 * total energy  : -5104.0640435 Eh     change    :  -0.4402567E-02 Eh
   gradient norm :     0.0562269 Eh/a0  converged?    E=F G=F D=F
   time step     :     0.4428903 fs     power     :   0.1166695E-06
   step length   :     0.1274174 a0     speed     :   0.6959016E-02

........................................................................
.............................. CYCLE   32 ..............................
........................................................................

 iter      E             dE          RMSdq      gap      omega  full diag
   1  -5197.5838358 -0.519758E+04  0.765E-03    3.84       0.0  T
   2  -5197.5838385 -0.269370E-05  0.457E-03    3.84       1.0  T
   3  -5197.5838349  0.357732E-05  0.105E-03    3.83       1.5  T
   4  -5197.5838394 -0.455573E-05  0.213E-04    3.83       7.5  T
   5  -5197.5838395 -0.717282E-07  0.129E-04    3.83      12.5  T
   6  -5197.5838395 -0.208793E-07  0.790E-05    3.83      20.4  T
     SCC iter.                  ...       21 min,  3.370 sec
     gradient                   ...        4 min, 41.461 sec
 * total energy  : -5104.0688902 Eh     change    :  -0.4846739E-02 Eh
   gradient norm :     0.0567085 Eh/a0  converged?    E=F G=F D=F
   time step     :     0.4871793 fs     power     :   0.1188953E-06
   step length   :     0.1425789 a0     speed     :   0.7079158E-02

........................................................................
.............................. CYCLE   33 ..............................
........................................................................

 iter      E             dE          RMSdq      gap      omega  full diag
   1  -5197.6451477 -0.519765E+04  0.791E-03    3.84       0.0  T
   2  -5197.6451507 -0.299087E-05  0.473E-03    3.84       1.0  T
   3  -5197.6451489  0.188749E-05  0.789E-04    3.83       2.0  T
   4  -5197.6451513 -0.247320E-05  0.228E-04    3.83       7.0  T
   5  -5197.6451514 -0.119131E-06  0.105E-04    3.83      15.3  T
   6  -5197.6451515 -0.730233E-08  0.517E-05    3.83      31.1  T
     SCC iter.                  ...       21 min,  8.990 sec
     gradient                   ...        4 min, 37.963 sec
 * total energy  : -5104.0744140 Eh     change    :  -0.5523812E-02 Eh
   gradient norm :     0.0524605 Eh/a0  converged?    E=F G=F D=F
   time step     :     0.5358972 fs     power     :   0.1237273E-06
   step length   :     0.1603402 a0     speed     :   0.7237289E-02

........................................................................
.............................. CYCLE   34 ..............................
........................................................................

 iter      E             dE          RMSdq      gap      omega  full diag
   1  -5197.7283684 -0.519773E+04  0.870E-03    3.84       0.0  T
   2  -5197.7283730 -0.452320E-05  0.521E-03    3.84       1.0  T
   3  -5197.7283656  0.733677E-05  0.139E-03    3.84       1.2  T
   4  -5197.7283744 -0.877673E-05  0.268E-04    3.84       6.0  T
   5  -5197.7283746 -0.205706E-06  0.120E-04    3.84      13.5  T
   6  -5197.7283746 -0.804448E-08  0.576E-05    3.84      27.9  T
     SCC iter.                  ...       21 min, 10.186 sec
     gradient                   ...        4 min, 38.122 sec
 * total energy  : -5104.0803806 Eh     change    :  -0.5966545E-02 Eh
   gradient norm :     0.0438714 Eh/a0  converged?    E=F G=F D=F
   time step     :     0.5894869 fs     power     :   0.1168661E-06
   step length   :     0.1819117 a0     speed     :   0.7464515E-02

........................................................................
.............................. CYCLE   35 ..............................
........................................................................

 iter      E             dE          RMSdq      gap      omega  full diag
   1  -5197.8410435 -0.519784E+04  0.955E-03    3.84       0.0  T
   2  -5197.8410499 -0.641676E-05  0.579E-03    3.84       1.0  T
   3  -5197.8410313  0.185535E-04  0.215E-03    3.84       1.0  T
   4  -5197.8410538 -0.224622E-04  0.299E-04    3.84       5.4  T
   5  -5197.8410540 -0.217206E-06  0.141E-04    3.84      11.4  T
   6  -5197.8410540 -0.939963E-08  0.656E-05    3.84      24.5  T
     SCC iter.                  ...       21 min,  5.051 sec
     gradient                   ...        4 min, 39.010 sec
 * total energy  : -5104.0860961 Eh     change    :  -0.5715496E-02 Eh
   gradient norm :     0.0417540 Eh/a0  converged?    E=F G=F D=F
   time step     :     0.6484356 fs     power     :   0.9578186E-07
   step length   :     0.2067387 a0     speed     :   0.7712055E-02

........................................................................
.............................. CYCLE   36 ..............................
........................................................................

 iter      E             dE          RMSdq      gap      omega  full diag
   1  -5197.9861343 -0.519799E+04  0.986E-03    3.84       0.0  T
   2  -5197.9861409 -0.659423E-05  0.600E-03    3.84       1.0  T
   3  -5197.9861171  0.238197E-04  0.238E-03    3.84       1.0  T
   4  -5197.9861458 -0.287260E-04  0.284E-04    3.84       5.7  T
   5  -5197.9861460 -0.155436E-06  0.140E-04    3.84      11.5  T
   6  -5197.9861460 -0.772707E-08  0.633E-05    3.84      25.4  T
     SCC iter.                  ...       21 min,  9.801 sec
     gradient                   ...        4 min, 39.478 sec
 * total energy  : -5104.0915024 Eh     change    :  -0.5406356E-02 Eh
   gradient norm :     0.0436410 Eh/a0  converged?    E=F G=F D=F
   time step     :     0.7132792 fs     power     :   0.8256857E-07
   step length   :     0.2313118 a0     speed     :   0.7844285E-02

........................................................................
.............................. CYCLE   37 ..............................
........................................................................

 iter      E             dE          RMSdq      gap      omega  full diag
   1  -5198.1506324 -0.519815E+04  0.102E-02    3.84       0.0  T
   2  -5198.1506412 -0.874941E-05  0.613E-03    3.84       1.0  T
   3  -5198.1506251  0.160902E-04  0.223E-03    3.84       1.0  T
   4  -5198.1506448 -0.196418E-04  0.351E-04    3.84       4.6  T
   5  -5198.1506451 -0.317616E-06  0.151E-04    3.84      10.7  T
   6  -5198.1506451 -0.981981E-08  0.839E-05    3.84      19.2  T
     SCC iter.                  ...       21 min,  4.857 sec
     gradient                   ...        4 min, 38.039 sec
 * total energy  : -5104.0969876 Eh     change    :  -0.5485152E-02 Eh
   gradient norm :     0.0400246 Eh/a0  converged?    E=F G=F D=F
   time step     :     0.7846071 fs     power     :   0.7487806E-07
   step length   :     0.2563987 a0     speed     :   0.7904577E-02

........................................................................
.............................. CYCLE   38 ..............................
........................................................................

 iter      E             dE          RMSdq      gap      omega  full diag
   1  -5198.2986417 -0.519830E+04  0.106E-02    3.84       0.0  T
   2  -5198.2986513 -0.962295E-05  0.624E-03    3.84       1.0  T
   3  -5198.2986431  0.823981E-05  0.186E-03    3.84       1.0  T
   4  -5198.2986534 -0.103651E-04  0.355E-04    3.84       4.5  T
   5  -5198.2986537 -0.290284E-06  0.156E-04    3.84      10.3  T
   6  -5198.2986537 -0.119817E-07  0.885E-05    3.84      18.2  T
     SCC iter.                  ...       21 min,  4.543 sec
     gradient                   ...        4 min, 40.871 sec
 * total energy  : -5104.1023706 Eh     change    :  -0.5383005E-02 Eh
   gradient norm :     0.0424483 Eh/a0  converged?    E=F G=F D=F
   time step     :     0.8630678 fs     power     :   0.6460927E-07
   step length   :     0.2839317 a0     speed     :   0.7957637E-02

........................................................................
.............................. CYCLE   39 ..............................
........................................................................

 iter      E             dE          RMSdq      gap      omega  full diag
   1  -5198.3785849 -0.519838E+04  0.106E-02    3.84       0.0  T
   2  -5198.3785896 -0.472861E-05  0.628E-03    3.84       1.0  T
   3  -5198.3785838  0.580391E-05  0.137E-03    3.84       1.2  T
   4  -5198.3785910 -0.720782E-05  0.266E-04    3.84       6.0  T
   5  -5198.3785911 -0.133178E-06  0.134E-04    3.84      12.0  T
   6  -5198.3785911 -0.773252E-08  0.578E-05    3.84      27.8  T
     SCC iter.                  ...       21 min,  7.277 sec
     gradient                   ...        4 min, 40.169 sec
 * total energy  : -5104.1082620 Eh     change    :  -0.5891384E-02 Eh
   gradient norm :     0.0424134 Eh/a0  converged?    E=F G=F D=F
   time step     :     0.9493746 fs     power     :   0.6817284E-07
   step length   :     0.3126573 a0     speed     :   0.7966105E-02

........................................................................
.............................. CYCLE   40 ..............................
........................................................................

 iter      E             dE          RMSdq      gap      omega  full diag
   1  -5198.3555384 -0.519836E+04  0.110E-02    3.84       0.0  T
   2  -5198.3555471 -0.868642E-05  0.661E-03    3.84       1.0  T
   3  -5198.3555321  0.150772E-04  0.204E-03    3.84       1.0  T
   4  -5198.3555506 -0.185591E-04  0.362E-04    3.84       4.4  T
   5  -5198.3555509 -0.267535E-06  0.222E-04    3.84       7.2  T
   6  -5198.3555509 -0.475602E-07  0.142E-04    3.84      11.3  T
     SCC iter.                  ...       21 min,  7.452 sec
     gradient                   ...        4 min, 38.701 sec
 * total energy  : -5104.1149989 Eh     change    :  -0.6736918E-02 Eh
   gradient norm :     0.0395452 Eh/a0  converged?    E=F G=F D=F
   time step     :     1.0443120 fs     power     :   0.6943623E-07
   step length   :     0.3477217 a0     speed     :   0.8054093E-02

........................................................................
.............................. CYCLE   41 ..............................
........................................................................

 iter      E             dE          RMSdq      gap      omega  full diag
   1  -5198.2493451 -0.519825E+04  0.121E-02    3.84       0.0  T
   2  -5198.2493624 -0.173342E-04  0.730E-03    3.84       1.0  T
   3  -5198.2493470  0.154123E-04  0.228E-03    3.84       1.0  T
   4  -5198.2493663 -0.193053E-04  0.535E-04    3.84       3.0  T
   5  -5198.2493671 -0.839073E-06  0.261E-04    3.84       6.2  T
   6  -5198.2493672 -0.566997E-07  0.168E-04    3.84       9.6  T
     SCC iter.                  ...       21 min,  6.673 sec
     gradient                   ...        4 min, 47.704 sec
 * total energy  : -5104.1220588 Eh     change    :  -0.7059858E-02 Eh
   gradient norm :     0.0362087 Eh/a0  converged?    E=F G=F D=F
   time step     :     1.1487432 fs     power     :   0.6217189E-07
   step length   :     0.3894218 a0     speed     :   0.8199972E-02

........................................................................
.............................. CYCLE   42 ..............................
........................................................................

 iter      E             dE          RMSdq      gap      omega  full diag
   1  -5198.1390138 -0.519814E+04  0.133E-02    3.84       0.0  T
   2  -5198.1390231 -0.933429E-05  0.791E-03    3.84       1.0  T
   3  -5198.1390062  0.169243E-04  0.248E-03    3.84       1.0  T
   4  -5198.1390270 -0.208385E-04  0.375E-04    3.84       4.3  T
   5  -5198.1390272 -0.203036E-06  0.198E-04    3.84       8.1  T
   6  -5198.1390272 -0.191267E-07  0.932E-05    3.84      17.3  T
     SCC iter.                  ...       21 min,  8.825 sec
     gradient                   ...        4 min, 40.893 sec
 * total energy  : -5104.1289461 Eh     change    :  -0.6887292E-02 Eh
   gradient norm :     0.0374729 Eh/a0  converged?    E=F G=F D=F
   time step     :     1.2500000 fs     power     :   0.5502269E-07
   step length   :     0.4296577 a0     speed     :   0.8314339E-02
 * RMSD in coord.:     0.0552851 a0     energy gain  -0.1043045E+00 Eh

........................................................................
.............................. CYCLE   43 ..............................
........................................................................

 iter      E             dE          RMSdq      gap      omega  full diag
   1  -5198.1254477 -0.519813E+04  0.227E-03    3.84       0.0  T
   2  -5198.1254480 -0.310853E-06  0.138E-03    3.84       1.2  T
   3  -5198.1254469  0.111394E-05  0.538E-04    3.84       3.0  T
   4  -5198.1254483 -0.134630E-05  0.696E-05    3.84      23.1  T
   5  -5198.1254483 -0.947057E-08  0.401E-05    3.84      40.2  T
   6  -5198.1254483 -0.175078E-08  0.219E-05    3.84      73.3  T
     SCC iter.                  ...       21 min, 12.560 sec
     gradient                   ...        4 min, 38.491 sec
 * total energy  : -5104.1302388 Eh     change    :  -0.1292724E-02 Eh
   gradient norm :     0.0366448 Eh/a0  converged?    E=F G=F D=F
   time step     :     0.2500000 fs     power     :   0.6624373E-07
   step length   :     0.0814547 a0     speed     :   0.7881178E-02

........................................................................
.............................. CYCLE   44 ..............................
........................................................................

 iter      E             dE          RMSdq      gap      omega  full diag
   1  -5198.1204870 -0.519812E+04  0.227E-03    3.84       0.0  T
   2  -5198.1204876 -0.575896E-06  0.141E-03    3.84       1.1  T
   3  -5198.1204862  0.140179E-05  0.635E-04    3.84       2.5  T
   4  -5198.1204880 -0.183992E-05  0.813E-05    3.84      19.8  T
   5  -5198.1204880 -0.186446E-07  0.368E-05    3.84      43.7  T
   6  -5198.1204880 -0.960426E-09  0.200E-05    3.84      80.5  T
     SCC iter.                  ...       21 min,  6.095 sec
     gradient                   ...        4 min, 42.042 sec
 * total energy  : -5104.1316784 Eh     change    :  -0.1439575E-02 Eh
   gradient norm :     0.0329341 Eh/a0  converged?    E=F G=F D=F
   time step     :     0.2500000 fs     power     :   0.7320016E-07
   step length   :     0.0781740 a0     speed     :   0.7563755E-02

........................................................................
.............................. CYCLE   45 ..............................
........................................................................

 iter      E             dE          RMSdq      gap      omega  full diag
   1  -5198.1241802 -0.519812E+04  0.248E-03    3.84       0.0  T
   2  -5198.1241811 -0.896023E-06  0.156E-03    3.84       1.0  T
   3  -5198.1241795  0.161625E-05  0.730E-04    3.84       2.2  T
   4  -5198.1241818 -0.227934E-05  0.978E-05    3.84      16.5  T
   5  -5198.1241818 -0.272166E-07  0.432E-05    3.84      37.2  T
   6  -5198.1241818 -0.134605E-08  0.241E-05    3.84      66.8  T
     SCC iter.                  ...       21 min,  6.172 sec
     gradient                   ...        4 min, 41.790 sec
 * total energy  : -5104.1331512 Eh     change    :  -0.1472888E-02 Eh
   gradient norm :     0.0286763 Eh/a0  converged?    E=F G=F D=F
   time step     :     0.2500000 fs     power     :   0.7341794E-07
   step length   :     0.0760247 a0     speed     :   0.7355800E-02

........................................................................
.............................. CYCLE   46 ..............................
........................................................................

 iter      E             dE          RMSdq      gap      omega  full diag
   1  -5198.1365798 -0.519814E+04  0.267E-03    3.84       0.0  T
   2  -5198.1365807 -0.963081E-06  0.167E-03    3.84       1.0  T
   3  -5198.1365788  0.195493E-05  0.774E-04    3.84       2.1  T
   4  -5198.1365815 -0.266351E-05  0.101E-04    3.84      15.9  T
   5  -5198.1365815 -0.264317E-07  0.481E-05    3.84      33.4  T
   6  -5198.1365815 -0.185082E-08  0.265E-05    3.84      60.7  T
     SCC iter.                  ...       21 min,  7.591 sec
     gradient                   ...        4 min, 39.791 sec
 * total energy  : -5104.1345592 Eh     change    :  -0.1407964E-02 Eh
   gradient norm :     0.0264606 Eh/a0  converged?    E=F G=F D=F
   time step     :     0.2500000 fs     power     :   0.6923457E-07
   step length   :     0.0746575 a0     speed     :   0.7223516E-02

........................................................................
.............................. CYCLE   47 ..............................
........................................................................

 iter      E             dE          RMSdq      gap      omega  full diag
   1  -5198.1570276 -0.519816E+04  0.272E-03    3.84       0.0  T
   2  -5198.1570283 -0.714988E-06  0.167E-03    3.84       1.0  T
   3  -5198.1570263  0.197439E-05  0.719E-04    3.84       2.2  T
   4  -5198.1570288 -0.248539E-05  0.916E-05    3.84      17.6  T
   5  -5198.1570288 -0.184282E-07  0.475E-05    3.84      33.9  T
   6  -5198.1570288 -0.145428E-08  0.253E-05    3.84      63.5  T
     SCC iter.                  ...       21 min,  6.214 sec
     gradient                   ...        4 min, 43.461 sec
 * total energy  : -5104.1358811 Eh     change    :  -0.1321915E-02 Eh
   gradient norm :     0.0266016 Eh/a0  converged?    E=F G=F D=F
   time step     :     0.2500000 fs     power     :   0.6531457E-07
   step length   :     0.0734579 a0     speed     :   0.7107448E-02

........................................................................
.............................. CYCLE   48 ..............................
........................................................................

 iter      E             dE          RMSdq      gap      omega  full diag
   1  -5198.1866778 -0.519819E+04  0.292E-03    3.84       0.0  T
   2  -5198.1866783 -0.487207E-06  0.175E-03    3.84       1.0  T
   3  -5198.1866768  0.147133E-05  0.607E-04    3.84       2.7  T
   4  -5198.1866786 -0.176607E-05  0.858E-05    3.84      18.8  T
   5  -5198.1866786 -0.143573E-07  0.464E-05    3.84      34.7  T
   6  -5198.1866786 -0.118780E-08  0.224E-05    3.84      71.7  T
     SCC iter.                  ...       21 min,  4.468 sec
     gradient                   ...        4 min, 41.998 sec
 * total energy  : -5104.1372817 Eh     change    :  -0.1400557E-02 Eh
   gradient norm :     0.0272836 Eh/a0  converged?    E=F G=F D=F
   time step     :     0.2750000 fs     power     :   0.6357714E-07
   step length   :     0.0793780 a0     speed     :   0.6982040E-02

........................................................................
.............................. CYCLE   49 ..............................
........................................................................

 iter      E             dE          RMSdq      gap      omega  full diag
   1  -5198.2245914 -0.519822E+04  0.307E-03    3.84       0.0  T
   2  -5198.2245917 -0.351850E-06  0.182E-03    3.84       1.0  T
   3  -5198.2245911  0.601900E-06  0.454E-04    3.84       3.5  T
   4  -5198.2245919 -0.751135E-06  0.777E-05    3.84      20.7  T
     SCC iter.                  ...       14 min,  4.468 sec
     gradient                   ...        4 min, 42.368 sec
 * total energy  : -5104.1388092 Eh     change    :  -0.1527541E-02 Eh
   gradient norm :     0.0269967 Eh/a0  converged?    E=F G=F D=F
   time step     :     0.3025000 fs     power     :   0.6355090E-07
   step length   :     0.0857987 a0     speed     :   0.6860731E-02

........................................................................
.............................. CYCLE   50 ..............................
........................................................................

 iter      E             dE          RMSdq      gap      omega  full diag
   1  -5198.2690339 -0.519827E+04  0.324E-03    3.84       0.0  T
   2  -5198.2690343 -0.394170E-06  0.192E-03    3.84       1.0  T
   3  -5198.2690336  0.778210E-06  0.503E-04    3.84       3.2  T
   4  -5198.2690345 -0.967173E-06  0.748E-05    3.84      21.5  T
     SCC iter.                  ...       14 min,  7.701 sec
     gradient                   ...        4 min, 39.189 sec
 * total energy  : -5104.1404831 Eh     change    :  -0.1673890E-02 Eh
   gradient norm :     0.0254504 Eh/a0  converged?    E=F G=F D=F
   time step     :     0.3327500 fs     power     :   0.6318128E-07
   step length   :     0.0931429 a0     speed     :   0.6770907E-02

........................................................................
.............................. CYCLE   51 ..............................
........................................................................

 iter      E             dE          RMSdq      gap      omega  full diag
   1  -5198.3170212 -0.519832E+04  0.343E-03    3.84       0.0  T
   2  -5198.3170218 -0.552683E-06  0.206E-03    3.84       1.0  T
   3  -5198.3170202  0.156056E-05  0.626E-04    3.84       2.6  T
   4  -5198.3170221 -0.187772E-05  0.875E-05    3.84      18.4  T
   5  -5198.3170221 -0.110485E-07  0.488E-05    3.84      32.9  T
   6  -5198.3170221 -0.155796E-08  0.225E-05    3.84      71.6  T
     SCC iter.                  ...       21 min,  8.572 sec
     gradient                   ...        4 min, 41.351 sec
 * total energy  : -5104.1422771 Eh     change    :  -0.1793971E-02 Eh
   gradient norm :     0.0232719 Eh/a0  converged?    E=F G=F D=F
   time step     :     0.3660250 fs     power     :   0.6085468E-07
   step length   :     0.1017672 a0     speed     :   0.6725306E-02

........................................................................
.............................. CYCLE   52 ..............................
........................................................................

 iter      E             dE          RMSdq      gap      omega  full diag
   1  -5198.3636681 -0.519836E+04  0.365E-03    3.84       0.0  T
   2  -5198.3636688 -0.675028E-06  0.218E-03    3.84       1.0  T
   3  -5198.3636675  0.132484E-05  0.600E-04    3.84       2.7  T
   4  -5198.3636691 -0.161979E-05  0.103E-04    3.84      15.7  T
   5  -5198.3636691 -0.191221E-07  0.537E-05    3.84      30.0  T
   6  -5198.3636691 -0.958607E-09  0.229E-05    3.84      70.4  T
     SCC iter.                  ...       21 min,  8.178 sec
     gradient                   ...        4 min, 45.537 sec
 * total energy  : -5104.1441346 Eh     change    :  -0.1857515E-02 Eh
   gradient norm :     0.0217047 Eh/a0  converged?    E=F G=F D=F
   time step     :     0.4026275 fs     power     :   0.5644955E-07
   step length   :     0.1117748 a0     speed     :   0.6715150E-02

........................................................................
.............................. CYCLE   53 ..............................
........................................................................

 iter      E             dE          RMSdq      gap      omega  full diag
   1  -5198.4022328 -0.519840E+04  0.383E-03    3.84       0.0  T
   2  -5198.4022336 -0.800523E-06  0.228E-03    3.84       1.0  T
   3  -5198.4022325  0.109794E-05  0.615E-04    3.84       2.6  T
   4  -5198.4022339 -0.139578E-05  0.107E-04    3.84      15.0  T
   5  -5198.4022339 -0.194104E-07  0.610E-05    3.84      26.4  T
   6  -5198.4022339 -0.237378E-08  0.273E-05    3.84      58.9  T
     SCC iter.                  ...       21 min,  7.203 sec
     gradient                   ...        4 min, 42.469 sec
 * total energy  : -5104.1460263 Eh     change    :  -0.1891660E-02 Eh
   gradient norm :     0.0222404 Eh/a0  converged?    E=F G=F D=F
   time step     :     0.4428903 fs     power     :   0.5205825E-07
   step length   :     0.1228362 a0     speed     :   0.6708809E-02

........................................................................
.............................. CYCLE   54 ..............................
........................................................................

 iter      E             dE          RMSdq      gap      omega  full diag
   1  -5198.4266154 -0.519843E+04  0.399E-03    3.84       0.0  T
   2  -5198.4266164 -0.966249E-06  0.238E-03    3.84       1.0  T
   3  -5198.4266134  0.295697E-05  0.882E-04    3.84       1.8  T
   4  -5198.4266170 -0.359413E-05  0.117E-04    3.84      13.8  T
   5  -5198.4266171 -0.261352E-07  0.695E-05    3.84      23.2  T
   6  -5198.4266171 -0.399177E-08  0.369E-05    3.84      43.6  T
     SCC iter.                  ...       21 min,  6.274 sec
     gradient                   ...        4 min, 37.813 sec
 * total energy  : -5104.1480209 Eh     change    :  -0.1994656E-02 Eh
   gradient norm :     0.0234516 Eh/a0  converged?    E=F G=F D=F
   time step     :     0.4871793 fs     power     :   0.5077733E-07
   step length   :     0.1343310 a0     speed     :   0.6669641E-02

........................................................................
.............................. CYCLE   55 ..............................
........................................................................

 iter      E             dE          RMSdq      gap      omega  full diag
   1  -5198.4337791 -0.519843E+04  0.423E-03    3.84       0.0  T
   2  -5198.4337802 -0.114615E-05  0.253E-03    3.84       1.0  T
   3  -5198.4337757  0.454499E-05  0.107E-03    3.84       1.5  T
   4  -5198.4337812 -0.551087E-05  0.114E-04    3.84      14.1  T
   5  -5198.4337812 -0.181690E-07  0.699E-05    3.84      23.0  T
   6  -5198.4337812 -0.374712E-08  0.376E-05    3.84      42.8  T
     SCC iter.                  ...       21 min,  6.771 sec
     gradient                   ...        4 min, 39.891 sec
 * total energy  : -5104.1502234 Eh     change    :  -0.2202455E-02 Eh
   gradient norm :     0.0220158 Eh/a0  converged?    E=F G=F D=F
   time step     :     0.5358972 fs     power     :   0.5135094E-07
   step length   :     0.1467744 a0     speed     :   0.6624972E-02

........................................................................
.............................. CYCLE   56 ..............................
........................................................................

 iter      E             dE          RMSdq      gap      omega  full diag
   1  -5198.4233205 -0.519842E+04  0.459E-03    3.84       0.0  T
   2  -5198.4233218 -0.127526E-05  0.273E-03    3.84       1.0  T
   3  -5198.4233181  0.371691E-05  0.103E-03    3.84       1.6  T
   4  -5198.4233225 -0.448132E-05  0.127E-04    3.84      12.6  T
   5  -5198.4233226 -0.305590E-07  0.675E-05    3.84      23.8  T
   6  -5198.4233226 -0.204727E-08  0.305E-05    3.84      52.7  T
     SCC iter.                  ...       21 min,  4.701 sec
     gradient                   ...        4 min, 41.795 sec
 * total energy  : -5104.1525894 Eh     change    :  -0.2366031E-02 Eh
   gradient norm :     0.0192992 Eh/a0  converged?    E=F G=F D=F
   time step     :     0.5894869 fs     power     :   0.4896444E-07
   step length   :     0.1616075 a0     speed     :   0.6631356E-02

........................................................................
.............................. CYCLE   57 ..............................
........................................................................

 iter      E             dE          RMSdq      gap      omega  full diag
   1  -5198.3982611 -0.519840E+04  0.492E-03    3.84       0.0  T
   2  -5198.3982622 -0.105334E-05  0.293E-03    3.84       1.0  T
   3  -5198.3982603  0.194080E-05  0.811E-04    3.84       2.0  T
   4  -5198.3982626 -0.238243E-05  0.121E-04    3.84      13.3  T
   5  -5198.3982627 -0.175332E-07  0.673E-05    3.84      23.9  T
   6  -5198.3982627 -0.218188E-08  0.305E-05    3.84      52.8  T
     SCC iter.                  ...       21 min,  7.639 sec
     gradient                   ...        4 min, 38.637 sec
 * total energy  : -5104.1549957 Eh     change    :  -0.2406261E-02 Eh
   gradient norm :     0.0194077 Eh/a0  converged?    E=F G=F D=F
   time step     :     0.6484356 fs     power     :   0.4455918E-07
[...]
  3608   6 C     3615   6 C                                       1.5354856
  3615   6 C     3616   6 C                                       1.5338674
  3617   6 C     3618   6 C                                       1.3888714
  3618   6 C     3619   6 C                                       1.3831088
  3619   6 C     3620   6 C                                       1.3832111
  3620   6 C     3621   6 C                                       1.3839765
  3617   6 C     3622   6 C                                       1.3903524
  3621   6 C     3622   6 C                                       1.3825861
  3616   6 C     3623   6 C                                       1.5387404
  3623   6 C     3624   6 C                                       1.5300061
  3625   6 C     3626   6 C                                       1.3914083
  3626   6 C     3627   6 C                                       1.3819262
  3627   6 C     3628   6 C                                       1.3833740
  3628   6 C     3629   6 C                                       1.3832601
  3625   6 C     3630   6 C                                       1.3884335
  3629   6 C     3630   6 C                                       1.3840837
  3631   6 C     3632   6 C                                       1.5368100
  3633   6 C     3634   6 C                                       1.3899831
  3634   6 C     3635   6 C                                       1.3832516
  3635   6 C     3636   6 C                                       1.3845175
  3636   6 C     3637   6 C                                       1.3845224
  3633   6 C     3638   6 C                                       1.3904187
  3637   6 C     3638   6 C                                       1.3835957
  3632   6 C     3639   6 C                                       1.5387403
  3639   6 C     3640   6 C                                       1.5305645
  3641   6 C     3642   6 C                                       1.3919941
  3642   6 C     3643   6 C                                       1.3822822
  3643   6 C     3644   6 C                                       1.3839212
  3644   6 C     3645   6 C                                       1.3833801
  3641   6 C     3646   6 C                                       1.3876512
  3645   6 C     3646   6 C                                       1.3831743
  3647   6 C     3648   6 C                                       1.5364483
  3649   6 C     3650   6 C                                       1.3897841
  3650   6 C     3651   6 C                                       1.3829864
  3651   6 C     3652   6 C                                       1.3837434
  3652   6 C     3653   6 C                                       1.3840507
  3649   6 C     3654   6 C                                       1.3892709
  3653   6 C     3654   6 C                                       1.3827095
  3648   6 C     3655   6 C                                       1.5388333
  3655   6 C     3656   6 C                                       1.5345073
  3657   6 C     3658   6 C                                       1.3910041
  3658   6 C     3659   6 C                                       1.3849308
  3659   6 C     3660   6 C                                       1.3846248
  3660   6 C     3661   6 C                                       1.3835876
  3657   6 C     3662   6 C                                       1.3894932
  3661   6 C     3662   6 C                                       1.3838720
  3663   6 C     3664   6 C                                       1.5403238
  3665   6 C     3666   6 C                                       1.3905760
  3666   6 C     3667   6 C                                       1.3820353
  3667   6 C     3668   6 C                                       1.3846200
  3668   6 C     3669   6 C                                       1.3836142
  3665   6 C     3670   6 C                                       1.3887581
  3669   6 C     3670   6 C                                       1.3840932
  3664   6 C     3671   6 C                                       1.5371362
  3671   6 C     3672   6 C                                       1.5350328
  3673   6 C     3674   6 C                                       1.3891972
  3674   6 C     3675   6 C                                       1.3829632
  3675   6 C     3676   6 C                                       1.3841465
  3676   6 C     3677   6 C                                       1.3846108
  3673   6 C     3678   6 C                                       1.3897105
  3677   6 C     3678   6 C                                       1.3837572
  3672   6 C     3679   6 C                                       1.5383073
  3679   6 C     3680   6 C                                       1.5359066
  3681   6 C     3682   6 C                                       1.3913328
  3682   6 C     3683   6 C                                       1.3822162
  3683   6 C     3684   6 C                                       1.3848742
  3684   6 C     3685   6 C                                       1.3835784
  3681   6 C     3686   6 C                                       1.3882250
  3685   6 C     3686   6 C                                       1.3843798
  3680   6 C     3687   6 C                                       1.5389404
  3687   6 C     3688   6 C                                       1.5356720
  3549   6 C     3689   1 H                                       1.0970185
  3551   6 C     3690   1 H                                       1.0919534
  3551   6 C     3691   1 H                                       1.0897396
  3552   6 C     3692   1 H                                       1.0962331
  3559   6 C     3693   1 H                                       1.0920232
  3559   6 C     3694   1 H                                       1.0914248
  3560   6 C     3695   1 H                                       1.0927943
  3567   6 C     3696   1 H                                       1.0928769
  3567   6 C     3697   1 H                                       1.0932192
  3568   6 C     3698   1 H                                       1.0953804
  3575   6 C     3699   1 H                                       1.0916403
  3576   6 C     3700   1 H                                       1.0952115
  3583   6 C     3701   1 H                                       1.0912634
  3583   6 C     3702   1 H                                       1.0910740
  3584   6 C     3703   1 H                                       1.0957897
  3591   6 C     3704   1 H                                       1.0898888
  3591   6 C     3705   1 H                                       1.0908924
  3592   6 C     3706   1 H                                       1.0955597
  3599   6 C     3707   1 H                                       1.0914006
  3599   6 C     3708   1 H                                       1.0929609
  3600   6 C     3709   1 H                                       1.0965437
  3608   6 C     3710   1 H                                       1.0956214
  3615   6 C     3711   1 H                                       1.0907592
  3615   6 C     3712   1 H                                       1.0929094
  3616   6 C     3713   1 H                                       1.0968767
  3623   6 C     3714   1 H                                       1.0910325
  3623   6 C     3715   1 H                                       1.0930507
  3624   6 C     3716   1 H                                       1.0959115
  3631   6 C     3717   1 H                                       1.0918062
  3631   6 C     3718   1 H                                       1.0924286
  3632   6 C     3719   1 H                                       1.0946866
  3639   6 C     3720   1 H                                       1.0889388
  3639   6 C     3721   1 H                                       1.0931849
  3640   6 C     3722   1 H                                       1.0989562
  3647   6 C     3723   1 H                                       1.0939302
  3647   6 C     3724   1 H                                       1.0923795
  3648   6 C     3725   1 H                                       1.0942247
  3655   6 C     3726   1 H                                       1.0925670
  3655   6 C     3727   1 H                                       1.0920648
  3656   6 C     3728   1 H                                       1.0949866
  3663   6 C     3729   1 H                                       1.0920898
  3663   6 C     3730   1 H                                       1.0928004
  3664   6 C     3731   1 H                                       1.0952389
  3671   6 C     3732   1 H                                       1.0911694
  3671   6 C     3733   1 H                                       1.0913857
  3672   6 C     3734   1 H                                       1.0938913
  3679   6 C     3735   1 H                                       1.0913818
  3679   6 C     3736   1 H                                       1.0920864
  3543   6 C     3737   1 H                                       1.0802668
  3548   6 C     3738   1 H                                       1.0806448
  3547   6 C     3739   1 H                                       1.0797551
  3546   6 C     3740   1 H                                       1.0802236
  3545   6 C     3741   1 H                                       1.0821675
  3554   6 C     3742   1 H                                       1.0805635
  3555   6 C     3743   1 H                                       1.0807251
  3556   6 C     3744   1 H                                       1.0804979
  3557   6 C     3745   1 H                                       1.0808812
  3558   6 C     3746   1 H                                       1.0805452
  3562   6 C     3747   1 H                                       1.0806200
  3563   6 C     3748   1 H                                       1.0810283
  3564   6 C     3749   1 H                                       1.0803639
  3565   6 C     3750   1 H                                       1.0803307
  3566   6 C     3751   1 H                                       1.0817004
  3570   6 C     3752   1 H                                       1.0795595
  3571   6 C     3753   1 H                                       1.0805070
  3572   6 C     3754   1 H                                       1.0807372
  3573   6 C     3755   1 H                                       1.0810062
  3574   6 C     3756   1 H                                       1.0817158
  3575   6 C     3757   1 H                                       1.0906703
  3578   6 C     3758   1 H                                       1.0798779
  3579   6 C     3759   1 H                                       1.0814939
  3580   6 C     3760   1 H                                       1.0811826
  3581   6 C     3761   1 H                                       1.0815735
  3582   6 C     3762   1 H                                       1.0812105
  3586   6 C     3763   1 H                                       1.0816551
  3587   6 C     3764   1 H                                       1.0814297
  3588   6 C     3765   1 H                                       1.0809390
  3589   6 C     3766   1 H                                       1.0809182
  3590   6 C     3767   1 H                                       1.0806819
  3594   6 C     3768   1 H                                       1.0792723
  3595   6 C     3769   1 H                                       1.0802042
  3596   6 C     3770   1 H                                       1.0807218
  3597   6 C     3771   1 H                                       1.0808458
  3598   6 C     3772   1 H                                       1.0817033
  3602   6 C     3773   1 H                                       1.0819109
  3603   6 C     3774   1 H                                       1.0799622
  3604   6 C     3775   1 H                                       1.0804144
  3605   6 C     3776   1 H                                       1.0809065
  3606   6 C     3777   1 H                                       1.0803333
  3607   6 C     3778   1 H                                       1.0894996
  3607   6 C     3779   1 H                                       1.0918307
  3610   6 C     3780   1 H                                       1.0809328
  3611   6 C     3781   1 H                                       1.0811209
  3612   6 C     3782   1 H                                       1.0808864
  3613   6 C     3783   1 H                                       1.0824196
  3614   6 C     3784   1 H                                       1.0800256
  3618   6 C     3785   1 H                                       1.0813963
  3619   6 C     3786   1 H                                       1.0798024
  3620   6 C     3787   1 H                                       1.0805179
  3621   6 C     3788   1 H                                       1.0808669
  3622   6 C     3789   1 H                                       1.0817915
  3626   6 C     3790   1 H                                       1.0823075
  3627   6 C     3791   1 H                                       1.0806145
  3628   6 C     3792   1 H                                       1.0809601
  3629   6 C     3793   1 H                                       1.0809748
  3630   6 C     3794   1 H                                       1.0797620
  3634   6 C     3795   1 H                                       1.0794961
  3635   6 C     3796   1 H                                       1.0806529
  3636   6 C     3797   1 H                                       1.0806003
  3637   6 C     3798   1 H                                       1.0810619
  3638   6 C     3799   1 H                                       1.0821183
  3642   6 C     3800   1 H                                       1.0826155
  3643   6 C     3801   1 H                                       1.0812279
  3644   6 C     3802   1 H                                       1.0795791
  3645   6 C     3803   1 H                                       1.0799681
  3646   6 C     3804   1 H                                       1.0775134
  3650   6 C     3805   1 H                                       1.0819900
  3651   6 C     3806   1 H                                       1.0809106
  3652   6 C     3807   1 H                                       1.0809321
  3653   6 C     3808   1 H                                       1.0813842
  3654   6 C     3809   1 H                                       1.0808397
  3658   6 C     3810   1 H                                       1.0802372
  3659   6 C     3811   1 H                                       1.0810306
  3660   6 C     3812   1 H                                       1.0797025
  3661   6 C     3813   1 H                                       1.0806653
  3662   6 C     3814   1 H                                       1.0806491
  3666   6 C     3815   1 H                                       1.0787356
  3667   6 C     3816   1 H                                       1.0811519
  3668   6 C     3817   1 H                                       1.0804277
  3669   6 C     3818   1 H                                       1.0809167
  3670   6 C     3819   1 H                                       1.0814671
  3674   6 C     3820   1 H                                       1.0795194
  3675   6 C     3821   1 H                                       1.0802279
  3676   6 C     3822   1 H                                       1.0809670
  3677   6 C     3823   1 H                                       1.0811984
  3678   6 C     3824   1 H                                       1.0815480
  3686   6 C     3825   1 H                                       1.0814498
  3685   6 C     3826   1 H                                       1.0808379
  3684   6 C     3827   1 H                                       1.0803461
  3683   6 C     3828   1 H                                       1.0803840
  3682   6 C     3829   1 H                                       1.0798960
  3550   6 C     3830   1 H                                       1.0874346
  3550   6 C     3831   1 H                                       1.0882618
  3550   6 C     3832   1 H                                       1.0876593
  3680   6 C     3833   1 H                                       1.0947544
  3687   6 C     3834   1 H                                       1.0930789
  3687   6 C     3835   1 H                                       1.0926849
  3688   6 C     3836   6 C                                       1.5372326
  3837   6 C     3838   6 C                                       1.3909727
  3838   6 C     3839   6 C                                       1.3831449
  3839   6 C     3840   6 C                                       1.3847634
  3840   6 C     3841   6 C                                       1.3833102
  3837   6 C     3842   6 C                                       1.3889492
  3841   6 C     3842   6 C                                       1.3838026
  3838   6 C     3843   1 H                                       1.0801953
  3839   6 C     3844   1 H                                       1.0808448
  3840   6 C     3845   1 H                                       1.0804675
  3841   6 C     3846   1 H                                       1.0801612
  3842   6 C     3847   1 H                                       1.0801546
  3836   6 C     3848   6 C                                       1.5277807
  3836   6 C     3849   1 H                                       1.0919197
  3836   6 C     3850   1 H                                       1.0916390
  3851   6 C     3852   6 C                                       1.3880019
  3852   6 C     3853   6 C                                       1.3860638
  3853   6 C     3854   6 C                                       1.3830661
  3854   6 C     3855   6 C                                       1.3853640
  3851   6 C     3856   6 C                                       1.3925423
  3855   6 C     3856   6 C                                       1.3810951
  3852   6 C     3857   1 H                                       1.0794709
  3853   6 C     3858   1 H                                       1.0811291
  3854   6 C     3859   1 H                                       1.0806420
  3855   6 C     3860   1 H                                       1.0812523
  3856   6 C     3861   1 H                                       1.0816690
  3688   6 C     3862   1 H                                       1.0948431
  3848   6 C     3863   1 H                                       1.0937683
  3848   6 C     3864   1 H                                       1.0955658

 * 2 distinct bonds (by element types)

   Z      Z             #   av. dist./Å        max./Å        min./Å
   1 H    6 C        1944     1.0852739     1.0989562     1.0766510
   6 C    6 C        1861     1.4196556     1.5406617     1.3805641


optimized geometry written to: xtbopt.xyz


           -------------------------------------------------
          | TOTAL ENERGY            -5104.237917669209 Eh   |
          | GRADIENT NORM               0.000979666457 Eh/α |
          | HOMO-LUMO GAP               3.820698113749 eV   |
           -------------------------------------------------

------------------------------------------------------------------------
 * finished run on 2024/07/21 at 05:45:17.623     
------------------------------------------------------------------------
 total:
 * wall-time:     7 d, 13 h, 52 min, 18.255 sec
 *  cpu-time:    50 d,  2 h, 41 min,  2.400 sec
 * ratio c/w:     6.613 speedup
 SCF:
 * wall-time:     0 d,  0 h, 16 min,  7.985 sec
 *  cpu-time:     0 d,  1 h, 44 min, 40.512 sec
 * ratio c/w:     6.488 speedup
 ANC optimizer:
 * wall-time:     7 d, 13 h, 34 min, 59.800 sec
 *  cpu-time:    50 d,  0 h, 54 min, 49.520 sec
 * ratio c/w:     6.614 speedup

