3864
 energy: -5104.237917669209 gnorm: 0.000979666457 xtb: 6.6.1 (8d0f1dd)
C           52.05184968198101       50.11306907196485       49.67219821909842
C           51.42385118249136       50.45896721418085       48.48288251343594
C           50.04977360261314       50.67076915336553       48.50201310392187
C           49.32226047914688       50.55477531286854       49.67275762750250
C           49.96743489803486       50.23289820010976       50.85441671212845
C           51.33205786685659       50.00477193992180       50.84860808418600
C           52.19589998954646       50.73403003910254       47.21751150565687
C           52.77752054048701       52.14987867056357       47.32272931880897
C           53.32140506592621       49.74569613833200       46.90425016535141
C           52.88335729062014       48.28700981473614       46.69537537955534
C           51.68338634744090       48.17991957125112       45.78970334623695
C           51.73724926224894       48.56118854933544       44.45347655695280
C           50.63642750182287       48.41741226687873       43.62875616528513
C           49.45955604960108       47.88333692236539       44.12602619412024
C           49.38451596469333       47.51836663902697       45.45947232648685
C           50.48738320965443       47.66988250958119       46.28103601774522
C           54.08519348860761       47.50916937007234       46.13246240911822
C           53.76810960592402       46.07918074956195       45.68004618971948
C           53.57039013849692       45.14483105034515       46.84582641936486
C           52.35968127249998       44.48469346181137       47.01949376859837
C           52.18227814318008       43.59366681243216       48.06367654361132
C           53.21610596195708       43.34281453986069       48.94846775798108
C           54.42262951638020       44.00231956574491       48.79082378074997
C           54.59824585381391       44.89278103895830       47.74774751967056
C           54.88884496171968       45.54543152300706       44.76953664976068
C           54.82887125581722       46.09975069635605       43.33140034688599
C           56.20297316861446       45.97972259371202       42.71754093919094
C           56.71429178117629       44.75859951083112       42.29390700487154
C           57.99637738069919       44.66225233845871       41.78587219981616
C           58.80223850319192       45.78335199351018       41.70694932453802
C           58.31343238477401       47.00309423754811       42.13839349528478
C           57.02547819724661       47.09662849829760       42.63235777755927
C           53.73648804885359       45.38657864450339       42.52691075210657
C           53.13097746139506       46.21719505797207       41.38388741101454
C           52.07414336055636       45.38044568558834       40.70668186123514
C           50.73254255103385       45.73213920045026       40.78738345710659
C           49.75070736491650       44.91996222916425       40.24837878131682
C           50.09772642679009       43.74029067791769       39.61340482168546
C           51.43314017729524       43.39165584278266       39.50054107380828
C           52.41123676779348       44.20536218933395       40.04223085787717
C           54.18529239811481       46.71858432705712       40.38948227459171
C           53.55138876480227       47.42286679416377       39.18325817031498
C           52.56468785244770       48.49296107778083       39.57892058311382
C           51.35765470880401       48.59160785223492       38.89737983691889
C           50.45707587006044       49.60027422591823       39.18788574469921
C           50.74020254298745       50.50939669941620       40.19202311851134
C           51.94058103637203       50.42930049906722       40.87488468113605
C           52.85097074024512       49.43635941644988       40.55880329423545
C           54.61366439538937       48.05801470306771       38.25980931737238
C           54.90225327806984       47.23594942126545       36.99341238828867
C           55.63197446322884       45.98109684629199       37.40533910129990
C           56.98261121227333       46.00242125734887       37.73181866459410
C           57.61821708218424       44.87617173737492       38.21923068440395
C           56.90456404593608       43.70717006807190       38.40930052659052
C           55.56108488722737       43.66563908765211       38.08311200530935
C           54.93623975963776       44.78908681451951       37.57074863204263
C           55.68072464553705       48.04664451646698       35.94488436159025
C           54.92597500507119       49.27244686636101       35.39784355518703
C           53.56319411294303       48.88760219961727       34.88268693544823
C           52.42667458669648       49.21842163461815       35.61003075459208
C           51.16960373180188       48.82957012668513       35.18568121668627
C           51.02151251572048       48.11942649250999       34.00898907895840
C           52.14332624035907       47.80890718930308       33.26059106281369
C           53.40200624431387       48.17921836605250       33.69735824889596
C           55.78804323861016       49.97109755561914       34.33576928518869
C           55.07037206032079       51.11908580318387       33.60719321386538
C           55.99911180139495       51.71443743601409       32.57849003603611
C           55.71053017209188       51.61316053300644       31.22367486884810
C           56.54749680608558       52.17107552546808       30.27303113284431
C           57.69347877518700       52.84088663860035       30.66466763842488
C           57.99746418703056       52.94069758879138       32.01157343331913
C           57.15915714730531       52.38007722850281       32.95767011297014
C           54.56164353969285       52.20027828472882       34.56786259214082
C           53.81150718300038       53.31606516517827       33.82941531985044
C           52.53871481313544       52.80328964252286       33.20777831994378
C           52.34374384000714       52.90966652536669       31.83630797816819
C           51.17301125422050       52.46676794003150       31.24693701481603
C           50.17542612635926       51.90708206053615       32.02530321832038
C           50.35623646215301       51.79735080962727       33.39351401037456
C           51.52573110646336       52.24584785181347       33.97960407585719
C           53.51170540285790       54.48579666168900       34.78163120943348
C           54.70425084154295       55.44847911301252       34.89332743119248
C           54.84449390237851       56.22470051552042       33.60940062429717
C           55.89616266224523       55.97086753836956       32.73842135978231
C           56.01341642621271       56.66139412060605       31.54477395104112
C           55.07897671364432       57.62341369638749       31.20461200758435
C           54.02710020614318       57.88805616771923       32.06628252073693
C           53.91141905175396       57.19300984775409       33.25576138391659
C           54.56973920513718       56.37802273716249       36.11610472735887
C           55.48289058585811       55.94137210058611       37.26900833800973
C           55.18716472298388       54.54116469456312       37.74366715734512
C           53.92630870717490       54.18856544712312       38.21117038198160
C           53.67901079497345       52.91257269686127       38.68297395096453
C           54.68871894424091       51.96625117438157       38.69309200651956
C           55.94636646263513       52.30000853271454       38.22323771380801
C           56.19022856550162       53.57991132841772       37.75557425621776
C           55.40764463124606       56.93954898269530       38.44333532114004
C           56.55169729470483       57.96633099337434       38.41204053902059
C           56.25428671818193       59.13969125891691       39.31108789319660
C           56.12891967363798       60.41762527544491       38.78151951643058
C           55.89873429319479       61.50854232337505       39.60194383611778
C           55.78498146915063       61.33717048243095       40.97027344442468
C           55.89079645117722       60.06627149669636       41.50761243830893
C           56.12398462163261       58.97992119210667       40.68583880804300
C           57.87053221491379       57.30375219915017       38.82813926604805
C           59.06432648197618       58.26460152516167       38.80432927620603
C           59.30176069949253       58.83189700088180       37.42964938305423
C           59.26676405560465       60.20467212787955       37.21995535503175
C           59.49745063430985       60.73917927100756       35.96450320206954
C           59.76526508826922       59.90509447379137       34.89257272950348
C           59.80070190739835       58.53492183582884       35.08747448432607
C           59.57272692654675       58.00589157066864       36.34439489239082
C           60.30812184342772       57.52817189606726       39.31254339240294
C           61.49476880659502       58.45852266130365       39.59475926602229
C           61.13056935605876       59.47879014060445       40.64081655587345
C           60.74227703912515       59.09651872424786       41.91964184836625
C           60.35789111240779       60.03964039935309       42.85444666472993
C           60.36678640653795       61.38546919565648       42.53170165337061
C           60.76347469219371       61.78060157418842       41.26611770092744
C           61.13868968874072       60.83288712225458       40.32991768339444
C           62.68713578295863       57.58788717520407       40.00566103176268
C           63.96013334625953       58.36111895020570       40.36623582821520
C           64.34505359064696       59.31551630190279       39.26552481213020
C           64.37484890319197       60.68430980209446       39.50012829078963
C           64.71581713610823       61.57233967343637       38.49499218801852
C           65.03748723661299       61.10304287558350       37.23331382828830
C           65.02089916942597       59.74026110528077       36.98898786443610
C           64.67963596779245       58.85690486706647       37.99634265256547
C           65.09902179899088       57.36381659617432       40.64577310528132
C           65.03699845585608       56.77125037531290       42.06404840561436
C           65.51740313875719       55.34156710527316       42.10793306142789
C           66.63552570269437       54.93262143505989       41.38985847618789
C           67.07963052906217       53.62350670863799       41.45228064697547
C           66.42609920955620       52.70181997372627       42.25365080516639
C           65.32839971596464       53.10192149832115       42.99472503925987
C           64.87503602460247       54.40691049301758       42.91228954513435
C           65.88520316084536       57.62400096288993       43.02205396608993
C           65.64815234289439       57.26419737229843       44.49231971251016
C           64.27737986323409       57.70521680307505       44.95372787411549
C           63.38880162064239       56.78975685872246       45.50445442031567
C           62.14630921339710       57.18665540368232       45.96706494947211
C           61.76757393547256       58.51440891564719       45.88554519503151
C           62.63951221988904       59.43773961924066       45.33388996218120
C           63.88062138304639       59.03552369754757       44.87358853166941
C           66.70550391492499       57.87504362853387       45.42762043263581
C           68.15211475907540       57.39810034238707       45.20402331211041
H           51.49063289168831       50.71793474187112       46.37835558718687
H           53.81220576832525       50.09838921087481       45.99383173141686
H           54.07470355214203       49.76681527065602       47.69304628316637
H           52.60810882591127       47.85773727569151       47.66570526495113
H           54.47562670078705       48.05626204744469       45.27293878387807
H           54.87347087453683       47.48786016354243       46.88793572853122
H           52.83703458905780       46.10002929222103       45.10385092894830
H           55.85672404004280       45.79342407383893       45.21259584282135
H           54.82013735308411       44.45652492046968       44.72654578003559
H           54.57158376776190       47.16250091885374       43.38522866411142
H           52.92058086129914       45.12754926239831       43.20608193227233
H           52.63694659069557       47.08901631983230       41.82719622540802
H           54.86035353838393       47.40427314628771       40.90278699040554
H           54.79034976638918       45.88355146018627       40.03244912455118
H           52.99805949737485       46.67231997034168       38.60921771284095
H           54.25697049765339       49.04040917437133       37.95425519984276
H           55.54174131268978       48.19957983044294       38.81533075113497
H           53.94184960125568       46.95372636204009       36.54519576543745
H           56.62332002263190       48.40231748139193       36.36193718633584
H           55.91965748939261       47.37938520630331       35.11285015168043
H           54.79051289561436       49.98039086917433       36.22001472526588
H           54.20067936530525       50.70294241104666       33.08517972927376
H           53.88520794261080       51.74999013075991       35.29323452201390
H           55.39909568787546       52.62922170508190       35.11900020377951
H           54.44753719301927       53.69124253184886       33.01966099376683
H           52.64440229214934       55.03983889130637       34.41492566210400
H           53.26367998299029       54.09329450309964       35.76865268633827
H           55.61094797303107       54.84884746810891       35.01779354863022
H           54.85191741190301       57.39541272402094       35.83379835599479
H           53.53064339204043       56.40424612946840       36.44909527446612
H           56.50570718633200       55.94983495500232       36.87878171378091
H           54.44950206592590       57.46274515565595       38.41603709311155
H           55.45359340667959       56.39486079628499       39.38818306754496
H           56.65506025337454       58.34042561505892       37.38676326353245
H           57.77131078158076       56.91145685665915       39.84110782332403
H           58.07891274202444       56.45801658133283       38.17292219952943
H           58.85065930482180       59.09414399996818       39.48766864951615
H           60.04997414096903       56.99547645101975       40.22828943741397
H           60.61351749294607       56.78393712972350       38.57479381483915
H           61.75108928718854       58.99080950149216       38.67080014551124
H           62.39757409401720       56.96777999498833       40.85445628455137
H           62.90576565297935       56.92043354494610       39.17073482713339
H           63.76908681349259       58.94800709240019       41.27144486784180
H           65.04699639823741       56.55848450455459       39.91011072396793
H           66.05775168372844       57.86936391033534       40.50622489170135
H           64.00060840712271       56.79937469486320       42.41596834426426
H           66.93546478790093       57.46983360319425       42.76925647165303
H           65.65691438091565       58.67829581532550       42.85690219437630
H           53.11540149280785       49.92764112707129       49.69446463135172
H           51.84134661704075       49.74648314530670       51.76454011586338
H           49.40957800602456       50.16614016627771       51.77713578487139
H           48.25590228001831       50.73316386101875       49.66687417935356
H           49.54279954546273       50.94334028417499       47.58574138701157
H           52.64777486583180       48.96935109059087       44.04001016186457
H           50.69959031278657       48.72913899231615       42.59479283831822
H           48.60435022415807       47.74979678922889       43.47829631454643
H           48.46434572467810       47.11630492906385       45.86117003966366
H           50.42115154224926       47.38114983472853       47.32141564043074
H           51.54795961875216       44.66583494021392       46.32555819487872
H           51.23179478834304       43.09286186948461       48.18909826410177
H           53.07745897388747       42.64235860230619       49.75837250039816
H           55.23577617438793       43.82017331150836       49.47944579865586
H           55.55271287887672       45.38788628696713       47.63642983968759
H           56.11233014454499       43.86303670632886       42.36000524871449
H           58.36959708645136       43.70155164762197       41.46485311753404
H           59.80692560580722       45.70509302673343       41.31764615591544
H           58.92903996512646       47.88960848016300       42.09100284861578
H           56.66173770489095       48.05921907353085       42.96439958544845
H           54.12529037647601       44.45207143013856       42.12233246160718
H           50.44794897076626       46.64447214661276       41.29161856023443
H           48.71178969022705       45.20644070341147       40.33381037816390
H           49.32535164336781       43.09037843236809       39.22502329817144
H           51.71568828703136       42.47472061095709       39.00078158221642
H           53.44831002630320       43.91557157384779       39.95677473517622
H           51.12452930070307       47.86926569793930       38.12626434461624
H           49.53092708203135       49.67867774120995       38.63589282896782
H           50.02244349045520       51.27269506977845       40.45349380836697
H           52.16628727135059       51.14648857052207       41.65053165083449
H           53.79139491897757       49.39542734470447       41.08807330111948
H           57.54984419886581       46.91251566087765       37.61690352446846
H           58.66981028274138       44.91666378385857       38.46130467591917
H           57.38745059899976       42.83113139042896       38.81367967198013
H           55.00098555817866       42.75376184803735       38.23798955759864
H           53.88467796399400       44.74844070247017       37.31817768430049
H           52.52046687899082       49.77889798980376       36.53039868587428
H           50.30411335826159       49.08011936641257       35.78072021435077
H           50.04258205360139       47.80484819297125       33.67635894320372
H           52.03315430713565       47.27038559502064       32.32979415713653
H           54.26521507873998       47.91820510534768       33.10204907792352
H           56.68966482579501       50.35288108318478       34.81919652160932
H           56.11324373675993       49.24743937951469       33.58350778854318
H           54.81330121520357       51.09659428828978       30.90998252927848
H           56.30251153088426       52.08643149918518       29.22337346577345
H           58.34478860848348       53.28196853983082       29.92342167749497
H           58.89089135700441       53.46320803885126       32.32442191674485
H           57.41197235531357       52.46449687716343       34.00385998882767
H           53.11978285977199       53.34918695499663       31.22370777644570
H           51.03688383700246       52.56106818001756       30.17851090912898
H           49.25952684419268       51.56845139942213       31.56325632614474
H           49.57851327261458       51.36083301356800       34.00427008350847
H           51.64965813349774       52.16738768850581       35.04940665842749
H           56.63046028586484       55.21852211522823       32.99013213670899
H           56.83576665808619       56.44475185261373       30.87772005401187
H           55.16761067193453       58.16461540322505       30.27351474113394
H           53.29321789254274       58.63794817372294       31.80602625037402
H           53.08531050559121       57.40559163529490       33.91898332596688
H           53.12894426833058       54.91732266710470       38.20837129164606
H           52.69550632520096       52.65646626653462       39.04914113974772
H           54.49059399046510       50.97763052777866       39.07835128192730
H           56.73957608213787       51.56538081092784       38.22736912619665
H           57.17777518670770       53.83916892095331       37.39691929707882
H           56.22494872810086       60.56233697360764       37.71350256174649
H           55.81365945324850       62.49670945653105       39.17054156365744
H           55.61077365616201       62.18607829254854       41.61472372334686
H           55.79674231875316       59.92652804823039       42.57421408618242
H           56.21386984552490       57.99676666990248       41.12146625449603
H           59.05500220435761       60.86132140760941       38.05290805316658
H           59.46822785087004       61.81052141461254       35.82084941274100
H           59.94508058238080       60.32070200873375       33.91132146675518
H           60.00886191050063       57.87688016620258       34.25569670683446
H           59.61049435168220       56.93440086795503       36.47588007202651
H           60.73088965914600       58.05107604188645       42.18672412683824
H           60.04886101052073       59.72613841979680       43.84041343720322
H           60.06468987562797       62.12246206761135       43.26175281236061
H           60.77581356189694       62.82992343525478       41.00383423006594
H           61.44128692554185       61.14749430649255       39.33980710090355
H           64.11922894517849       61.06129178530171       40.48091468621075
H           64.72905819324832       62.63443237629010       38.69598268364222
H           65.30144006002855       61.79432285527046       36.44583228667532
H           65.27684919990971       59.36593417811900       36.00768770953308
H           64.67741486441922       57.79801773676775       37.78747545952384
H           67.16774798709783       55.64027097790740       40.77084695823819
H           67.94079444759483       53.32443243752509       40.87164219821587
H           66.77471257279058       51.68053124048444       42.30131190002416
H           64.82562319867705       52.40165517727103       43.64539493836195
H           64.00990612847815       54.70545167610739       43.48646958905218
H           64.54963976613766       59.77649014930445       44.45833462007322
H           62.35542861729614       60.47888072436608       45.26701209919890
H           60.80308195512713       58.83050566183573       46.25745508060637
H           61.47226380229498       56.46152471044395       46.40055222566489
H           63.67535321762123       55.75114222177537       45.58080220030707
H           53.48474629868018       52.21114316022837       48.14739984375176
H           53.29249594577251       52.42396079561954       46.40452225831269
H           51.97964175195559       52.86708037383647       47.50177990089581
H           65.70214625945570       56.17612826427224       44.58697292921202
H           66.69114924447068       58.96312646484914       45.32027073955446
H           66.41352578568615       57.64696132139704       46.45546927820864
C           68.31965543490027       55.88839172546812       45.41921257695128
C           69.06869902586419       58.17517572956314       46.11832298078866
C           70.04737454605650       59.01248095757693       45.59771817334622
C           70.89141341036897       59.72577320392270       46.43159421383742
C           70.76948919456683       59.61141812067046       47.80565314223499
C           69.79597802166121       58.78258608045041       48.33687404882108
C           68.95341430928030       58.07407680943214       47.49991341561333
H           70.15471430780491       59.10789494676391       44.52568951500578
H           71.64779782405898       60.37111016487206       46.00754873006954
H           71.42969991824995       60.16568037922325       48.45747121407267
H           69.69439792284469       58.68522963964944       49.40890317276418
H           68.19704051275278       57.43687677564974       47.93103899895596
C           69.75346110249546       55.42691490579261       45.12709516430999
H           68.06066814278452       55.63136221482321       46.44792153646350
H           67.64390691734835       55.34957558558482       44.75343181662431
C           69.90538937165226       53.94676991660160       45.34099759029871
C           69.33737871400476       53.04731798987786       44.44456244672121
C           69.43944068915307       51.68349845899547       44.65197911654154
C           70.11809547494367       51.19252944463817       45.75484786094520
C           70.70129659120143       52.07878717652726       46.64365010695600
C           70.58970463875822       53.44374240647117       46.43966359604900
H           68.80750738200270       53.42030342953205       43.57917555466995
H           68.98911912922543       51.00001822505153       43.94713190303580
H           70.19502270517694       50.12698865398668       45.92047183163120
H           71.25129084761450       51.70862294544226       47.49720862185405
H           71.04946800163705       54.12495075373161       47.14216787612912
H           68.44495157068565       57.62497166822375       44.17358259157297
H           69.99722065429192       55.67139965067632       44.08938652145277
H           70.44992332358268       55.96876456586335       45.77144023673512
C           64.11565213071498       55.56700419326349       64.07493113427741
C           65.04610935145436       55.13812991672216       63.13699283560273
C           65.68479890566498       53.92231315523809       63.35254710123809
C           65.39459020763647       53.15059741502458       64.46252272556139
C           64.46312248564959       53.58989061625820       65.38814195164527
C           63.82582450251010       54.80246955827339       65.19129293392979
C           65.35756884553840       55.98133250481553       61.92623102067772
C           66.79830933692359       56.49575666264217       61.99483469758040
C           65.13851020964381       55.20988608824884       60.61737302159056
C           63.73953257473099       54.58358786191817       60.51905406079842
C           62.68083486074558       55.64498181079645       60.69085747566459
C           61.79673932914902       55.59143915042319       61.76200751051574
C           60.87696558322639       56.60548140594693       61.97343343843186
C           60.81581915798835       57.68253935922790       61.10670929109076
C           61.67004220119265       57.72712014810922       60.01940912452819
C           62.59381873349774       56.71960405677736       59.81350311220835
C           63.53748163407764       53.83155103239982       59.19289702794812
C           64.57402895730020       52.73249529969139       58.90181597906473
C           64.25777892141315       52.03276801075904       57.60120949410627
C           65.08640958603880       52.21372227589687       56.50173740965073
C           64.85791383881120       51.53802921276359       55.31597361609727
C           63.80187862723484       50.65250683035722       55.21429863741755
C           62.96209332579810       50.47306026575948       56.29879446531186
C           63.17854257168217       51.16504783090644       57.47628139191979
C           64.66354936588151       51.72187835963685       60.05089063485164
C           65.61840232222094       50.55745851672116       59.75454366490573
C           66.97132194394945       51.07576535991854       59.33258254861295
C           67.73560223642824       51.86719613202541       60.18296723453268
C           68.95574969698596       52.37630889999447       59.77797999572973
C           69.43780897719945       52.09985624453984       58.50978329839861
C           68.69824741540391       51.29638772145017       57.66043763685568
C           67.47873991348641       50.78730204933737       58.07185172326346
C           65.75720342586570       49.64669356446409       60.98359302684361
C           64.50079306870845       48.80988571523700       61.28346194701904
C           64.46042289620148       48.45993975177431       62.75035016940772
C           65.55329049661208       47.87518402498753       63.38038691715261
C           65.53765306383923       47.62399765795438       64.74050338502245
C           64.41803768790957       47.93613935200509       65.49359797010825
C           63.31400872002379       48.49518155189072       64.87379486231926
C           63.33853967085113       48.75812178892814       63.51526227185355
C           64.45287825506526       47.55650968753694       60.40011865346671
C           63.15422268344602       46.76464879626694       60.58234664605371
C           61.92831788437050       47.56059503762420       60.20400691768452
C           60.88457170096446       47.71192869477737       61.10865141429643
C           59.73749134501197       48.40395404425183       60.76380950215599
C           59.61201484572391       48.95096709060888       59.50030369292049
C           60.63513566687566       48.79262871062868       58.58343064683042
C           61.78390082435785       48.10642721430697       58.93386610398237
C           63.16931692565376       45.46885779132505       59.75377667236546
C           64.12272868445793       44.37752889667376       60.29110026008336
C           65.06139499240632       43.93190696188394       59.19789037826836
C           64.58762857971516       43.27719542474511       58.06597639806663
C           65.44653650046649       42.91736792000484       57.04501378728875
C           66.79715334038244       43.20665505890695       57.13300300339059
C           67.28376218030697       43.84703716607050       58.25845245815871
C           66.42092162280420       44.20308337043037       59.28069376482866
C           63.34129092787672       43.18662423679852       60.86716277461205
C           62.68019634682467       43.54383013463331       62.20980304988916
C           63.63529327448949       43.34563784153589       63.35870849427398
C           64.13848754790477       42.08298944241859       63.65492514984575
C           64.98281669050009       41.88638563872657       64.73095369111243