3795
 energy: -5103.660566709837 gnorm: 0.000901835733 xtb: 6.6.1 (8d0f1dd)
C          107.92095149809985      120.13318141698058      126.96860250113852
C          108.62069514946342      120.46141162951253      128.26201299442474
C          107.98533962411192      118.63172272174579      126.65298522448394
C          106.85614754396822      117.82962786467402      127.29134468030668
H          107.96023572283487      118.50422090622878      125.57017839469832
H          108.94159560226221      118.23827140391575      126.99779846603700
C          106.89836855682728      116.36616769660877      126.85242497218714
H          106.93522561521726      117.87967833598553      128.37741092525735
H          105.89655566698072      118.27254094758818      127.01417188127303
C          105.90981115102498      115.49935497214625      127.60998270645553
H          106.72354010982764      116.27707771209946      125.77922619874118
H          107.89349274460274      115.96150691324310      127.05592364892529
N          105.60489286651440      114.34188579198441      127.00381077937503
O          108.20321089835743      119.76509527393218      129.29668400808816
O          109.51986182719531      121.27839279881589      128.33712948904312
H          108.72173774241831      119.95326615644471      130.11721568657936
H          108.41563012882030      120.70319132138739      126.18151485869599
H          106.88023272360769      120.45814251888508      127.02566127950861
C          104.79210060279254      113.31453697814520      127.62306752532785
H          105.94128243837257      114.16183654527197      126.06687652174179
C          105.42142752767133      111.93394626505253      127.46188004890593
H          104.69608369414070      113.57656090162119      128.67934298040922
H          103.78910961971370      113.30619114795807      127.18005438700324
C          104.55004278996176      110.85442093069355      128.10436496492991
H          105.54375115030776      111.73243473040174      126.39694874803611
H          106.40801421235733      111.92805697608426      127.92747832651513
C          105.10959304244221      109.44481446655138      127.89989484142399
H          104.47765485058390      111.05397298024779      129.17470535490290
H          103.54038601034841      110.90538718429247      127.69279984253818
C          104.93875311923685      108.94972760228119      126.46463873718147
H          106.17004857913528      109.44328691761167      128.15843003611189
H          104.60475144010036      108.75412596722431      128.57697667311638
C          105.72857092388224      107.67400741980593      126.19972105946962
H          103.88232729725119      108.77262228100196      126.25576693537224
H          105.29822419012972      109.71422763994991      125.77555314983356
N          105.80143078995471      107.40491305450168      124.77821320942417
H          106.74938049588701      107.78871671154901      126.58807484946040
H          105.28232718667385      106.81032523899654      126.69943658286120
C          105.95764234463840      106.19675362937274      124.23498924591975
H          105.72708190511356      108.19789326735012      124.14448419162582
O          105.44470067280875      115.81031878491633      128.70237044164944
C          106.30094075685115      106.24819152449845      122.76129282398145
C          107.79889022813869      106.55878909854457      122.65994247937029
H          106.08815486118252      105.28893528466689      122.29233189759738
H          105.72506285147743      107.03289583787524      122.27255644409743
C          108.25358732053562      106.76373716197637      121.22051481443066
H          108.01839153096505      107.46254851208376      123.23252086564129
H          108.36004870518141      105.73619993933761      123.10715538069668
C          109.75300956991235      107.06156540218980      121.15748340494721
H          108.03224280481707      105.87421428760568      120.62805052230705
H          107.71070955362947      107.60066213629280      120.77939241698846
C          110.14662010000089      107.54472642600503      119.78039212723033
H          109.99597680009580      107.86085223490045      121.86302218370996
H          110.33478488154242      106.18319085730893      121.42983122818133
N          111.13607137459154      106.87196484466951      119.18408644820454
C          111.64898045893536      107.24976304620235      117.88301125885538
H          111.62726146354254      106.13879867669608      119.67463910295645
O          105.89986926906849      105.14691357827519      124.87756954702445
C          112.29790559244216      106.05376518576311      117.20140763562010
H          110.80612520146072      107.62931039311820      117.30135416147661
H          112.37805030752716      108.06339739708173      117.98696417828080
C          112.60942972316896      106.33022013700743      115.73108366956053
H          113.21497948444549      105.79877109033491      117.73662800463282
H          111.61808460924614      105.20288291224340      117.27345935669939
C          111.34568241741736      106.27619179988707      114.87536428972018
H          113.08054882911301      107.31042133392091      115.64842234009173
H          113.31610482255444      105.58562835702890      115.35822179678891
C          111.60741042561085      106.54631063957366      113.39564279673897
H          110.91032615322071      105.27772745134865      114.96421514281754
H          110.60787961909814      106.98757245969880      115.24585689052940
C          112.00269366032674      107.98747064543731      113.10110868083392
N          110.97457903689300      108.92850348514025      113.50147242041349
H          112.92955397966566      108.24574095224300      113.62444531373251
H          112.19281976131309      108.10862068209721      112.02729327130584
C          111.17333856774722      110.24915604579031      113.45058755733312
H          110.12879008923099      108.57012838916013      113.92161512022639
O          109.58133595401760      108.49020534975962      119.23848327573589
C          110.02353006000580      111.09186370057819      113.95526903364924
C          110.38128373238547      111.72283611541285      115.30182896032822
H          109.82830545194734      111.88138817054708      113.22873760398103
H          109.13231953760024      110.47587621965617      114.05195380297781
C          110.66475679100212      110.66371465360280      116.36304839831945
H          111.26060310536245      112.35703216798781      115.17782458857525
H          109.55879401660123      112.36184427919655      115.62651618051373
C          110.92602562011047      111.28008985738664      117.74085326392893
H          109.82219675996868      109.97150936976409      116.42627104553301
H          111.54517080184151      110.08881917008155      116.06821315965196
C          109.69287711807929      112.00059944742853      118.24146625459012
H          111.18470897416918      110.48879582413389      118.44381575017184
H          111.75510953116230      111.98677593789967      117.68168439506378
N          108.80082523110745      111.21039121938287      118.83502383223613
C          107.53511695286223      111.68232191787718      119.35397453815504
H          109.01303979650319      110.22654793971374      118.95172217282841
H          112.40813535123355      105.89241231623323      113.04569755296654
H          110.70500848896032      106.30449330795767      112.83087335046076
O          112.22266784622026      110.73928855638398      113.03866608899651
O          109.51979977782467      113.21271399042739      118.09676817233988
C          106.66394089014292      110.51798154942105      119.79747593359065
H          107.72209012105326      112.34886060218405      120.20591128972289
H          107.02723778953172      112.26759976516699      118.57916437288036
C          106.23204073140592      109.62147631617775      118.63987285302080
H          107.21885989801154      109.91406185181133      120.51685292258909
H          105.78491072456595      110.92334132179404      120.29848586597092
C          105.17203325166778      108.61190741663589      119.07883308182691
H          105.83490851255202      110.23638368038939      117.83124022690085
H          107.10435382417602      109.09131958748158      118.25524838541980
C          103.78477213607974      109.24063015488466      119.19268763199688
H          105.11741909883195      107.79364215207835      118.36050939136693
H          105.46073688011521      108.18447466305274      120.04029021310433
C          102.75233577850224      108.23099239336447      119.66721945288137
H          103.79928725122184      110.08563300990927      119.88223213715693
H          103.47951313609499      109.61055782301860      118.21288081016893
N          102.89765619696452      107.95423435193877      121.08645967670282
H          101.73978471777767      108.60721059443671      119.49203136361270
H          102.85401843244514      107.29637007796248      119.10566364348740
C          102.13255339677660      107.04781491764348      121.70233007260694
H          103.63438979595537      108.42873816715422      121.60022587460720
C          102.42241592324463      106.86983445071183      123.18358767178503
C          101.17666723736153      106.38550566404105      123.92153472841983
H          103.21647156544515      106.12514291787197      123.27206902288712
H          102.79001950072838      107.80627332962864      123.60406640946005
C          101.36894835389803      106.21315238998518      125.42669692361348
H          100.36482265353420      107.09768498592001      123.75471166949083
H          100.86323104871320      105.43335069840479      123.48922585857673
C          102.51230490683068      105.26345827247442      125.79288821066974
H          101.55748102534278      107.18361554071478      125.89025632973767
H          100.44000704312008      105.81564746687613      125.83954856476311
C          102.40077663350070      103.92744641477339      125.07474017526390
H          103.47648882068430      105.71415560525774      125.56867339302930
H          102.47094705985940      105.05938460463069      126.86553582521599
N          103.53673303931186      103.52264970128942      124.49198555494011
C          103.67351049597652      102.25697073168642      123.80396025513690
H          104.40098182034949      104.03353427597716      124.65415080664752
O          101.25497644185809      106.41914340899190      121.11464838937427
C          104.69691942897546      102.35773418732377      122.67622929818495
H          103.99452135837964      101.48627352406071      124.51741852385477
H          102.68594616154225      101.97807201368781      123.42972686614640
C          104.23326647832120      103.19004426616812      121.47888358561953
H          105.60906816508466      102.79422184914499      123.09100297107051
H          104.93229362814628      101.34816074133678      122.33636340169576
C          103.02540021307314      102.57948931041105      120.75848683652167
H          103.98707676616340      104.20045497250982      121.80765733424855
H          105.06840484903293      103.25777722300315      120.77839548515217
C          103.07031054420125      102.76441455631857      119.24276372480165
H          102.99530901026637      101.50664593897612      120.95914253467591
H          102.10251179338583      103.01404667258701      121.14666387156426
C          102.97101010802646      104.21945316349465      118.78840225642496
H          103.99341865086437      102.32960078770598      118.85343219100335
H          102.23707028028777      102.21651051296648      118.79694661762755
N          102.86697838363419      104.26228288844221      117.34457388918058
H          102.08920567183911      104.69002305241223      119.23983940226282
H          103.85379292733371      104.79238680436490      119.08229302779139
O          101.35668461128297      103.28115435284160      125.03159598445916
C          103.56002137564914      105.06687165961625      116.54212154258350
H          102.29854314675563      103.53105840577656      116.92856518227283
C          103.33501625027242      104.81883623809418      115.05845670681839
C          102.76966225415458      106.06343139805242      114.36830937190911
H          104.29401317868955      104.55403389313108      114.60714949480085
H          102.65875902024347      103.97451178826240      114.93486921456606
C          102.34172231197651      105.77820233795140      112.92793145011642
H          101.90603591198953      106.42530940385221      114.93102260226028
H          103.52935336130440      106.84690577564101      114.38211601152652
C          101.99002744446413      107.07074623093962      112.18030414834205
H          103.14339881477615      105.26106315486953      112.39606152290243
H          101.47106535835046      105.11958846429555      112.93563741827543
C          101.39230575297185      106.76493637652166      110.81731316820529
H          101.27351577778275      107.64600771311027      112.76612279269510
H          102.89867143242665      107.65930316094568      112.03677188642708
N          100.06653411754317      106.66019313055587      110.80226374311212
O          104.31086459550508      105.95191238889606      116.95573491446739
C           99.29563911223511      106.42007768215564      109.59759338921512
H           99.53449978106600      106.84482903996742      111.65510930427898
C           97.80087279311797      106.51095375938192      109.87890775718097
H           99.58774470553956      107.15324420225187      108.83680252335941
H           99.53793656097550      105.42609594039141      109.20464549514696
C           97.33851829079742      107.93712248090570      110.17489432186446
H           97.26741717190535      106.13574905084035      109.00372604518725
H           97.56196123262333      105.86316345753704      110.72263315951584
C           95.82512770957133      108.01679107136766      110.39092757579490
H           97.85317568233617      108.31401413011012      111.05713731093515
H           97.61021227459754      108.57133037456089      109.32860711865573
C           95.37462455271017      107.58261105503009      111.78789247066452
H           95.48821793670055      109.04401262903399      110.23598913801267
H           95.32998145533202      107.39404767352123      109.64312646038428
C           95.61534116354620      108.68428668514915      112.81329655653032
H           94.30465985472584      107.36266361886922      111.75883288185587
H           95.90105100714405      106.67839652520139      112.09307821305892
N           95.00098333782512      108.36710081451339      114.08838184229930
H           96.68402283656368      108.81870996575383      112.99367395038691
H           95.20500717796769      109.62813630970329      112.43061844944863
C           95.38996074528146      108.91681832394288      115.24901571480855
H           94.14575869184904      107.83432057067402      114.06186358473569
O          102.09445373462063      106.60710533981887      109.81488828320531
C           94.57093913528028      108.50040558629021      116.45731499245272
C           94.77025980651499      107.02540603734981      116.82087454795750
H           94.86359585366344      109.13429963503842      117.29273932033333
H           93.51416286470753      108.69340505919023      116.26242540328855
C           96.23142528989439      106.66977112132862      117.09341474132412
H           94.16557613323046      106.80162708189916      117.70191576693702
H           94.40721593362940      106.39841592514321      116.00394639891735
C           96.80088330193644      107.36962467730584      118.32697134325994
H           96.31492644505489      105.59032579102572      117.23723704650163
H           96.83009752783101      106.93836451821772      116.22286963283226
C           98.14407953341170      106.78361551406238      118.73503249393188
H           96.93708644990375      108.43124707936362      118.11267347186603
H           96.10298102568116      107.26299011236888      119.15919272246573
N           98.64826429171607      107.15058066589755      119.91588962674986
C           98.21311403601297      108.21914811865803      120.78791087724660
H           99.54563219363176      106.73998391052119      120.17307396095536
O           96.34279282524332      109.68092276492273      115.33278131066638
C           99.25091590259952      109.34656345612808      120.77553677199222
H           97.24872864973143      108.59902134568371      120.45276722158772
H           98.09551627119681      107.82229390067918      121.80016604011990
C           98.72038299540598      110.66939370526322      121.31990533029774
H          100.12446772695873      109.03044748417999      121.34672518541443
H           99.56749197552649      109.49719799565344      119.74166889293183
C           99.73669323364157      111.78541538968990      121.08761703458849
H           97.78739218560362      110.92184890099919      120.81301411530448
H           98.50310544369093      110.57598737052719      122.38504917782808
C           99.22884985977129      113.13621288770067      121.58425513431678
H          100.66566908873966      111.53638018049793      121.60121968375526
H           99.95433054198844      111.84856981717982      120.02073292903093
C          100.25099203650595      114.23403888962243      121.32296219679687
H           98.29769466186167      113.39189430128270      121.07391993157633
H           99.01986204423548      113.06795978369416      122.65157174096204
N           99.77273198742751      115.52172974979477      121.78498532450688
H          101.19453448009249      114.02365122549685      121.83759523803342
H          100.47050995231443      114.28411563420109      120.25132005890637
C          100.55432661153736      116.60552383678100      121.82462308825114
H           98.77490761931831      115.63934391801571      121.91255047451079
O           98.74941111536380      105.98914429281955      118.01261371468904
C           99.85045067630560      117.87360248934424      122.25210636088680
C          100.79539907522459      118.78092946326112      123.03507440990319
H           99.52309746928090      118.36073816701266      121.33123412959171
H           98.96575300244744      117.62160916616510      122.83571072662100
C          100.11812767526796      120.02265341291071      123.60778070897825
H          101.22108442091663      118.20626090089932      123.86129625644043
H          101.61486600771093      119.07596982337579      122.37606371992148
C           99.56103978987572      120.94361392789264      122.52327702320370
H           99.30486001761126      119.72307227996664      124.27270293458122
H          100.83841249266312      120.58388050696793      124.20788097815377
C          100.64876938323657      121.45335822559882      121.59525900315703
H           98.79644023368799      120.43065467209809      121.94385118955417
H           99.10579078337109      121.81434788871793      123.00140959679659
N          100.46882634843537      121.14631266825664      120.30873385486561
O          101.75266780120789      116.57315177455708      121.55184827087128
C          101.30892613752144      121.60227872367794      119.22530061547252
H           99.75504337710683      120.48314375971550      120.03456384780647
C          102.08735233209113      120.43931990275081      118.60978097652627
H          100.65383037758775      122.06010640540573      118.47599454652463
H          101.98527953542671      122.36043087917456      119.62718697956866
C          103.34573817904766      120.09627346738917      119.40269301818381
H          101.42601767212709      119.57221081947628      118.58265976484104
H          102.35045567965354      120.68447305803144      117.58127648300588
C          103.91447388249786      118.73202996690969      119.01911146078017
H          104.09617045163670      120.87510029637718      119.25658438045069
H          103.09871237258857      120.08084779841458      120.46545584891130
C          104.16419775713668      118.55270045314928      117.52073967032595
H          104.84892207838135      118.56717426185807      119.55590445152619
H          103.21152607494423      117.96172020970738      119.34001688313244
C          105.16661003988918      119.53991931939635      116.93409653177368
H          104.54254279871074      117.54251224163569      117.35962120022201
H          103.22799215827675      118.64790180210463      116.97062846910040
N          106.46556622750087      119.38903165400981      117.55495283179050
H          105.25637121201609      119.36716302912617      115.85299884605229
H          104.83965774246278      120.57263624375746      117.07713504794619
C          107.36068069296100      120.37156449030576      117.62693179385991
H          106.62426011598662      118.52061949397209      118.05974671932609
O          101.59027455594973      122.13066057674880      122.00209852206795
C          108.62338014835957      120.04104341644152      118.39387728028095
C          109.88286924206464      120.30951622093906      117.57019791237796
H          108.63287064491102      120.70358802663046      119.26168243389310
H          108.59027747726618      119.01069810106176      118.74325371626995
C          110.07981308367580      119.35213213653678      116.39557838390812
H          109.82532480206388      121.32727071261793      117.18252103574820
H          110.75608277810407      120.25165568888833      118.22396577309844
C          110.52084726601862      117.95200484924538      116.82905827146671
H          109.16376117495061      119.27826210423346      115.80821258237292
H          110.85325921303266      119.77352975569713      115.75047587956483
C          111.04624455544619      117.13044007459101      115.66114934111502
H          111.29791516802975      118.01986391637253      117.59167237724903
H          109.67523790612167      117.40717211940316      117.25487787532532
N          112.19858028465035      116.50459301001681      115.90668979040525
C          112.81899239582106      115.54209694746325      115.02069753258226
H          112.68604735652688      116.64393937239132      116.78954420473173
O          107.17157228104503      121.47797124625380      117.11514515163876
C          113.45824742267426      114.44599420125839      115.86473262742518
H          112.04499405628482      115.13895205177414      114.36191967266454
H          113.58702323264230      116.02810338512988      114.40597806505831
C          114.16649947685042      113.37399103457949      115.04060078491169
H          114.18053297270249      114.92134501234210      116.53201342817542
H          112.69090586564626      113.98457071065573      116.49108964914249
C          115.06647302670922      112.53453395766923      115.94457187622557
H          113.43668664549264      112.72900844407182      114.54698773615848
H          114.76761333759164      113.85440285775090      114.26496271903004
C          115.62641415655843      111.29239627353657      115.25060666171163
H          115.89443620123795      113.15954194575566      116.27978097219680
H          114.49459704953672      112.24673632373553      116.82906320656743
C          116.86366046617964      110.75998928450787      115.96693898662465
H          114.85711199156219      110.52148433445737      115.19569416153652
H          115.90881343429523      111.54801248963216      114.22826594236604
N          116.58175001249728      110.46006415986831      117.35772304974456
H          117.23194421425389      109.84298924014867      115.49473298810776
H          117.66471588906873      111.50545443475852      115.90660118148044
C          117.38709856402777      109.71978712969620      118.12388484104882
H          115.76254295859020      110.88412726713742      117.77035201957733
O          110.45895380902168      117.05370047312677      114.58262791240659
C          116.85523468578197      109.44311071161798      119.51858258778796
C          115.44609305246313      108.85125787428706      119.50883308606282
H          117.54942699205445      108.77209003059077      120.02739781442111
H          116.83176578945522      110.38608487813050      120.06660736972620
C          114.89096538857704      108.69977995303941      120.92261161059395
H          114.77431295471010      109.50745893775495      118.95533137554735
H          115.46242707697070      107.87840526968522      119.01312323030463
C          113.50895199982888      108.03945364861910      120.88279489667580
H          115.57432462007428      108.10566628312984      121.53001252057936
H          114.80927700906672      109.68306602489100      121.39029372938657
C          113.00396872979475      107.77838982336598      122.28221926018198
H          112.81133294543513      108.70851029135535      120.37794761744902
H          113.57356090333737      107.09946488838736      120.33737677230107
N          113.36394708664764      106.60099229470383      122.78955198287038
O          118.47727928569418      109.30339236392820      117.73632247167571
C          113.07479592699900      106.16216488964609      124.13864772933067
H          113.73822355668337      105.90476151815237      122.15203731951679
C          112.71248813127237      104.68046440102906      124.18847739839988
H          113.95540347538244      106.34969401239213      124.76568991037107
H          112.24971682202305      106.76809273225500      124.52294936290964
C          111.38444387419366      104.38465279739911      123.49353308964639
H          113.50971079187443      104.09821178008380      123.72166140548509
H          112.64905622696809      104.38380610028065      125.23654572900639
C          110.93343840793383      102.93746149197938      123.69503413726109
H          110.62044432919957      105.05338421480434      123.89668579412664
H          111.49602283980632      104.59243648932468      122.42843846757205
C          109.45723145751916      102.70903185816515      123.35723060549270
H          111.56153152431001      102.27116193251561      123.09837335107429
H          111.08156300229624      102.66454926556419      124.74278189252684
C          109.09212899913913      102.92789732064054      121.87984460722863
H          109.18979484302305      101.68413119683422      123.63062304017483
H          108.84383588344798      103.37676209310342      123.96674818887834
N          109.67243481166184      101.98677246880838      120.93878411269287
H          108.00490124002404      102.85584844405865      121.77929205629853
H          109.39154349287411      103.92914465727266      121.56649743570622
H          110.68303263194396      102.06494483790887      120.94770451512419
H          109.43533267471304      101.03846775371703      121.20824365809574
O          112.33441804774669      108.61377029201793      122.89561360296210
C          125.65281370171544      116.43823555064506      127.40605771457906
C          125.75901874720380      117.91925660433847      127.14044263190942
C          126.31995855594776      115.66026659988093      126.26454614009108
C          127.84240358938253      115.71974779045199      126.34806643649220
H          125.99149241733323      114.62156932973610      126.29229685795903
H          125.99573550488709      116.08868058797528      125.31392121444598
C          128.49001197782357      115.27214697124032      125.04142644565275
H          128.16255481109744      116.74147283362316      126.56572914476820
H          128.19017989549343      115.07759200300637      127.15878640011087
C          128.28840150655938      113.79951368881838      124.74113511702861
H          128.11853468250249      115.86119760487209      124.20208066583974
H          129.57156154705979      115.42086491215615      125.10899931639078
N          128.23517959276737      113.51594748947434      123.44082741820725
O          126.50336610653548      118.55181429570946      128.02539190140070
O          125.22898432440402      118.47326595820647      126.19795110684903
H          126.63646072440162      119.52211576034389      127.81554913542730
H          124.59976486169266      116.16453433791723      127.44507290552845
H          126.12723869495123      116.20946958369134      128.35878142106461
C          128.40699316105039      112.19639327635619      122.87243965679744
H          128.26436582000446      114.28690762278404      122.77967669707866
C          129.72078264189460      112.16069110296479      122.08801316134694
H          128.42295341665093      111.47197200144922      123.68730153690950
H          127.56691814587479      111.96803894385449      122.21029972775746
C          129.96954769549421      110.83246712533848      121.37874159214945
H          129.68932807912969      112.96204256266535      121.34601195489891
H          130.54673963762949      112.37037459471489      122.77064026896724
C          130.32801557671485      109.69079531329697      122.32894450744763
H          129.08567263093411      110.57066775193925      120.79737991721564
H          130.79865133350049      110.96777037783860      120.68253528937370
C          130.73065333251103      108.42343319717888      121.57216183840939
H          131.16570474725896      110.00766547119842      122.95282513932722
H          129.48865791532344      109.46556106197507      122.98730655027562
C          129.52630111091608      107.65781902981196      121.02025298990881
H          131.37978039763701      108.69210310328801      120.73547547840138
H          131.29486508695931      107.76000123414433      122.22961647462147
N          129.94303970462698      106.69275488063063      120.02833902412442
H          129.02016743536052      107.10714441558672      121.81639904171081
H          128.81406889376566      108.35213303972135      120.56736570119185