3795
 energy: -5103.696177541642 gnorm: 0.000887459725 xtb: 6.6.1 (8d0f1dd)
C          101.94819632421188      125.03151583466571      106.08012900136424
C          102.86117870000938      125.62529746647861      105.04396733865997
C          100.70425755869219      125.89242442175880      106.32180750593095
C          101.02954387925631      127.31976248170082      106.77015947584282
H          100.11912627253986      125.93970995153568      105.40268157555030
H          100.10271358263752      125.39893425909956      107.08650346885382
C          101.88227679676602      127.39106608195866      108.04484453923455
H          101.56131058174023      127.84174452635321      105.97222486990754
H          100.08607967899998      127.84398049077100      106.93371807192504
C          101.29314848980164      126.52709640656666      109.14762565341326
H          102.89711623562316      127.04653796181577      107.84358602350675
H          101.94495584556351      128.42668892731857      108.38108871191770
N          100.20846783347353      127.05035375828415      109.74171810850443
O          102.22288476646308      125.97255025206145      103.93619733763438
O          104.05767981815006      125.76664935075092      105.17337746924044
H          102.81067404733687      126.37121935609287      103.27077509746942
H          102.49908460474943      124.88704697344014      107.00899132350911
H          101.63596226594106      124.05062329117966      105.71286845071100
C           99.46773680095173      126.34875843497250      110.77006849189172
H           99.82336210381273      127.92032650225617      109.40882333899661
C           98.64134710378748      127.30772366088084      111.61879323386088
H           98.80280390223221      125.61131442991696      110.30062576667862
H          100.19466863573599      125.80360535570483      111.37698268802119
C           99.47600229299289      128.28395475082698      112.44875440961403
H           97.97638528720155      127.87155445721272      110.96058440695165
H           98.01718773601112      126.71111276137268      112.28607297396167
C          100.27681209318925      127.59844678247109      113.55356876057400
H          100.16126670904498      128.83299412210792      111.80090794105635
H           98.80138146702890      129.01000980989409      112.90663780132519
C          100.91086482701434      128.62536198977241      114.49197889065618
H           99.60984560050863      126.93688716763712      114.11192294472488
H          101.06558641290171      126.97963703106403      113.12120713592063
C          101.82207707498509      127.97863516808584      115.52486945963206
H          101.51458673533440      129.32260692894187      113.91046278219977
H          100.13706846362716      129.20526664046329      114.99877691380070
N          101.04854943812347      127.23438563635108      116.50310320733510
H          102.52173670617312      127.29621710322141      115.02638423815927
H          102.40966871607293      128.74590014049261      116.03942760669676
C          101.59529076774420      126.54786822273439      117.51251803426200
H          100.06705811622209      127.12760557196262      116.30311244235727
O          101.75314048268901      125.43724718176338      109.45599745781317
C          100.62874257195574      125.69188789953625      118.30927297647743
C          100.58744770603984      124.26215589116437      117.75403090278414
H          100.97453690410255      125.64493536304356      119.34330821379248
H           99.62969445485282      126.12722627287820      118.28848368026409
C          100.00132675459655      124.18064049827450      116.34622588685352
H          101.60116978168243      123.85672654874901      117.74711970904772
H           99.99003390965706      123.64940553436853      118.43196312684273
C           99.89492958050074      122.72980586005156      115.86500546593551
H           99.00207438256049      124.62323179018148      116.33496405965646
H          100.62910036128179      124.73413849032923      115.64426861712160
C           99.25933420494954      122.70420379760213      114.48777920792419
H          100.88336072391695      122.27288562257871      115.81556986443610
H           99.26843119773531      122.16380048243926      116.55536980297532
N          100.12362067457730      122.67536963123628      113.47994772984705
C           99.72191804827855      122.59831105894553      112.08979036061632
H          101.10801386120828      122.49756831326604      113.67402152034425
O          102.79226998314070      126.60057008603664      117.77633342001459
C          100.94567466630532      122.36356687365546      111.21521257300489
H           99.00333156285473      121.77766301711219      111.97286521589301
H           99.20742458027630      123.52298501313362      111.81007505503197
C          100.58600488602548      121.90767690925350      109.80530583548256
H          101.53566310808303      123.28039733102649      111.15925632470680
H          101.55993072489693      121.59626248050853      111.69175046232787
C          101.83772897378965      121.53733122685816      109.01538799210638
H           99.92805492275359      121.03698260295347      109.85851669106385
H          100.05012714568804      122.70506041490974      109.28844459991782
C          101.50086421249330      120.94423312346750      107.65048260913646
H          102.45245078920574      122.43050590271980      108.89103270403666
H          102.41018398461547      120.80222589770861      109.58547777402990
C          102.73996345331270      120.49692817690521      106.88737012770660
N          103.36947357448658      119.36189844537843      107.53531729635645
H          102.46190785753669      120.23333865712647      105.86041182580905
H          103.47606164900508      121.30659992666392      106.83739615204699
C          104.64628045032401      119.03443288592926      107.34535904071663
H          102.81746151580288      118.84679646314359      108.21098639232396
O           98.03488043239551      122.74307322555184      114.32868605194209
C          105.13137619644495      117.84442338071715      108.15039152231232
C          104.79945969221176      116.50396129183795      107.49062980346429
H          106.21281013505624      117.92998020814510      108.26133051847479
H          104.66799840860870      117.87184915843305      109.13624037902122
C          105.42115199875681      115.35274645789643      108.27895538242814
H          103.71668536834876      116.37899278661727      107.45799930728053
H          105.17597299798319      116.48348188930798      106.46617081150346
C          105.04944054470850      113.98965518750637      107.69580690876012
H          106.50863713726496      115.44800200831412      108.27225783381536
H          105.08243835571980      115.40726818561156      109.31556565992511
C          105.79825819654918      113.69358632678650      106.40532913465753
H          105.33231973257041      113.20581275720724      108.40203421648762
H          103.97512459873097      113.93541572461857      107.52479719716591
N          105.00709878411372      113.43106642658060      105.35444824987259
C          105.51709389951996      112.89967424839745      104.10454357403970
H          104.01037455138193      113.35324157444985      105.50305549240362
H          100.84501819272023      120.08182355182140      107.78365839533133
H          100.96803217230605      121.67894065632035      107.04614480839818
O          105.38546143285460      119.65492463310663      106.57652789656174
O          107.02048340840287      113.70831933806397      106.32915353754137
C          104.38276490190763      112.73313294904742      103.10048407129722
H          106.29005857773623      113.57886616547263      103.73194905062788
H          105.98661322223025      111.92996816407215      104.30513778040680
C          104.77963188998520      111.92066331181448      101.86815681254124
H          103.56519090505664      112.20839721392927      103.60072059939350
H          104.01031120492965      113.71426962733521      102.79917348113217
C          105.79474336652999      112.60671332457345      100.95602687352844
H          105.18552587681953      110.96318602945009      102.19850778371973
H          103.87509399640165      111.71348168223822      101.29292814950404
C          106.07073203288378      111.75542646821977       99.71721096366829
H          105.40672735199637      113.57717128711813      100.64123481563637
H          106.72507742565651      112.77668495968479      101.49794620943680
C          107.04206643626034      112.41342253892297       98.74349330022838
H          106.48216949543004      110.79189529961006      100.02451113455429
H          105.13344024290468      111.56695129497862       99.19230927149485
N          108.34655801256957      112.57523522753313       99.34774250708374
H          107.12615525725030      111.79926690854168       97.83824120208189
H          106.69063817806021      113.40470424242048       98.44367630070427
C          109.19172662186872      113.55648408199258       99.03075215064153
H          108.64855393813235      111.84931321493467       99.99090874693124
C          110.48874912944775      113.54538551870081       99.81202467137356
C          110.55926360282830      114.73910982997329      100.77015012584364
H          110.58320301129700      112.60748104955685      100.34885174630679
H          111.31389849686141      113.62305079439561       99.10298934314052
C          109.48754004726047      114.74015325523045      101.86239730292760
H          111.54499456325684      114.75581638145187      101.24015230600760
H          110.45134387995007      115.65779540230008      100.18767072309629
C          109.57031533009105      113.54403368639905      102.82379249702699
H          109.60382605919646      115.66229980794823      102.43575033411491
H          108.49718396550557      114.75796976018154      101.40273124784686
C          111.01737157963763      113.25600411638169      103.17911121545636
H          109.01954658418370      113.77639028940504      103.73684758854002
H          109.13338168359046      112.66180261030478      102.36026676371995
N          111.48569897984794      112.12685983360645      102.63510207247553
C          112.87190345656082      111.71791768053750      102.61243700823057
H          110.84882735372601      111.54644797407175      102.09791389729409
O          108.94352932240997      114.41653940697094       98.18517996471833
C          113.00418175974183      110.24182687871696      102.98220352075646
H          113.27213539306311      111.87992590515530      101.60409332926893
H          113.42474776791029      112.36047774167136      103.29830661482512
C          114.33107930856967      109.64122141745078      102.52750858711853
H          112.89470102651306      110.12300337399979      104.05998058929285
H          112.18454255318296      109.69789261768689      102.50954501108660
C          115.53100334679522      110.30693531275703      103.19519965374981
H          114.33136307388625      108.57523228128284      102.75909325219064
H          114.41957063470839      109.75007949276231      101.44488063017923
C          116.82862551401399      109.56273655842115      102.88696966588576
H          115.60492610646394      111.33933445026904      102.85476728249684
H          115.38118373032351      110.32226726424268      104.27638028604115
C          118.02893266573265      110.21557635977889      103.55526471939125
H          116.74565360381901      108.53469376054848      103.24266494352992
H          116.99759118938296      109.52848937532660      101.80934978098712
N          118.38721383943147      111.45822663184499      102.89641752995684
H          117.81223208565950      110.41250373473402      104.61244404532430
H          118.90717846931744      109.56220959444926      103.51721122414638
O          111.70121503341167      114.00569789680610      103.87022925053239
C          119.49439732089235      112.12151616829303      103.25644110569188
H          117.68611453417050      111.90045937135260      102.31512599074857
C          119.77947600368944      113.40087229223698      102.48894078888188
C          121.04068767243608      113.16688040139456      101.65250124354954
H          118.92494013261476      113.67570967356264      101.86986593267522
H          119.96143881725543      114.18768608491767      103.22314037993938
C          121.63850434942422      114.41124116021420      101.00105016336434
H          121.79601810982363      112.72683058953676      102.30358700734271
H          120.83129954732165      112.43346318177649      100.87176149558881
C          122.10391174007987      115.46270812377983      102.01661710358671
H          122.50366286145194      114.07576313849384      100.42949991004438
H          120.93584391690393      114.84474952212025      100.28729341089931
C          121.37264124624032      116.78865807463069      101.98903457030630
H          122.00766030594448      115.06884239539673      103.03174689787953
H          123.16038719342646      115.69296471969066      101.86916585029282
N          120.06047957230723      116.74447835348698      101.76093041587079
O          120.26219290401546      111.69747513317733      104.11163365905647
C          119.21887380582305      117.92470654710928      101.70766636664865
H          119.61058814684141      115.85254598980391      101.63457975507751
C          117.76413395862839      117.52333092798520      101.50778812094401
H          119.34507243450898      118.48154316700095      102.63987427369702
H          119.55554035965322      118.56204517426572      100.88222021966527
C          116.83984287263426      118.70355515679887      101.20703743005245
H          117.71508088349529      116.81424866297587      100.67732066390775
H          117.39758254548717      117.02271615940236      102.40548114152523
C          116.91287974700542      119.79184158142399      102.27320603026747
H          117.07129551019756      119.13160611546304      100.22928307274378
H          115.81848378545295      118.32021091171703      101.16890762964279
C          115.83634617329793      120.85587089291427      102.08229209226987
H          116.77675344158392      119.32387503155287      103.24608561413768
H          117.89594162202815      120.26276266061841      102.24464248281049
C          116.04397799982408      122.03425092280631      103.02605614925689
H          115.84374185038226      121.20469419990698      101.04746021193432
H          114.86487433557946      120.40719155364576      102.29296374949058
N          114.93320712187821      122.95908850469337      102.97168556928526
H          116.11897597177415      121.69173295649406      104.06133109008661
H          116.97329820295155      122.55642597574895      102.77187548642277
C          114.43048587595608      123.57372768673758      104.05647374227584
H          114.50944587937710      123.10619887717993      102.06953457900441
O          121.97527340724800      117.84289883233531      102.18124307643491
C          113.20532192640229      124.42494942802496      103.78011414073056
C          111.92373893448458      123.58385331022539      103.74433263783264
H          113.13312293997322      125.16894683300237      104.57298976322849
H          113.32470957275014      124.95099998754139      102.83253041959408
C          111.78451829482546      122.69925499042162      104.98210909814816
H          111.07186534836988      124.26514627221721      103.68428542750956
H          111.91012200566965      122.95653702874006      102.85073348156668
C          110.35137893915500      122.19756819041662      105.18151027334973
H          112.44956569456880      121.83760081579506      104.89254308167639
H          112.09587487011291      123.25925078730546      105.86552121361940
C          110.32480434333449      121.11193372864538      106.24034328911290
H          109.69119831680194      123.01497924945782      105.47067581220887
H          109.98484242462128      121.76292520439655      104.24744283870598
N          109.64057294429635      121.40171783530660      107.34466614796510
C          109.42317514149046      120.46168123168600      108.42480234416971
H          109.14522489160794      122.28738997346736      107.41915152256604
O          114.92013546719062      123.45149375375576      105.17038574575396
C          108.01018198402470      120.61323187760878      108.97305415042793
H          109.58363755227559      119.45207084138006      108.04176093548942
H          110.15453644182109      120.63302933861885      109.22395644505896
C          107.73426951661321      119.64160180419272      110.11525420682344
H          107.88479107180733      121.63790763065992      109.31979383046813
H          107.29467822504178      120.44088860719005      108.16620695877495
C          106.33147915532943      119.81863952890373      110.70194628120997
H          107.85263861803941      118.62158800655617      109.74575857870137
H          108.48023165906292      119.77900731311402      110.89812303062740
C          106.26395645788479      120.91646562417061      111.75836768801166
H          105.63355302375149      120.05291722363063      109.89613894647009
H          106.00300024268311      118.87989138671823      111.15378718145531
C          104.85025192116233      121.08808891234709      112.29341852858461
H          106.92900842930584      120.67193350365183      112.58741352410858
H          106.58995570871635      121.86617905464011      111.33810782530421
N          104.82410064670144      122.12235213381416      113.30492947004090
H          104.16609730346394      121.34741240535458      111.47447115951800
H          104.48433315140322      120.15613713727807      112.74022103902345
C          103.76716855033908      122.35669631236507      114.07589224085082
H          105.63424836004960      122.72766689480599      113.36092528592361
O          110.92400296893258      120.04643040257641      106.08026908274169
C          103.95573893907935      123.44811240140075      115.10453801045570
C          105.06606185240358      123.07301069912579      116.09019826761983
H          104.18126605803677      124.38095041468422      114.58575806056581
H          103.01327354903061      123.58092335621187      115.63819276164556
C          105.04003824191788      123.95944578089940      117.33151318979922
H          104.93240853533432      122.03023607607420      116.39134601818313
H          106.03460508595275      123.15061434616644      115.59536060986080
C          105.97273036413269      123.43591742116985      118.42574979791210
H          105.31541107030598      124.98075647663134      117.06790454680421
H          104.02376281548312      123.99536694869413      117.72957573742961
C          107.43597265957061      123.64096576350319      118.09333116750201
H          105.77558679408146      123.99065286554267      119.34489947725378
H          105.77805339338346      122.37729106272600      118.59479512386132
N          108.11939706854085      122.53405863027376      117.80174803138516
O          102.72161428327382      121.70453383233618      113.98989456171094
C          109.55683536130086      122.51284695978921      117.63256713670091
H          107.63325177758556      121.66527710322498      117.60184884594256
C          110.12961141076065      121.17166597542099      118.07807153528967
H          109.81959106283993      122.69947421537103      116.58394994296255
H          109.97112554378391      123.32134995028520      118.23944182563550
C          109.80301816790202      120.85319418927261      119.53504489533977
H          109.71297583989434      120.39018241833799      117.44167445181168
H          111.20976248549520      121.18865078573185      117.93663349650444
C          110.34463863031959      119.48490182038155      119.94654816917412
H          110.22118606938656      121.62388808974951      120.18239515616433
H          108.71868064619744      120.85893881167583      119.66063082282415
C          109.75937745436211      119.03548846560855      121.28520868833118
H          110.08602183505747      118.76038099577623      119.17180882840150
H          111.43371744689479      119.51849698224274      120.01098333759161
C          110.24033008468105      117.65455826308404      121.71512789800916
H          110.02872161224008      119.75338340564866      122.05930440077401
H          108.66950827188273      119.01772627794465      121.22112540825385
N          109.89433990278239      116.66273328821630      120.71645170456118
H          111.32707187052908      117.63060628904277      121.83881610020896
H          109.78144466448035      117.38826879798373      122.67520720303175
C          110.52617530646916      115.48908272410581      120.57679858304509
H          109.15602432489270      116.90471241189229      120.07379233689073
O          107.96685716955254      124.75219726108190      118.15120439782794
C          110.05966697805732      114.67949981997958      119.37860027128774
C          108.84563107561198      113.80681126100586      119.71753506525103
H          109.79389271210239      115.35616108389182      118.56511149608438
H          110.88264465286817      114.04337679650237      119.04781060277431
C          109.23552827196688      112.56028748211992      120.50910029059010
H          108.12049871864629      114.39282267573246      120.28622458128433
H          108.37148881588240      113.50096075585198      118.78457995725738
C          107.99818710655617      111.74432912659965      120.86863749367852
H          109.91357265170602      111.96758961086930      119.89017507857700
H          109.76249601121552      112.87226877489660      121.41341866015703
C          108.22357914869838      110.42636508010386      121.58238044165654
H          107.34428143147326      112.33096121247358      121.52015767547843
H          107.42213774446289      111.52757143074378      119.96543583286869
N          109.48773376137959      110.05399532807799      121.80372316893394
C          109.79407629980338      108.91619087243781      122.64679425731467
H          110.25145524930267      110.64402763488428      121.51761310876195
O          111.39821575184365      115.11103148690152      121.34665910677617
C          111.26642580501324      108.52956002726522      122.61295799807074
H          109.49612472089052      109.16970593868747      123.67139962000498
H          109.17476925512547      108.07718706852158      122.31762175835181
C          111.60772230778059      107.56993767801018      121.47674614613466
H          111.88431567758302      109.42624873660830      122.54192024788021
H          111.50646758634511      108.03546380034139      123.55558203103222
C          113.03478611539011      107.04661868779958      121.61565623174472
H          110.91687676675940      106.72509095598669      121.51028137747728
H          111.48695192191515      108.06675921927686      120.51261642540436
C          113.32451748149545      105.92730844367156      120.62406416625127
H          113.73656614144269      107.86721585983695      121.46181764707110
H          113.17906410333184      106.66716017239420      122.62999044913292
C          114.62066326985793      105.19100666553214      120.94175173996373
H          112.50962330644573      105.20197064821046      120.65882458671123
H          113.36970259407148      106.33618753351234      119.61322141734513
N          114.71281615361920      103.98485654526728      120.14719680837867
H          115.49823579497316      105.80731306034943      120.73506404263649
H          114.64422101699813      104.93737221797214      122.00934871709573
C          115.85485365658504      103.49069400161096      119.67525953300112
H          113.83401709812011      103.49857481603921      120.00087291075916
O          107.27342327991072      109.73375031219639      121.94372886275018
C          115.74390323516310      102.20706923305015      118.87418301718647
C          114.90268689535839      101.10639122656659      119.52586485394629
H          115.30855386218875      102.45530935086566      117.90260367641805
H          116.75799011255411      101.84285588440363      118.69854510693028
C          115.23493654204495      100.85357048642823      120.99842446640132
H          113.84269069506406      101.35592127636845      119.45628836924625
H          115.07578341418564      100.18804604451101      118.96435115067089
C          116.72493390575420      100.72312373388291      121.31103822085464
H          114.84395075432309      101.67631290394159      121.59885769724374
H          114.72338627787332       99.94247122080053      121.31580060433463
C          117.43930602594803       99.55582680597730      120.65727680293281
H          117.24637616296839      101.63002325676528      120.99566745315602
H          116.86674608651062      100.63674895717666      122.38888903252051
N          118.61141643401062       99.27157783562062      121.23921451172900
O          116.94230909853248      104.05082083472996      119.83433886554680
C          119.50593851535236       98.24520792663282      120.74758334962316
H          118.84503305118319       99.70227819539846      122.12591819349828
C          120.91112513815861       98.45604465006109      121.29671481364112
H          119.13804088078416       97.25098958518373      121.03345185690841
H          119.50478710028651       98.29772064429811      119.65464932618929
C          121.91131754023368       97.44874900619479      120.72502454695743
H          121.23407457135795       99.47277401493179      121.06232080144959
H          120.86996785695044       98.36265165096358      122.38377594285981
C          122.36021017175736       97.80381114900999      119.30748951603766
H          122.79088329360030       97.41500927603929      121.37198665049473
H          121.45743348330004       96.45682085677232      120.73755677321877
C          123.40035071546841       96.84087361101916      118.73896002459655
H          121.50660797707064       97.82843082534737      118.62989477219013
H          122.79541830124221       98.80566975974844      119.31915011017747
C          122.83011894278154       95.46565033189073      118.40093274072808
H          123.80045966904636       97.26298436242200      117.81650251425846
H          124.22546724700354       96.72516626803598      119.44669536506768
N          123.83571157475657       94.66671693325860      117.70938335918636
H          122.45749599710312       94.97699098722514      119.31698521758958
H          121.98295949834694       95.58908910223576      117.71969898310125
H          124.63337147367099       94.52541778483327      118.32033631996869
H          123.45762466628416       93.75261692216553      117.48823988699098
O          117.03173746049902       98.95058968426001      119.66849216448887
C          127.15148049572751      105.52260319896612      103.21731830544535
C          125.88729051515779      106.18097267269468      102.71032067982739
C          127.10987923817189      105.38168335098118      104.73967515175235
C          126.07583739870439      104.36093437220869      105.19841118598704
H          128.09655927333293      105.08819268841228      105.10171544714089
H          126.85677931749362      106.35506915767979      105.16530365365131
C          126.04878247901621      104.24086583967259      106.71896566643689
H          125.08472860852316      104.65843045342713      104.84628958981081
H          126.29586474305090      103.38339169288081      104.76566306246927
C          124.99551699694729      103.25223511757682      107.18502659339001
H          127.02182068040139      103.90458818097295      107.08585188448268
H          125.83776673892355      105.20830785386727      107.17901140142106
N          124.75513637270448      103.28105296593967      108.49488097803422
O          125.27836927604903      105.48634035172354      101.78293594800894
O          125.48463026193444      107.24947928078213      103.12933344303347
H          124.42418509559445      105.94907323480142      101.43737221873583
H          127.99041406496653      106.16310137429224      102.93718963926837
H          127.26371307565903      104.55303594356351      102.73396570507428
C          123.74006251297642      102.48793943849165      109.15507514975502
H          125.28553114754536      103.92386723031328      109.07245849282458
C          124.33692797482482      101.61258727202107      110.25609861929259
H          122.99118135488747      103.16440179910595      109.57606939692829
H          123.26196348648378      101.86960287059203      108.39224530880294
C          123.25816836399700      100.88643954401401      111.06275920310624
H          125.00859782525046      100.88593860310674      109.79650563480509
H          124.93305707623652      102.24242042983471      110.92011842974772
C          122.56034983722067      101.81410651252929      112.05707765693576
H          122.52335777046424      100.46525123866593      110.37492538127540
H          123.72121276024276      100.06120428264749      111.60459261108957
C          121.33543921844104      101.18876129379042      112.72095886042983
H          123.27194329404435      102.11031286334622      112.83062651480492
H          122.23896930933269      102.72010625230617      111.54227493207651
C          121.66905339736735       99.96115181047414      113.56069885370584
H          120.87004147281904      101.93424010020060      113.36865298950366
H          120.60699180640700      100.90603631638174      111.95911596840995
N          120.50168867374897       99.51877402629314      114.29452240263896
H          122.02035471696756       99.14725869983040      112.91767239004710
H          122.45325080738785      100.19572923481864      114.28356539130671