3864
 energy: -5104.249466629518 gnorm: 0.000875305763 xtb: 6.6.1 (8d0f1dd)
C           33.17668254887288       47.51419781592883       42.65026196009919
C           32.59660357190981       46.38786388818658       42.08236019119499
C           31.76256155336052       46.56202325185392       40.98331800545238
C           31.51507849155921       47.82242935498087       40.47082326877477
C           32.10847773762517       48.93468973911229       41.04206548144952
C           32.94325057225008       48.77589787556470       42.13301522054238
C           32.89086705017467       45.00617218146378       42.61875688558677
C           31.59426079416017       44.24537123384351       42.90378262491463
C           33.79988182193345       44.28945193653352       41.60378562827427
C           34.09038010558850       42.80714575462671       41.88628688045451
C           34.73914675929230       42.18282043266576       40.67408102420407
C           35.89556041581779       42.71529493271412       40.11618309975304
C           36.48569103245026       42.12637599385648       39.01350958403172
C           35.93276921736395       40.99210895701953       38.44627517007997
C           34.77443926116184       40.45871543084267       38.98368068427231
C           34.18351225092695       41.05416363458800       40.08426727528310
C           34.96437461469630       42.60403160461440       43.13214607982799
C           34.97861639523368       41.14082930322166       43.60539236641066
C           33.58484820056241       40.69546874991595       43.97064015783306
C           32.88378532353297       41.29857985937502       45.00955284253687
C           31.60596811113231       40.88429292610069       45.33928262792053
C           31.00220205993914       39.85772512275222       44.63321474301365
C           31.68873618332084       39.24795834919988       43.59756795090858
C           32.96794148890266       39.66465429560581       43.27268384741886
C           35.93774381938141       40.97868469182374       44.79549827979209
C           35.88644330470281       39.58074694788184       45.43161513114465
C           36.42812513306350       38.52039752014174       44.50765656168958
C           37.77555724180997       38.47124079208926       44.16809390959983
C           38.26470136908986       37.46167641162888       43.35907339924130
C           37.41363504743854       36.49017102077837       42.86219623300074
C           36.06772801374863       36.53469451846952       43.18344266223176
C           35.58404952395116       37.53808310011727       44.00418695159432
C           36.64236315504875       39.57340900712632       46.76788468353477
C           36.63306791095540       38.18706335698343       47.42931642646502
C           35.22985155158688       37.68114069231986       47.63902912686986
C           34.30915296084553       38.39731983209984       48.39534851264371
C           33.03096301106633       37.91244708976708       48.60339660573789
C           32.64680296189363       36.70320832317141       48.05012060848007
C           33.55168574529041       35.98423727718787       47.28804558581849
C           34.83208758737207       36.46956163833715       47.08863440487968
C           37.39690901802072       38.22362028732026       48.75942248216622
C           37.62870360808871       36.83323631723488       49.36785897323177
C           38.35490579946542       35.92866045962420       48.40493464953548
C           39.58749076211152       36.28705730424154       47.87034952180540
C           40.26110589307042       35.44091792015329       47.00880212266516
C           39.71656323656297       34.21451140114172       46.66852057454464
C           38.49036654902657       33.84490045035229       47.19416037617237
C           37.81805508458235       34.69624942223987       48.05377688686258
C           38.43307792754525       36.98173061375172       50.66883363314638
C           38.77507525738938       35.64606548047686       51.34480995246720
C           37.67822138179383       35.12687864294198       52.23349632584290
C           37.12936439084331       33.87192121365457       52.00210096163122
C           36.19737810197438       33.33252309478721       52.87091537390715
C           35.80999122340163       34.04205311135276       53.99357913055464
C           36.33766124764967       35.30008704832894       54.22590864446956
C           37.25750474044889       35.84102066112521       53.34858252750174
C           40.07310387063820       35.79878312486725       52.15806003251403
C           41.31092561302781       35.62964796349306       51.25364108363812
C           41.76146541032293       34.19307229757509       51.29027202170285
C           42.30282480805982       33.64359311390892       52.44783887996333
C           42.67491791420179       32.31345370482546       52.49405298499471
C           42.50766140806363       31.50459413103714       51.38187993881174
C           41.96063085069984       32.03712514096603       50.22886349055597
C           41.59231095185174       33.37068742602620       50.18482912290951
C           42.41678088874269       36.61242636363878       51.65394788607069
C           43.71625132519989       36.46492127433506       50.84583638323315
C           44.77635599260636       37.36328713591704       51.43868544290995
C           45.98447876783327       36.84210890741645       51.88188211750170
C           46.94376304721737       37.66181338984624       52.45225107088004
C           46.70909869003759       39.01706014020178       52.59549012858431
C           45.51504665324440       39.55204920030033       52.14643328138540
C           44.56471609260501       38.73216373987347       51.56579210536270
C           43.52255974200305       36.78422301495387       49.35673931815806
C           44.78666747834051       36.46209717657140       48.54777282066536
C           45.06364536793827       34.97885473219066       48.53830620424848
C           44.14983519419567       34.08602970756404       47.98915489436176
C           44.41921675179005       32.73166985692746       47.93920515972869
C           45.61071968711021       32.24011232339343       48.44333085031356
C           46.52534703282598       33.11401386853083       49.00230523718138
C           46.25081668656172       34.46868018980741       49.04714908593868
C           44.67030075497308       36.98002526237563       47.10764522762066
C           46.02071400589562       36.97706887783015       46.37496020541411
C           45.78834590578573       37.14540854549472       44.89438560212957
C           46.19729402660889       36.17162771692026       43.99296960356263
C           46.00233152857288       36.33524561538727       42.63179549431621
C           45.38879235267110       37.47889449780270       42.15082539087528
C           44.96777832098812       38.45335915019784       43.04002156451221
C           45.16654141616497       38.28669800786978       44.39776746991339
C           46.95721805327032       38.08459005736111       46.90312677526728
C           48.21553028930085       37.57479408874507       47.61872694149537
C           48.84083393982942       38.70330853663743       48.40209803411064
C           48.94427361034371       38.62499096344653       49.78398255444879
C           49.55846484802034       39.63034204207519       50.50886723449119
C           50.07955376671510       40.73569146855550       49.86084259842018
C           49.96171907777256       40.83623843653260       48.48538290488705
C           49.34718608365332       39.82998139140140       47.76412613655754
C           49.23325879283242       36.99454071464146       46.62949866763243
C           50.52056460267134       36.52616538269029       47.33097136436459
C           50.34084087227337       35.16462975608269       47.94921086102226
C           50.29787288786774       35.02242522060195       49.33132714464281
C           50.14083697029481       33.77900891599953       49.91692995745018
C           50.02948381521928       32.65079821293056       49.12280243969435
C           50.06624705834031       32.77790801727467       47.74415255118431
C           50.21706467653013       34.02452476029256       47.16386367626225
C           51.70886249826631       36.57352965017562       46.35578939156041
C           52.30388359012368       37.99714055959064       46.28636062733988
C           52.85450475504970       38.25256192977770       44.90651052914893
C           54.03082528706302       37.66496642803597       44.45585904819584
C           54.50693510787323       37.91743275169135       43.18136777346513
C           53.80587440043021       38.74759639832587       42.32326427800263
C           52.61941842001379       39.31821567247692       42.75133424475646
C           52.15149226871593       39.07280906320396       44.02891531128913
C           53.32428311749726       38.19388554832256       47.41565329360133
C           53.64337797128214       39.66199845827265       47.74002127916992
C           54.45517911516870       39.73014482152091       49.01188650867530
C           55.74613894255238       39.21699144930017       49.06125140323233
C           56.51175738347383       39.32950226442735       50.20726245310105
C           56.00102690856254       39.96149658447706       51.32773107635972
C           54.70729067502093       40.44876409566185       51.30119476065639
C           53.93877520477417       40.32242431678906       50.15672221287328
C           54.38010634007517       40.34773730937961       46.58012783452427
C           54.83021416358345       41.77870975106037       46.90360897217518
C           53.64909960039567       42.61413367485062       47.33629417135972
C           52.61536362762094       42.91994966945659       46.45831616644760
C           51.53345415877925       43.67462608130091       46.87542099457196
C           51.45244910749659       44.11512953095473       48.18613591765257
C           52.46739189839554       43.80357145831177       49.07235357290789
C           53.56354240694559       43.07568059801579       48.64404398568384
C           55.52175800262800       42.44319790709233       45.70220042436545
C           56.78421448671078       41.74255800658310       45.17005857000522
C           57.23611916689300       42.45263907240676       43.91688827243718
C           57.25310913669126       41.79725861367339       42.69202514916199
C           57.68079917012159       42.44517677374932       41.54519293765870
C           58.06377286404869       43.77390498250132       41.60050599554938
C           58.03539539612868       44.44233773979404       42.81141297875683
C           57.63472611365381       43.78281486597094       43.95639663407972
C           57.90698313742847       41.70147799254021       46.21414928039766
C           59.13595175538148       40.89816207162070       45.75283357079095
C           58.74077707505853       39.47220480461569       45.47290206103843
C           58.74555412341692       38.98236762292073       44.17301307528221
C           58.34290788409574       37.68702560299910       43.89939383083124
C           57.93054563284486       36.85514431296879       44.92612395852102
C           57.93664849420126       37.32643874016165       46.22805393838836
C           58.33986356249968       38.62206058282554       46.49690056069171
C           60.23212315701304       41.00162731321645       46.82469547869144
C           61.42146981578060       40.05558841619111       46.60881548184042
H           33.43320214188419       45.12022951488932       43.56205097733614
H           33.32931792075508       44.35046392566037       40.61852901981744
H           34.74043468415240       44.84159753575036       41.54781208188268
H           33.13750219244086       42.29610823267173       42.05263144499039
H           35.98543340027536       42.92389931928879       42.91773729734702
H           34.58780178125144       43.23173708888958       43.93907095376390
H           35.33273669919555       40.51153744648481       42.78040182694813
H           36.95454288570578       41.19398469829534       44.46176529010924
H           35.67906596545760       41.71495851723810       45.55767736058716
H           34.83781360125512       39.34013257415733       45.64064786633461
H           36.18213399819636       40.30528062063463       47.43375730139829
H           37.14945547871513       37.49105727710849       46.75882896644523
H           38.36365622958964       38.70013941140314       48.58512024635930
H           36.84168722284396       38.82613108522681       49.48002676116094
H           36.65780250236634       36.38261379075693       49.60272943697885
H           39.36675053971688       37.49594467479887       50.43364874762935
H           37.87058225578068       37.60488475646694       51.36630299819936
H           38.95422815828678       34.89244151032062       50.57029520455312
H           40.08322556687467       36.77616642825721       52.64265965246092
H           40.09414638378806       35.05146186638090       52.95341180389801
H           41.00947332176661       35.85721250908273       50.22728784135523
H           44.05266889072208       35.42380812689624       50.92201193549459
H           42.68787487112304       36.20576141605474       48.96249141578163
H           43.28731686912116       37.84471683838103       49.24208950547833
H           45.62888787674078       36.97062020941133       49.02739663428788
H           43.96813073014015       36.35636053875101       46.54977103561844
H           44.27281814356783       37.99559815588205       47.11158574699584
H           46.48656662658773       35.99928756200705       46.53947077828445
H           47.27343705290485       38.70958397736495       46.06797648074161
H           46.41098921361954       38.72542210503492       47.59773132764710
H           47.93203866505677       36.78133293971956       48.31776876870749
H           48.78640975511499       36.15745518365236       46.08917586517423
H           49.48623544064463       37.75786689547434       45.89135074627209
H           50.73585787737414       37.22792578223404       48.14312558922818
H           52.48353224266955       35.87198790278992       46.67422876926291
H           51.37901959924855       36.26420225127261       45.36116763016588
H           51.48893098724387       38.70963927692095       46.45162612309279
H           52.91292243179500       37.73820217033842       48.32067105771589
H           54.24852824546493       37.66491442897429       47.17617894636853
H           52.69500147244482       40.18473450840533       47.91076059014519
H           55.25153352392490       39.74706404151194       46.31317048894984
H           53.72399383910390       40.37432522289139       45.71029452011800
H           55.53307079957240       41.73826467259758       47.74204539257926
H           54.81134300794926       42.50301457271895       44.87429149992525
H           55.77790875935850       43.46682359378166       45.98324374505856
H           56.52619229787972       40.71357153862907       44.89853559535865
H           58.22316407926452       42.71920453992707       46.44881110078769
H           57.52386429959349       41.24742454341379       47.12934925438424
H           33.81834128869119       47.40694706835414       43.51209611701115
H           33.41727536156169       49.63972276946092       42.57498594465909
H           31.92917358145015       49.91753892918945       40.63146603649987
H           30.86049504989283       47.93684303458875       39.61778935775973
H           31.29827100769321       45.70503952356813       40.51731650807901
H           36.33959305834583       43.60590042387965       40.53474614528466
H           37.38587142585062       42.55271838637181       38.59668773646895
H           36.39826001234324       40.52860868457066       37.58825508169089
H           34.32812338717427       39.57799951807496       38.54305262518550
H           33.27239882078459       40.63673582589652       40.49085891590330
H           33.34205289502756       42.09710203821929       45.57363644758212
H           31.07581280446073       41.36302985134592       46.15029954195335
H           30.00386551271868       39.53295835749066       44.88877649578690
H           31.22668258460250       38.44374043228622       43.04173124449002
H           33.50099805985115       39.17872457993820       42.46672926933806
H           38.46110721394760       39.21924202243729       44.53845129304452
H           39.31676141375983       37.43556934861410       43.11755972785475
H           37.79491001874472       35.70026487474543       42.22989379476100
H           35.39416106234612       35.78001352901813       42.80069939056991
H           34.53482906427056       37.55511918988910       44.26664273139178
H           37.67688861388602       39.87882020887622       46.60130732179501
H           34.58762432120260       39.34772539289500       48.82625611325920
H           32.33173435264236       38.47551150016236       49.20470949575537
H           31.64798346211200       36.32291082941710       48.21091025511227
H           33.25888657915201       35.04024714970627       46.84907937951751
H           35.53484046396283       35.90178957749211       46.49367298659669
H           40.02613626590374       37.24035946883511       48.12239432288565
H           41.21556947394178       35.73707913281404       46.59669295517968
H           40.24285354756055       33.54956949418889       45.99790969557220
H           38.05677293917500       32.88886795674201       46.93403585844950
H           36.86066565922391       34.39947672359735       48.46125973673707
H           37.44690777474311       33.30232803080374       51.13837489969600
H           35.78521542942199       32.35090725015653       52.67974598669158
H           35.10566793345404       33.60658388332886       54.68825098164971
H           36.04218917309387       35.85844838270553       55.10159090134653
H           37.66804265077860       36.81812416724944       53.55166016288330
H           42.42912462856643       34.26240020639917       53.32424836529464
H           43.09055017071144       31.89529408088809       53.40084645634563
H           42.79698515987175       30.46362333162118       51.41858524719184
H           41.81408719840867       31.40866019520721       49.36153849387784
H           41.15656402591296       33.77073655593364       49.27907158885410
H           42.02303643624933       37.62170079783758       51.52868197166747
H           42.64744676416282       36.48170766213209       52.71257086011007
H           46.17864085310298       35.78279935324763       51.77513604347851
H           47.87594525268104       37.23673560569726       52.78824639009770
H           47.44489875067926       39.65654427356707       53.05954854453393
H           45.33059340471301       40.61040095982858       52.25985546708893
H           43.64107058981729       39.16163797112932       51.20665741789685
H           43.21366006946074       34.44457833890854       47.58736948019001
H           43.69969890588439       32.05549819546509       47.49860624190099
H           45.82611613532335       31.18149903951710       48.39734861786814
H           47.45905578653534       32.74431793226423       49.39903765209548
H           46.98257095600270       35.13372342098745       49.48355582284508
H           46.67655830654622       35.27300181544143       44.35901500328304
H           46.33334673705202       35.56822700649169       41.94482229046803
H           45.24381268339805       37.61123575660217       41.08785393872282
H           44.48837351201461       39.34812452628347       42.67145569775410
H           44.83722920356686       39.05699068595583       45.07795675965603
H           48.53867107557949       37.76410690309723       50.29781141748499
H           49.62986974673013       39.54383505852317       51.58227859143548
H           50.56592896817217       41.52125308241438       50.42180749506576
H           50.35290400310137       41.70034621620515       47.97027725862986
H           49.26475955734059       39.92923832016157       46.69158652684834
H           50.39687963847323       35.89893497192854       49.95623769658568
H           50.10365245992265       33.68122340442963       50.99286877644130
H           49.91390135799665       31.67695633189042       49.57792632644396
H           49.97671845848330       31.90023999721181       47.11878317352063
H           50.24813999784627       34.10972317434152       46.08680876818444
H           54.59070281150236       37.00555723813422       45.10344722198891
H           55.43307554517003       37.46281573944364       42.85764428466170
H           54.17583464361239       38.94478537324556       41.32697630573665
H           52.05666871238381       39.95975519989599       42.08870822080681
H           51.22775116657233       39.53512536008608       44.35145189598943
H           56.15730246941147       38.73083675509315       48.18881458660827
H           57.51670515244878       38.92884488053748       50.22929135655752
H           56.61430429482316       40.06914153812188       52.21016807355672
H           54.29869443513253       40.94425991077365       52.16946097252273
H           52.92760494458477       40.70325915648443       50.14220055299382
H           52.64405614919984       42.56163702640404       45.43898225142552
H           50.74323283672372       43.89772756986790       46.17326404529217
H           50.59758612885183       44.68510258830194       48.51797776031248
H           52.39844363893064       44.11514110394828       50.10479554589435
H           54.35634872838951       42.84222549972819       49.34055547222103
H           56.93201030015734       40.76455127364297       42.63777628676979
H           57.72775003713561       41.90855984040696       40.60619336278300
H           58.39227478150777       44.28239248511785       40.70568271201001
H           58.33471033634143       45.47760575144332       42.87194468371941
H           57.63353492191796       44.31863213540738       44.89150627419365
H           58.34927617094155       38.97311144310405       47.51790162368282
H           57.62729935115274       36.67776638313665       47.03648150701111
H           57.61306939519379       35.84374926491474       44.71361557605124
H           58.35459886620988       37.32362261859214       42.88060206533926
H           59.07371373024834       39.62354731944426       43.36669720462236
H           31.78699532590353       43.36269430301610       43.50915753182985
H           30.90426439844078       44.88858193809413       43.44674806866229
H           31.11244658933140       43.92757842001068       41.98227545906161
H           59.51529993110528       41.33604749198047       44.82208612006308
H           60.59407564428432       42.03157425448034       46.84628453232304
H           59.79626886031317       40.78831842267500       47.80239270471360
C           62.44495428529214       40.21405578169253       47.74781626487808
C           62.08138551381015       40.27702031186271       45.27102144287201
C           62.77610935366568       41.44784845137444       44.98989687951890
C           63.40366956023274       41.62446984066601       43.77039146846196
C           63.34918626657890       40.63170354854187       42.80713165489037
C           62.66054063187108       39.46114909877515       43.07458181791792
C           62.03621277791393       39.28681685325906       44.29732619001261
H           62.84916725056685       42.22664537374777       45.73267400879720
H           63.94575618569556       42.53799617160836       43.57101602740823
H           63.84708550515284       40.76719917226358       41.85741408464606
H           62.61495393605986       38.67721447657319       42.33110202134058
H           61.50792751762931       38.36466029857019       44.49860926572904
C           62.05409095121085       39.42929723152236       49.00573531704546
H           63.42071151242504       39.86154362644768       47.40392391802489
H           62.55003470828439       41.26978531442425       48.00679060171068
C           63.01289476025054       39.71138524888247       50.12753935063935
C           62.63813046952228       40.49713794539736       51.20873124586806
C           63.53627066983353       40.78314190746718       52.22255533011086
C           64.82678913531318       40.28787483623075       52.16599486560261
C           65.21138809158688       39.49990255609631       51.09380167809604
C           64.31060395872885       39.21366128600749       50.08459526144996
H           61.63051002252364       40.88386776513710       51.26506213326013
H           63.22292754135076       41.39781684767532       53.05354194732491
H           65.53564411556599       40.50700056051983       52.95072455706693
H           66.21752536747790       39.10709891087548       51.04546167709374
H           64.61610974444898       38.59287248436531       49.25308385380358
H           61.04915961456959       39.02501255076302       46.62703558975409
H           61.04463131079718       39.70458742875507       49.31453446987875
H           62.05929217627333       38.36098511693441       48.77286116321351
C           58.74990358667172       50.97916284501773       33.87153144641977
C           59.63868821037380       52.04143472342782       33.99465325539323
C           59.25112477840139       53.28595640705032       33.51439377003589
C           58.00190675387029       53.46697678941958       32.94591911092269
C           57.12461925933742       52.40213406626449       32.83606696497862
C           57.50498093442124       51.15190112183408       33.29417497900256
C           60.99896084156060       51.78928231205256       34.60174678069482
C           61.95397233012645       51.34083660750742       33.49104774539868
C           61.54910745192782       53.01229304520761       35.34404625936768
C           62.63101146407731       52.68431277035248       36.39020196412929
C           63.41111664559293       53.94200852549778       36.68732600803064
C           64.77210947643152       54.00714352735795       36.41828031423475
C           65.49297889666289       55.16181643811047       36.67029310655924
C           64.86033177684077       56.27429455842018       37.19664116560136
C           63.50283714372765       56.22586533140405       37.46534400154663
C           62.78713924594111       55.07131692371988       37.20755023353111
C           62.00770174702277       52.09894538805939       37.66537831938241
C           63.02425197016653       51.89844543950579       38.79841919765445
C           64.06197724180194       50.86288312947570       38.44469098937004
C           65.40218543748730       51.22019702928875       38.36068451669139
C           66.36923307691758       50.28418108301443       38.03932827729543
C           66.01022855223135       48.96913537388223       37.79803499494312
C           64.68030071594535       48.59713666335714       37.89280328064309
C           63.71764271661075       49.53531476954550       38.21915938361415
C           62.34265704711301       51.49980661965120       40.11766216950708
C           61.35045871583254       52.53366058591610       40.67696420809821
C           60.79602408843775       52.02583145584479       41.98575008335368
C           59.44459563295277       51.71683719709038       42.08797159735410
C           58.91359342204771       51.23199668738545       43.26986987099389
C           59.73326495378569       51.03738908304240       44.36664654510532
C           61.08290720998992       51.33790944777719       44.27999878348885
C           61.60715405234508       51.83142958145844       43.09790449309416
C           62.00499328830655       53.91717920564133       40.80243059705844
C           61.15282290486543       54.95467078327933       41.54752213601717
C           59.70048670537472       54.89008327749134       41.14470331872546
C           59.31680852103359       54.88925507070805       39.80818322200550
C           57.98429418181454       54.78572727138777       39.45223437961443
C           57.00580126968236       54.71853749271081       40.42917877605658
C           57.37314709139082       54.73990577114319       41.76242262386042
C           58.70920493120499       54.81706611236934       42.11316443303269
C           61.66436424976132       56.38621264673304       41.29676904220641
C           63.15875175220686       56.61108341323384       41.57490031181267
C           63.57999055067794       57.99115851900062       41.13308643614423
C           64.68485696238454       58.14378177109622       40.30382106727767
C           65.11516678596358       59.39862382150341       39.91157492421490
C           64.44110419912718       60.52852758044310       40.34186803508481
C           63.33817287384032       60.38919121591383       41.16596495209413
C           62.91471148774497       59.13359825748897       41.56147978823364
C           63.51189222643137       56.41892127998162       43.05563142962516
C           65.02683011840151       56.44634965694723       43.30260730320759
C           65.73851611455027       55.35407998446848       42.54235663448743
C           66.88827144010374       55.64481855015178       41.81838829288941
C           67.56541963436882       54.65517728663663       41.12665415124162
C           67.09919420220349       53.35190669986248       41.14266450370128
C           65.96077027689324       53.04479621456400       41.86790076709472
C           65.29636500215230       54.03543639188825       42.56838621596780
C           65.34524048534094       56.30641092071092       44.80238146421845
C           65.05972255285877       57.59878796865281       45.58125404697999
C           66.21495411718277       58.56694772837209       45.53388483408261
C           66.00628754998850       59.88553324470893       45.14868154938355
C           67.04243155395719       60.80315729738663       45.15334999880925